<event>
 6    0  0.1284967E-004  0.4209549E+03  0.7546771E-02  0.1036756E+00
         21   -1    0    0  502  501  0.00000000000E+00  0.00000000000E+00  0.84913889159E+03  0.84913889159E+03  0.00000000000E+00 0. -1.
         21   -1    0    0  501  502 -0.00000000000E+00 -0.00000000000E+00 -0.52171383769E+02  0.52171383769E+02  0.00000000000E+00 0. -1.
      99925    2    1    2    0    0 -0.27129361131E+02  0.72276708509E+02  0.52032055683E+03  0.58803568587E+03  0.26285463885E+03 0.  0.
         25    1    3    3    0    0 -0.33296864336E+02  0.21913772832E+02  0.32587066923E+03  0.35132334932E+03  0.12509000000E+03 0.  0.
         25    1    1    2    0    0  0.27129361131E+02 -0.72276708509E+02  0.27664695099E+03  0.31327458949E+03  0.12509000000E+03 0.  0.
         25    1    3    3    0    0  0.61675032054E+01  0.50362935677E+02  0.19444988760E+03  0.23671233655E+03  0.12509000000E+03 0.  0.
<mgrwt>
<rscale>  2 0.42095487E+03</rscale>
<asrwt>0</asrwt>
<pdfrwt beam="1">  1       21 0.12487336E+00 0.42095487E+03</pdfrwt>
<pdfrwt beam="2">  1       21 0.76722628E-02 0.42095487E+03</pdfrwt>
<totfact> 0.56885168E+04</totfact>
</mgrwt>
</event>
<event>
 6    0  0.1284967E-004  0.4268964E+03  0.7546771E-02  0.1034845E+00
         21   -1    0    0  502  501  0.00000000000E+00  0.00000000000E+00  0.16309767352E+03  0.16309767352E+03  0.00000000000E+00 0.  1.
         21   -1    0    0  501  502 -0.00000000000E+00 -0.00000000000E+00 -0.27934266663E+03  0.27934266663E+03  0.00000000000E+00 0.  1.
      99925    2    1    2    0    0 -0.13305646751E+02 -0.60301509225E+02 -0.13462514982E+03  0.30173266264E+03  0.26287897688E+03 0.  0.
         25    1    1    2    0    0  0.13305646751E+02  0.60301509225E+02  0.18380156716E+02  0.14070767751E+03  0.12509000000E+03 0.  0.
         25    1    3    3    0    0 -0.34926071455E+02 -0.86491725770E+01 -0.87359425422E+02  0.15676037753E+03  0.12509000000E+03 0.  0.
         25    1    3    3    0    0  0.21620424705E+02 -0.51652336648E+02 -0.47265724397E+02  0.14497228510E+03  0.12509000000E+03 0.  0.
<mgrwt>
<rscale>  2 0.42689642E+03</rscale>
<asrwt>0</asrwt>
<pdfrwt beam="1">  1       21 0.23984952E-01 0.42689642E+03</pdfrwt>
<pdfrwt beam="2">  1       21 0.41079803E-01 0.42689642E+03</pdfrwt>
<totfact> 0.87474549E+04</totfact>
</mgrwt>
</event>
<event>
 6    0  0.1284967E-004  0.4285419E+03  0.7546771E-02  0.1034322E+00
         21   -1    0    0  502  501  0.00000000000E+00  0.00000000000E+00  0.22975929363E+02  0.22975929363E+02  0.00000000000E+00 0. -1.
         21   -1    0    0  501  502 -0.00000000000E+00 -0.00000000000E+00 -0.19982671932E+04  0.19982671932E+04  0.00000000000E+00 0. -1.
      99925    2    1    2    0    0  0.80533725404E+02 -0.22214261256E+02 -0.13779020460E+04  0.14052069710E+04  0.26270407054E+03 0.  0.
         25    1    3    3    0    0  0.32945230022E+02 -0.18831912003E+02 -0.48428483572E+03  0.50161672549E+03  0.12509000000E+03 0.  0.
         25    1    1    2    0    0 -0.80533725404E+02  0.22214261256E+02 -0.59738921787E+03  0.61603615159E+03  0.12509000000E+03 0.  0.
         25    1    3    3    0    0  0.47588495382E+02 -0.33823492536E+01 -0.89361721025E+03  0.90359024548E+03  0.12509000000E+03 0.  0.
<mgrwt>
<rscale>  2 0.42854193E+03</rscale>
<asrwt>0</asrwt>
<pdfrwt beam="1">  1       21 0.33788129E-02 0.42854193E+03</pdfrwt>
<pdfrwt beam="2">  1       21 0.29386284E+00 0.42854193E+03</pdfrwt>
<totfact> 0.16504633E+04</totfact>
</mgrwt>
</event>
<event>
 6    0  0.1284967E-004  0.4002266E+03  0.7546771E-02  0.1043701E+00
         21   -1    0    0  502  501  0.00000000000E+00  0.00000000000E+00  0.81389428327E+03  0.81389428327E+03  0.00000000000E+00 0.  1.
         21   -1    0    0  501  502 -0.00000000000E+00 -0.00000000000E+00 -0.49202129426E+02  0.49202129426E+02  0.00000000000E+00 0.  1.
      99925    2    1    2    0    0  0.37341636095E+02  0.63872514714E+01  0.56612404983E+03  0.62537389630E+03  0.26298455395E+03 0.  0.
         25    1    3    3    0    0  0.24415771893E+02  0.21237888955E+02  0.37010049855E+03  0.39200646037E+03  0.12509000000E+03 0.  0.
         25    1    1    2    0    0 -0.37341636095E+02 -0.63872514714E+01  0.19856810402E+03  0.23772251639E+03  0.12509000000E+03 0.  0.
         25    1    3    3    0    0  0.12925864202E+02 -0.14850637484E+02  0.19602355128E+03  0.23336743594E+03  0.12509000000E+03 0.  0.
<mgrwt>
<rscale>  2 0.40022660E+03</rscale>
<asrwt>0</asrwt>
<pdfrwt beam="1">  1       21 0.11969033E+00 0.40022660E+03</pdfrwt>
<pdfrwt beam="2">  1       21 0.72356078E-02 0.40022660E+03</pdfrwt>
<totfact> 0.70639530E+04</totfact>
</mgrwt>
</event>
<event>
 6    0  0.1284967E-004  0.4060411E+03  0.7546771E-02  0.1041708E+00
         21   -1    0    0  502  501  0.00000000000E+00  0.00000000000E+00  0.14598144553E+03  0.14598144553E+03  0.00000000000E+00 0.  1.
         21   -1    0    0  501  502 -0.00000000000E+00 -0.00000000000E+00 -0.28234652109E+03  0.28234652109E+03  0.00000000000E+00 0.  1.
      99925    2    1    2    0    0 -0.61034723749E+01 -0.27141194482E+02 -0.14173315827E+03  0.30006955082E+03  0.26302005696E+03 0.  0.
         25    1    3    3    0    0 -0.69601630486E+01 -0.51954278234E+02 -0.58015910718E+02  0.14751625298E+03  0.12509000000E+03 0.  0.
         25    1    3    3    0    0  0.85669067377E+00  0.24813083752E+02 -0.83717247550E+02  0.15255329784E+03  0.12509000000E+03 0.  0.
         25    1    1    2    0    0  0.61034723749E+01  0.27141194482E+02  0.53680827006E+01  0.12825841581E+03  0.12509000000E+03 0.  0.
<mgrwt>
<rscale>  2 0.40604115E+03</rscale>
<asrwt>0</asrwt>
<pdfrwt beam="1">  1       21 0.21467860E-01 0.40604115E+03</pdfrwt>
<pdfrwt beam="2">  1       21 0.41521546E-01 0.40604115E+03</pdfrwt>
<totfact> 0.10634776E+05</totfact>
</mgrwt>
</event>
<event>
 6    0  0.1284967E-004  0.4067343E+03  0.7546771E-02  0.1041472E+00
         21   -1    0    0  502  501  0.00000000000E+00  0.00000000000E+00  0.74042473678E+02  0.74042473678E+02  0.00000000000E+00 0. -1.
         21   -1    0    0  501  502 -0.00000000000E+00 -0.00000000000E+00 -0.55857385146E+03  0.55857385146E+03  0.00000000000E+00 0. -1.
      99925    2    1    2    0    0 -0.13236497985E+02  0.18566163697E+02 -0.23744238272E+03  0.35473076075E+03  0.26255498510E+03 0.  0.
         25    1    3    3    0    0  0.29865708774E+02 -0.14769821101E+01 -0.13265807147E+03  0.18476962429E+03  0.12509000000E+03 0.  0.
         25    1    3    3    0    0 -0.43102206759E+02  0.20043145807E+02 -0.10478431126E+03  0.16996113646E+03  0.12509000000E+03 0.  0.
         25    1    1    2    0    0  0.13236497985E+02 -0.18566163697E+02 -0.24708899506E+03  0.27788556439E+03  0.12509000000E+03 0.  0.
<mgrwt>
<rscale>  2 0.40673426E+03</rscale>
<asrwt>0</asrwt>
<pdfrwt beam="1">  1       21 0.10888599E-01 0.40673426E+03</pdfrwt>
<pdfrwt beam="2">  1       21 0.82143215E-01 0.40673426E+03</pdfrwt>
<totfact> 0.84612701E+04</totfact>
</mgrwt>
</event>
<event>
 6    0  0.1284967E-004  0.4073414E+03  0.7546771E-02  0.1041267E+00
         21   -1    0    0  502  501  0.00000000000E+00  0.00000000000E+00  0.10260419454E+03  0.10260419454E+03  0.00000000000E+00 0. -1.
         21   -1    0    0  501  502 -0.00000000000E+00 -0.00000000000E+00 -0.40428896923E+03  0.40428896923E+03  0.00000000000E+00 0. -1.
      99925    2    1    2    0    0 -0.49022908900E+02 -0.30014217075E+02 -0.21282837201E+03  0.34304241698E+03  0.26282710114E+03 0.  0.
         25    1    3    3    0    0 -0.39863696742E+02  0.21237715951E+02 -0.11641082694E+03  0.17674598617E+03  0.12509000000E+03 0.  0.
         25    1    3    3    0    0 -0.91592121583E+01 -0.51251933026E+02 -0.96417545065E+02  0.16629643082E+03  0.12509000000E+03 0.  0.
         25    1    1    2    0    0  0.49022908900E+02  0.30014217075E+02 -0.88856402682E+02  0.16385074678E+03  0.12509000000E+03 0.  0.
<mgrwt>
<rscale>  2 0.40734135E+03</rscale>
<asrwt>0</asrwt>
<pdfrwt beam="1">  1       21 0.15088852E-01 0.40734135E+03</pdfrwt>
<pdfrwt beam="2">  1       21 0.59454260E-01 0.40734135E+03</pdfrwt>
<totfact> 0.96346410E+04</totfact>
</mgrwt>
</event>
<event>
 6    0  0.1284967E-004  0.3912140E+03  0.7546771E-02  0.1046865E+00
         21   -1    0    0  502  501  0.00000000000E+00  0.00000000000E+00  0.12770513825E+04  0.12770513825E+04  0.00000000000E+00 0. -1.
         21   -1    0    0  501  502 -0.00000000000E+00 -0.00000000000E+00 -0.29961286977E+02  0.29961286977E+02  0.00000000000E+00 0. -1.
      99925    2    1    2    0    0  0.13763293815E+02 -0.94327939834E+01  0.89814916131E+03  0.93595244589E+03  0.26278633744E+03 0.  0.
         25    1    1    2    0    0 -0.13763293815E+02  0.94327939834E+01  0.34894093422E+03  0.37106022359E+03  0.12509000000E+03 0.  0.
         25    1    3    3    0    0 -0.13631287919E+02  0.86956200614E+01  0.55721109582E+03  0.57130826987E+03  0.12509000000E+03 0.  0.
         25    1    3    3    0    0  0.27394581734E+02 -0.18128414045E+02  0.34093806550E+03  0.36464417602E+03  0.12509000000E+03 0.  0.
<mgrwt>
<rscale>  2 0.39121402E+03</rscale>
<asrwt>0</asrwt>
<pdfrwt beam="1">  1       21 0.18780164E+00 0.39121402E+03</pdfrwt>
<pdfrwt beam="2">  1       21 0.44060725E-02 0.39121402E+03</pdfrwt>
<totfact> 0.49137889E+04</totfact>
</mgrwt>
</event>
<event>
 6    0  0.1284967E-004  0.4230982E+03  0.7546771E-02  0.1036063E+00
         21   -1    0    0  502  501  0.00000000000E+00  0.00000000000E+00  0.52061807000E+03  0.52061807000E+03  0.00000000000E+00 0. -1.
         21   -1    0    0  501  502 -0.00000000000E+00 -0.00000000000E+00 -0.85961338593E+02  0.85961338593E+02  0.00000000000E+00 0. -1.
      99925    2    1    2    0    0  0.49120472368E+02 -0.26721958713E+02  0.36361055758E+03  0.45223579584E+03  0.26301652718E+03 0.  0.
         25    1    1    2    0    0 -0.49120472368E+02  0.26721958713E+02  0.71046173820E+02  0.15434361275E+03  0.12509000000E+03 0.  0.
         25    1    3    3    0    0  0.38443911106E+02 -0.46227908833E+02  0.22360583521E+03  0.26317680653E+03  0.12509000000E+03 0.  0.
         25    1    3    3    0    0  0.10676561262E+02  0.19505950120E+02  0.14000472237E+03  0.18905898931E+03  0.12509000000E+03 0.  0.
<mgrwt>
<rscale>  2 0.42309822E+03</rscale>
<asrwt>0</asrwt>
<pdfrwt beam="1">  1       21 0.76561479E-01 0.42309822E+03</pdfrwt>
<pdfrwt beam="2">  1       21 0.12641374E-01 0.42309822E+03</pdfrwt>
<totfact> 0.75595646E+04</totfact>
</mgrwt>
</event>
<event>
 6    0  0.1284967E-004  0.4248451E+03  0.7546771E-02  0.1035501E+00
         21   -1    0    0  502  501  0.00000000000E+00  0.00000000000E+00  0.33569759801E+04  0.33569759801E+04  0.00000000000E+00 0.  1.
         21   -1    0    0  501  502 -0.00000000000E+00 -0.00000000000E+00 -0.13441663183E+02  0.13441663183E+02  0.00000000000E+00 0.  1.
      99925    2    1    2    0    0  0.76743124110E+02  0.51065801923E+01  0.23892952665E+04  0.24049461223E+04  0.26290377843E+03 0.  0.
         25    1    1    2    0    0 -0.76743124110E+02 -0.51065801923E+01  0.95423905043E+03  0.96547152093E+03  0.12509000000E+03 0.  0.
         25    1    3    3    0    0  0.24019967988E+02  0.19627626724E+01  0.14928786732E+04  0.14983040587E+04  0.12509000000E+03 0.  0.
         25    1    3    3    0    0  0.52723156122E+02  0.31438175199E+01  0.89641659324E+03  0.90664206362E+03  0.12509000000E+03 0.  0.
<mgrwt>
<rscale>  2 0.42484510E+03</rscale>
<asrwt>0</asrwt>
<pdfrwt beam="1">  1       21 0.49367236E+00 0.42484510E+03</pdfrwt>
<pdfrwt beam="2">  1       21 0.19767175E-02 0.42484510E+03</pdfrwt>
<totfact> 0.21108296E+03</totfact>
</mgrwt>
</event>
<event>
 6    0  0.1284967E-004  0.4030599E+03  0.7546771E-02  0.1042725E+00
         21   -1    0    0  502  501  0.00000000000E+00  0.00000000000E+00  0.16849440024E+03  0.16849440024E+03  0.00000000000E+00 0.  1.
         21   -1    0    0  501  502 -0.00000000000E+00 -0.00000000000E+00 -0.24104257294E+03  0.24104257294E+03  0.00000000000E+00 0.  1.
      99925    2    1    2    0    0  0.25382490405E+02  0.23671637169E+02 -0.86362808826E+02  0.27898824857E+03  0.26300435523E+03 0.  0.
         25    1    3    3    0    0  0.57668887591E+01 -0.10030150601E+02 -0.70400028881E+01  0.12582102633E+03  0.12509000000E+03 0.  0.
         25    1    1    2    0    0 -0.25382490405E+02 -0.23671637169E+02  0.13814636119E+02  0.13054872461E+03  0.12509000000E+03 0.  0.
         25    1    3    3    0    0  0.19615601646E+02  0.33701787770E+02 -0.79322805938E+02  0.15316722224E+03  0.12509000000E+03 0.  0.
<mgrwt>
<rscale>  2 0.40305991E+03</rscale>
<asrwt>0</asrwt>
<pdfrwt beam="1">  1       21 0.24778588E-01 0.40305991E+03</pdfrwt>
<pdfrwt beam="2">  1       21 0.35447437E-01 0.40305991E+03</pdfrwt>
<totfact> 0.11153519E+05</totfact>
</mgrwt>
</event>
<event>
 6    0  0.1284967E-004  0.3896241E+03  0.7546771E-02  0.1047433E+00
         21   -1    0    0  502  501  0.00000000000E+00  0.00000000000E+00  0.84844467813E+02  0.84844467813E+02  0.00000000000E+00 0.  1.
         21   -1    0    0  501  502 -0.00000000000E+00 -0.00000000000E+00 -0.44730936618E+03  0.44730936618E+03  0.00000000000E+00 0.  1.
      99925    2    1    2    0    0 -0.12118715818E+02  0.13599145811E+01 -0.23061614491E+03  0.34999918945E+03  0.26299603358E+03 0.  0.
         25    1    3    3    0    0  0.28758903295E+02 -0.54488562874E+01 -0.87388045958E+02  0.15537356027E+03  0.12509000000E+03 0.  0.
         25    1    3    3    0    0 -0.40877619113E+02  0.68087708685E+01 -0.14322809895E+03  0.19462562918E+03  0.12509000000E+03 0.  0.
         25    1    1    2    0    0  0.12118715818E+02 -0.13599145811E+01 -0.13184875346E+03  0.18215464455E+03  0.12509000000E+03 0.  0.
<mgrwt>
<rscale>  2 0.38962405E+03</rscale>
<asrwt>0</asrwt>
<pdfrwt beam="1">  1       21 0.12477128E-01 0.38962405E+03</pdfrwt>
<pdfrwt beam="2">  1       21 0.65780788E-01 0.38962405E+03</pdfrwt>
<totfact> 0.10975785E+05</totfact>
</mgrwt>
</event>
<event>
 6    0  0.1284967E-004  0.4598002E+03  0.7546771E-02  0.1024839E+00
         21   -1    0    0  502  501  0.00000000000E+00  0.00000000000E+00  0.15169723906E+03  0.15169723906E+03  0.00000000000E+00 0. -1.
         21   -1    0    0  501  502 -0.00000000000E+00 -0.00000000000E+00 -0.34841801963E+03  0.34841801963E+03  0.00000000000E+00 0. -1.
      99925    2    1    2    0    0  0.57497865709E+02  0.51356287349E+02 -0.21988335169E+03  0.35136215582E+03  0.26298897959E+03 0.  0.
         25    1    3    3    0    0  0.12150750532E+02 -0.59260362854E+01 -0.12981627236E+03  0.18078310572E+03  0.12509000000E+03 0.  0.
         25    1    1    2    0    0 -0.57497865709E+02 -0.51356287349E+02  0.23162571119E+02  0.14875310287E+03  0.12509000000E+03 0.  0.
         25    1    3    3    0    0  0.45347115176E+02  0.57282323634E+02 -0.90067079323E+02  0.17057905010E+03  0.12509000000E+03 0.  0.
<mgrwt>
<rscale>  2 0.45980018E+03</rscale>
<asrwt>0</asrwt>
<pdfrwt beam="1">  1       21 0.22308418E-01 0.45980018E+03</pdfrwt>
<pdfrwt beam="2">  1       21 0.51237943E-01 0.45980018E+03</pdfrwt>
<totfact> 0.62833901E+04</totfact>
</mgrwt>
</event>
<event>
 6    0  0.1284967E-004  0.4083212E+03  0.7546771E-02  0.1040936E+00
         21   -1    0    0  502  501  0.00000000000E+00  0.00000000000E+00  0.36282055267E+03  0.36282055267E+03  0.00000000000E+00 0.  1.
         21   -1    0    0  501  502 -0.00000000000E+00 -0.00000000000E+00 -0.11488199868E+03  0.11488199868E+03  0.00000000000E+00 0.  1.
      99925    2    1    2    0    0 -0.24372926440E+02  0.30091690675E+02  0.21714463269E+03  0.34318369364E+03  0.26291387693E+03 0.  0.
         25    1    3    3    0    0  0.65281346450E+01 -0.14189335767E+02  0.13197322645E+03  0.18250587495E+03  0.12509000000E+03 0.  0.
         25    1    3    3    0    0 -0.30901061085E+02  0.44281026443E+02  0.85171406246E+02  0.16067781870E+03  0.12509000000E+03 0.  0.
         25    1    1    2    0    0  0.24372926440E+02 -0.30091690675E+02  0.30793921294E+02  0.13451885771E+03  0.12509000000E+03 0.  0.
<mgrwt>
<rscale>  2 0.40832120E+03</rscale>
<asrwt>0</asrwt>
<pdfrwt beam="1">  1       21 0.53355963E-01 0.40832120E+03</pdfrwt>
<pdfrwt beam="2">  1       21 0.16894412E-01 0.40832120E+03</pdfrwt>
<totfact> 0.98642842E+04</totfact>
</mgrwt>
</event>
<event>
 6    0  0.1284967E-004  0.4458405E+03  0.7546771E-02  0.1028970E+00
         21   -1    0    0  502  501  0.00000000000E+00  0.00000000000E+00  0.77170296582E+03  0.77170296582E+03  0.00000000000E+00 0.  1.
         21   -1    0    0  501  502 -0.00000000000E+00 -0.00000000000E+00 -0.64394521963E+02  0.64394521963E+02  0.00000000000E+00 0.  1.
      99925    2    1    2    0    0  0.58021953547E+02  0.86682564159E+02  0.44740135106E+03  0.52937347665E+03  0.26303591926E+03 0.  0.
         25    1    1    2    0    0 -0.58021953547E+02 -0.86682564159E+02  0.25990709279E+03  0.30672401113E+03  0.12509000000E+03 0.  0.
         25    1    3    3    0    0 -0.34922244935E+01  0.59842931408E+02  0.18751743610E+03  0.23324594104E+03  0.12509000000E+03 0.  0.
         25    1    3    3    0    0  0.61514178040E+02  0.26839632752E+02  0.25988391496E+03  0.29612753560E+03  0.12509000000E+03 0.  0.
<mgrwt>
<rscale>  2 0.44584053E+03</rscale>
<asrwt>0</asrwt>
<pdfrwt beam="1">  1       21 0.11348572E+00 0.44584053E+03</pdfrwt>
<pdfrwt beam="2">  1       21 0.94697831E-02 0.44584053E+03</pdfrwt>
<totfact> 0.49532517E+04</totfact>
</mgrwt>
</event>
<event>
 6    0  0.1284967E-004  0.4747386E+03  0.7546771E-02  0.1020591E+00
         21   -1    0    0  502  501  0.00000000000E+00  0.00000000000E+00  0.54479131609E+03  0.54479131609E+03  0.00000000000E+00 0.  1.
         21   -1    0    0  501  502 -0.00000000000E+00 -0.00000000000E+00 -0.10342342009E+03  0.10342342009E+03  0.00000000000E+00 0.  1.
      99925    2    1    2    0    0 -0.83142943780E+02 -0.25413947497E+02  0.40662519857E+03  0.49196755716E+03  0.26292471803E+03 0.  0.
         25    1    1    2    0    0  0.83142943780E+02  0.25413947497E+02  0.34742697430E+02  0.15624717902E+03  0.12509000000E+03 0.  0.
         25    1    3    3    0    0 -0.11192874928E+02  0.71325096215E+01  0.15006269079E+03  0.19581233978E+03  0.12509000000E+03 0.  0.
         25    1    3    3    0    0 -0.71950068852E+02 -0.32546457119E+02  0.25656250779E+03  0.29615521738E+03  0.12509000000E+03 0.  0.
<mgrwt>
<rscale>  2 0.47473859E+03</rscale>
<asrwt>0</asrwt>
<pdfrwt beam="1">  1       21 0.80116369E-01 0.47473859E+03</pdfrwt>
<pdfrwt beam="2">  1       21 0.15209327E-01 0.47473859E+03</pdfrwt>
<totfact> 0.47896979E+04</totfact>
</mgrwt>
</event>
<event>
 6    0  0.1284967E-004  0.4022667E+03  0.7546771E-02  0.1042998E+00
         21   -1    0    0  502  501  0.00000000000E+00  0.00000000000E+00  0.16842262662E+03  0.16842262662E+03  0.00000000000E+00 0.  1.
         21   -1    0    0  501  502 -0.00000000000E+00 -0.00000000000E+00 -0.24019706782E+03  0.24019706782E+03  0.00000000000E+00 0.  1.
      99925    2    1    2    0    0 -0.42342724186E+02 -0.25893852431E+02 -0.49806271269E+02  0.27226168597E+03  0.26302540391E+03 0.  0.
         25    1    3    3    0    0 -0.37715989552E+02 -0.16735403338E+02 -0.63092160330E+02  0.14605032827E+03  0.12509000000E+03 0.  0.
         25    1    3    3    0    0 -0.46267346343E+01 -0.91584490935E+01  0.13285889062E+02  0.12621135770E+03  0.12509000000E+03 0.  0.
         25    1    1    2    0    0  0.42342724186E+02  0.25893852431E+02 -0.21968169926E+02  0.13635800847E+03  0.12509000000E+03 0.  0.
<mgrwt>
<rscale>  2 0.40226668E+03</rscale>
<asrwt>0</asrwt>
<pdfrwt beam="1">  1       21 0.24768033E-01 0.40226668E+03</pdfrwt>
<pdfrwt beam="2">  1       21 0.35323098E-01 0.40226668E+03</pdfrwt>
<totfact> 0.11244098E+05</totfact>
</mgrwt>
</event>
<event>
 6    0  0.1284967E-004  0.3984488E+03  0.7546771E-02  0.1044318E+00
         21   -1    0    0  502  501  0.00000000000E+00  0.00000000000E+00  0.13625251599E+03  0.13625251599E+03  0.00000000000E+00 0.  1.
         21   -1    0    0  501  502 -0.00000000000E+00 -0.00000000000E+00 -0.29129997671E+03  0.29129997671E+03  0.00000000000E+00 0.  1.
      99925    2    1    2    0    0  0.19724622192E+02 -0.35814513789E+02 -0.91739955456E+02  0.28151452352E+03  0.26298758033E+03 0.  0.
         25    1    3    3    0    0  0.27531070201E+02 -0.44098125817E+02 -0.74880970216E+02  0.15478136945E+03  0.12509000000E+03 0.  0.
         25    1    3    3    0    0 -0.78064480088E+01  0.82836120287E+01 -0.16858985239E+02  0.12673315408E+03  0.12509000000E+03 0.  0.
         25    1    1    2    0    0 -0.19724622192E+02  0.35814513789E+02 -0.63307505271E+02  0.14603796918E+03  0.12509000000E+03 0.  0.
<mgrwt>
<rscale>  2 0.39844877E+03</rscale>
<asrwt>0</asrwt>
<pdfrwt beam="1">  1       21 0.20037135E-01 0.39844877E+03</pdfrwt>
<pdfrwt beam="2">  1       21 0.42838231E-01 0.39844877E+03</pdfrwt>
<totfact> 0.11386677E+05</totfact>
</mgrwt>
</event>
<event>
 6    0  0.1284967E-004  0.4469172E+03  0.7546771E-02  0.1028645E+00
         21   -1    0    0  502  501  0.00000000000E+00  0.00000000000E+00  0.25783523046E+03  0.25783523046E+03  0.00000000000E+00 0.  1.
         21   -1    0    0  501  502 -0.00000000000E+00 -0.00000000000E+00 -0.19366529617E+03  0.19366529617E+03  0.00000000000E+00 0.  1.
      99925    2    1    2    0    0 -0.70258849651E+02 -0.78102179625E+02  0.49066040990E+02  0.28745208222E+03  0.26303035334E+03 0.  0.
         25    1    3    3    0    0 -0.47314510854E+02 -0.59362994007E+02 -0.85696629936E+01  0.14657276425E+03  0.12509000000E+03 0.  0.
         25    1    3    3    0    0 -0.22944338797E+02 -0.18739185618E+02  0.57635703983E+02  0.14087931798E+03  0.12509000000E+03 0.  0.
         25    1    1    2    0    0  0.70258849651E+02  0.78102179625E+02  0.15103893300E+02  0.16404844440E+03  0.12509000000E+03 0.  0.
<mgrwt>
<rscale>  2 0.44691716E+03</rscale>
<asrwt>0</asrwt>
<pdfrwt beam="1">  1       21 0.37916946E-01 0.44691716E+03</pdfrwt>
<pdfrwt beam="2">  1       21 0.28480191E-01 0.44691716E+03</pdfrwt>
<totfact> 0.73424373E+04</totfact>
</mgrwt>
</event>
<event>
 6    0  0.1284967E-004  0.4049450E+03  0.7546771E-02  0.1042081E+00
         21   -1    0    0  502  501  0.00000000000E+00  0.00000000000E+00  0.82975725643E+03  0.82975725643E+03  0.00000000000E+00 0.  1.
         21   -1    0    0  501  502 -0.00000000000E+00 -0.00000000000E+00 -0.49406156970E+02  0.49406156970E+02  0.00000000000E+00 0.  1.
      99925    2    1    2    0    0 -0.22278656922E+02  0.28154297956E+02  0.42711960842E+03  0.50272085814E+03  0.26269392506E+03 0.  0.
         25    1    3    3    0    0 -0.18666023291E+01  0.30482835774E+02  0.14806582783E+03  0.19622355861E+03  0.12509000000E+03 0.  0.
         25    1    1    2    0    0  0.22278656922E+02 -0.28154297956E+02  0.35323149104E+03  0.37644255526E+03  0.12509000000E+03 0.  0.
         25    1    3    3    0    0 -0.20412054592E+02 -0.23285378177E+01  0.27905378059E+03  0.30649729953E+03  0.12509000000E+03 0.  0.
<mgrwt>
<rscale>  2 0.40494502E+03</rscale>
<asrwt>0</asrwt>
<pdfrwt beam="1">  1       21 0.12202312E+00 0.40494502E+03</pdfrwt>
<pdfrwt beam="2">  1       21 0.72656119E-02 0.40494502E+03</pdfrwt>
<totfact> 0.66688488E+04</totfact>
</mgrwt>
</event>
<event>
 6    0  0.1284967E-004  0.4064417E+03  0.7546771E-02  0.1041572E+00
         21   -1    0    0  502  501  0.00000000000E+00  0.00000000000E+00  0.59112124848E+03  0.59112124848E+03  0.00000000000E+00 0.  1.
         21   -1    0    0  501  502 -0.00000000000E+00 -0.00000000000E+00 -0.69865059005E+02  0.69865059005E+02  0.00000000000E+00 0.  1.
      99925    2    1    2    0    0  0.36909631533E+01 -0.34566789537E+02  0.27164153902E+03  0.37962627484E+03  0.26290396855E+03 0.  0.
         25    1    1    2    0    0 -0.36909631533E+01  0.34566789537E+02  0.24961465045E+03  0.28136003264E+03  0.12509000000E+03 0.  0.
         25    1    3    3    0    0  0.94709285732E+01  0.21228925132E+02  0.14613308125E+03  0.19375951921E+03  0.12509000000E+03 0.  0.
         25    1    3    3    0    0 -0.57799654199E+01 -0.55795714669E+02  0.12550845778E+03  0.18586675563E+03  0.12509000000E+03 0.  0.
<mgrwt>
<rscale>  2 0.40644173E+03</rscale>
<asrwt>0</asrwt>
<pdfrwt beam="1">  1       21 0.86929593E-01 0.40644173E+03</pdfrwt>
<pdfrwt beam="2">  1       21 0.10274274E-01 0.40644173E+03</pdfrwt>
<totfact> 0.82335118E+04</totfact>
</mgrwt>
</event>
<event>
 6    0  0.1284967E-004  0.4443286E+03  0.7546771E-02  0.1029427E+00
         21   -1    0    0  502  501  0.00000000000E+00  0.00000000000E+00  0.88639666668E+02  0.88639666668E+02  0.00000000000E+00 0.  1.
         21   -1    0    0  501  502 -0.00000000000E+00 -0.00000000000E+00 -0.55682730981E+03  0.55682730981E+03  0.00000000000E+00 0.  1.
      99925    2    1    2    0    0 -0.74313913582E+00  0.64158783869E+02 -0.18110164455E+03  0.32580656215E+03  0.26312584152E+03 0.  0.
         25    1    3    3    0    0  0.45800847902E+01 -0.80678277926E+01 -0.71243522939E+02  0.14425399365E+03  0.12509000000E+03 0.  0.
         25    1    3    3    0    0 -0.53232239260E+01  0.72226611662E+02 -0.10985812161E+03  0.18155256850E+03  0.12509000000E+03 0.  0.
         25    1    1    2    0    0  0.74313913582E+00 -0.64158783869E+02 -0.28708599859E+03  0.31966041433E+03  0.12509000000E+03 0.  0.
<mgrwt>
<rscale>  2 0.44432865E+03</rscale>
<asrwt>0</asrwt>
<pdfrwt beam="1">  1       21 0.13035245E-01 0.44432865E+03</pdfrwt>
<pdfrwt beam="2">  1       21 0.81886371E-01 0.44432865E+03</pdfrwt>
<totfact> 0.60933679E+04</totfact>
</mgrwt>
</event>
<event>
 6    0  0.1284967E-004  0.4181484E+03  0.7546771E-02  0.1037671E+00
         21   -1    0    0  502  501  0.00000000000E+00  0.00000000000E+00  0.80919690629E+03  0.80919690629E+03  0.00000000000E+00 0. -1.
         21   -1    0    0  501  502 -0.00000000000E+00 -0.00000000000E+00 -0.54019027716E+02  0.54019027716E+02  0.00000000000E+00 0. -1.
      99925    2    1    2    0    0 -0.45216117394E+02 -0.37224327886E+02  0.40172378654E+03  0.48373279719E+03  0.26303093077E+03 0.  0.
         25    1    3    3    0    0 -0.24476115738E+02  0.10641693386E+02  0.24618686102E+03  0.27743072022E+03  0.12509000000E+03 0.  0.
         25    1    1    2    0    0  0.45216117394E+02  0.37224327886E+02  0.35345409203E+03  0.37948313682E+03  0.12509000000E+03 0.  0.
         25    1    3    3    0    0 -0.20740001656E+02 -0.47866021272E+02  0.15553692552E+03  0.20630207697E+03  0.12509000000E+03 0.  0.
<mgrwt>
<rscale>  2 0.41814844E+03</rscale>
<asrwt>0</asrwt>
<pdfrwt beam="1">  1       21 0.11899954E+00 0.41814844E+03</pdfrwt>
<pdfrwt beam="2">  1       21 0.79439752E-02 0.41814844E+03</pdfrwt>
<totfact> 0.60531057E+04</totfact>
</mgrwt>
</event>
<event>
 6    0  0.1284967E-004  0.3943278E+03  0.7546771E-02  0.1045762E+00
         21   -1    0    0  502  501  0.00000000000E+00  0.00000000000E+00  0.23315911811E+03  0.23315911811E+03  0.00000000000E+00 0. -1.
         21   -1    0    0  501  502 -0.00000000000E+00 -0.00000000000E+00 -0.16672567262E+03  0.16672567262E+03  0.00000000000E+00 0. -1.
      99925    2    1    2    0    0 -0.32067020366E+02  0.76161291269E+01  0.51256285629E+02  0.26963828022E+03  0.26266194267E+03 0.  0.
         25    1    3    3    0    0 -0.36685030908E+02 -0.30465771540E+02  0.27140335379E+02  0.13659451172E+03  0.12509000000E+03 0.  0.
         25    1    3    3    0    0  0.46180105421E+01  0.38081900667E+02  0.24115950250E+02  0.13304376850E+03  0.12509000000E+03 0.  0.
         25    1    1    2    0    0  0.32067020366E+02 -0.76161291269E+01  0.15177159866E+02  0.13024651051E+03  0.12509000000E+03 0.  0.
<mgrwt>
<rscale>  2 0.39432784E+03</rscale>
<asrwt>0</asrwt>
<pdfrwt beam="1">  1       21 0.34288106E-01 0.39432784E+03</pdfrwt>
<pdfrwt beam="2">  1       21 0.24518481E-01 0.39432784E+03</pdfrwt>
<totfact> 0.12195076E+05</totfact>
</mgrwt>
</event>
<event>
 6    0  0.1284967E-004  0.4332848E+03  0.7546771E-02  0.1032827E+00
         21   -1    0    0  502  501  0.00000000000E+00  0.00000000000E+00  0.51954004076E+03  0.51954004076E+03  0.00000000000E+00 0. -1.
         21   -1    0    0  501  502 -0.00000000000E+00 -0.00000000000E+00 -0.90337450596E+02  0.90337450596E+02  0.00000000000E+00 0. -1.
      99925    2    1    2    0    0 -0.81275257615E+01 -0.19464271735E+02  0.15086967155E+03  0.30399902491E+03  0.26307572067E+03 0.  0.
         25    1    1    2    0    0  0.81275257615E+01  0.19464271735E+02  0.27833291862E+03  0.30587846644E+03  0.12509000000E+03 0.  0.
         25    1    3    3    0    0 -0.20531272666E+01 -0.36689287488E+02  0.11161913001E+03  0.17162941890E+03  0.12509000000E+03 0.  0.
         25    1    3    3    0    0 -0.60743984949E+01  0.17225015753E+02  0.39250541539E+02  0.13236960601E+03  0.12509000000E+03 0.  0.
<mgrwt>
<rscale>  2 0.43328477E+03</rscale>
<asrwt>0</asrwt>
<pdfrwt beam="1">  1       21 0.76402946E-01 0.43328477E+03</pdfrwt>
<pdfrwt beam="2">  1       21 0.13284919E-01 0.43328477E+03</pdfrwt>
<totfact> 0.69200761E+04</totfact>
</mgrwt>
</event>
<event>
 6    0  0.1284967E-004  0.3996692E+03  0.7546771E-02  0.1043894E+00
         21   -1    0    0  502  501  0.00000000000E+00  0.00000000000E+00  0.44961418264E+03  0.44961418264E+03  0.00000000000E+00 0. -1.
         21   -1    0    0  501  502 -0.00000000000E+00 -0.00000000000E+00 -0.88818095894E+02  0.88818095894E+02  0.00000000000E+00 0. -1.
      99925    2    1    2    0    0  0.41473815866E+01  0.44445160987E+02  0.24413363149E+03  0.36165499018E+03  0.26305993384E+03 0.  0.
         25    1    3    3    0    0  0.12196424075E+02 -0.17442944521E+02  0.11035100655E+03  0.16816022663E+03  0.12509000000E+03 0.  0.
         25    1    1    2    0    0 -0.41473815866E+01 -0.44445160987E+02  0.11666245526E+03  0.17677728835E+03  0.12509000000E+03 0.  0.
         25    1    3    3    0    0 -0.80490424886E+01  0.61888105508E+02  0.13378262493E+03  0.19349476355E+03  0.12509000000E+03 0.  0.
<mgrwt>
<rscale>  2 0.39966924E+03</rscale>
<asrwt>0</asrwt>
<pdfrwt beam="1">  1       21 0.66119732E-01 0.39966924E+03</pdfrwt>
<pdfrwt beam="2">  1       21 0.13061485E-01 0.39966924E+03</pdfrwt>
<totfact> 0.99599086E+04</totfact>
</mgrwt>
</event>
<event>
 6    0  0.1284967E-004  0.4051604E+03  0.7546771E-02  0.1042007E+00
         21   -1    0    0  502  501  0.00000000000E+00  0.00000000000E+00  0.38378709640E+03  0.38378709640E+03  0.00000000000E+00 0. -1.
         21   -1    0    0  501  502 -0.00000000000E+00 -0.00000000000E+00 -0.10693100728E+03  0.10693100728E+03  0.00000000000E+00 0. -1.
      99925    2    1    2    0    0  0.11390201179E+02 -0.50340022660E+02  0.20559313793E+03  0.33778095686E+03  0.26298969920E+03 0.  0.
         25    1    3    3    0    0  0.56058820303E+01 -0.58040647342E+02  0.76632862380E+02  0.15786147837E+03  0.12509000000E+03 0.  0.
         25    1    1    2    0    0 -0.11390201179E+02  0.50340022660E+02  0.71262951197E+02  0.15293714682E+03  0.12509000000E+03 0.  0.
         25    1    3    3    0    0  0.57843191490E+01  0.77006246822E+01  0.12896027555E+03  0.17991947848E+03  0.12509000000E+03 0.  0.
<mgrwt>
<rscale>  2 0.40516042E+03</rscale>
<asrwt>0</asrwt>
<pdfrwt beam="1">  1       21 0.56439278E-01 0.40516042E+03</pdfrwt>
<pdfrwt beam="2">  1       21 0.15725148E-01 0.40516042E+03</pdfrwt>
<totfact> 0.99971442E+04</totfact>
</mgrwt>
</event>
<event>
 6    0  0.1284967E-004  0.4070300E+03  0.7546771E-02  0.1041372E+00
         21   -1    0    0  502  501  0.00000000000E+00  0.00000000000E+00  0.62156813082E+03  0.62156813082E+03  0.00000000000E+00 0. -1.
         21   -1    0    0  501  502 -0.00000000000E+00 -0.00000000000E+00 -0.66635246639E+02  0.66635246639E+02  0.00000000000E+00 0. -1.
      99925    2    1    2    0    0 -0.31095389841E+02  0.45793356277E+02  0.33765249638E+03  0.43145013060E+03  0.26282323363E+03 0.  0.
         25    1    3    3    0    0 -0.49749686637E+02  0.27927073689E+01  0.18060593479E+03  0.22527503704E+03  0.12509000000E+03 0.  0.
         25    1    3    3    0    0  0.18654296797E+02  0.43000648908E+02  0.15704656159E+03  0.20617509356E+03  0.12509000000E+03 0.  0.
         25    1    1    2    0    0  0.31095389841E+02 -0.45793356277E+02  0.21728038781E+03  0.25675324686E+03  0.12509000000E+03 0.  0.
<mgrwt>
<rscale>  2 0.40702995E+03</rscale>
<asrwt>0</asrwt>
<pdfrwt beam="1">  1       21 0.91407075E-01 0.40702995E+03</pdfrwt>
<pdfrwt beam="2">  1       21 0.97993013E-02 0.40702995E+03</pdfrwt>
<totfact> 0.79619540E+04</totfact>
</mgrwt>
</event>
<event>
 6    0  0.1284967E-004  0.4361213E+03  0.7546771E-02  0.1031944E+00
         21   -1    0    0  502  501  0.00000000000E+00  0.00000000000E+00  0.43609721476E+03  0.43609721476E+03  0.00000000000E+00 0. -1.
         21   -1    0    0  501  502 -0.00000000000E+00 -0.00000000000E+00 -0.10903634137E+03  0.10903634137E+03  0.00000000000E+00 0. -1.
      99925    2    1    2    0    0  0.87936331436E+02  0.22752477738E+02  0.17767726130E+03  0.33016042922E+03  0.26303274741E+03 0.  0.
         25    1    3    3    0    0  0.33231304564E+02  0.32305908819E+02  0.12708916687E+03  0.18424753942E+03  0.12509000000E+03 0.  0.
         25    1    3    3    0    0  0.54705026872E+02 -0.95534310817E+01  0.50588094428E+02  0.14591288980E+03  0.12509000000E+03 0.  0.
         25    1    1    2    0    0 -0.87936331436E+02 -0.22752477738E+02  0.14938361209E+03  0.21497312690E+03  0.12509000000E+03 0.  0.
<mgrwt>
<rscale>  2 0.43612129E+03</rscale>
<asrwt>0</asrwt>
<pdfrwt beam="1">  1       21 0.64131942E-01 0.43612129E+03</pdfrwt>
<pdfrwt beam="2">  1       21 0.16034756E-01 0.43612129E+03</pdfrwt>
<totfact> 0.72415627E+04</totfact>
</mgrwt>
</event>
<event>
 6    0  0.1284967E-004  0.4116292E+03  0.7546771E-02  0.1039826E+00
         21   -1    0    0  502  501  0.00000000000E+00  0.00000000000E+00  0.28658057536E+03  0.28658057536E+03  0.00000000000E+00 0. -1.
         21   -1    0    0  501  502 -0.00000000000E+00 -0.00000000000E+00 -0.14781063379E+03  0.14781063379E+03  0.00000000000E+00 0. -1.
      99925    2    1    2    0    0  0.38949268550E+02 -0.45506594818E+02  0.66093999833E+02  0.27781152879E+03  0.26310251429E+03 0.  0.
         25    1    3    3    0    0  0.19255322403E+02 -0.58013724771E+02  0.12658781701E+02  0.13980025950E+03  0.12509000000E+03 0.  0.
         25    1    3    3    0    0  0.19693946147E+02  0.12507129953E+02  0.53435218133E+02  0.13801126929E+03  0.12509000000E+03 0.  0.
         25    1    1    2    0    0 -0.38949268550E+02  0.45506594818E+02  0.72675941732E+02  0.15657968035E+03  0.12509000000E+03 0.  0.
<mgrwt>
<rscale>  2 0.41162923E+03</rscale>
<asrwt>0</asrwt>
<pdfrwt beam="1">  1       21 0.42144203E-01 0.41162923E+03</pdfrwt>
<pdfrwt beam="2">  1       21 0.21736858E-01 0.41162923E+03</pdfrwt>
<totfact> 0.10058084E+05</totfact>
</mgrwt>
</event>
<event>
 6    0  0.1284967E-004  0.4800410E+03  0.7546771E-02  0.1019124E+00
         21   -1    0    0  502  501  0.00000000000E+00  0.00000000000E+00  0.10667463717E+03  0.10667463717E+03  0.00000000000E+00 0.  1.
         21   -1    0    0  501  502 -0.00000000000E+00 -0.00000000000E+00 -0.54005184403E+03  0.54005184403E+03  0.00000000000E+00 0.  1.
      99925    2    1    2    0    0 -0.16858452575E+01 -0.11035696194E+03 -0.37254250335E+03  0.46915995741E+03  0.26294799430E+03 0.  0.
         25    1    3    3    0    0  0.14458551190E+02 -0.48761701203E+02 -0.12203254695E+03  0.18200605436E+03  0.12509000000E+03 0.  0.
         25    1    1    2    0    0  0.16858452575E+01  0.11035696194E+03 -0.60834703500E+02  0.17756652379E+03  0.12509000000E+03 0.  0.
         25    1    3    3    0    0 -0.16144396448E+02 -0.61595260733E+02 -0.25050995640E+03  0.28715390305E+03  0.12509000000E+03 0.  0.
<mgrwt>
<rscale>  2 0.48004098E+03</rscale>
<asrwt>0</asrwt>
<pdfrwt beam="1">  1       21 0.15687447E-01 0.48004098E+03</pdfrwt>
<pdfrwt beam="2">  1       21 0.79419387E-01 0.48004098E+03</pdfrwt>
<totfact> 0.46085656E+04</totfact>
</mgrwt>
</event>
<event>
 6    0  0.1284967E-004  0.4147556E+03  0.7546771E-02  0.1038787E+00
         21   -1    0    0  502  501  0.00000000000E+00  0.00000000000E+00  0.17429674811E+03  0.17429674811E+03  0.00000000000E+00 0.  1.
         21   -1    0    0  501  502 -0.00000000000E+00 -0.00000000000E+00 -0.24673753739E+03  0.24673753739E+03  0.00000000000E+00 0.  1.
      99925    2    1    2    0    0 -0.50800059923E+02 -0.40534049585E+02 -0.70329694166E+02  0.28005336449E+03  0.26317288199E+03 0.  0.
         25    1    3    3    0    0 -0.41387639149E+02  0.90753058510E+01 -0.10512776135E+02  0.13248895959E+03  0.12509000000E+03 0.  0.
         25    1    1    2    0    0  0.50800059923E+02  0.40534049585E+02 -0.21110951132E+01  0.14098092100E+03  0.12509000000E+03 0.  0.
         25    1    3    3    0    0 -0.94124207736E+01 -0.49609355436E+02 -0.59816918031E+02  0.14756440490E+03  0.12509000000E+03 0.  0.
<mgrwt>
<rscale>  2 0.41475559E+03</rscale>
<asrwt>0</asrwt>
<pdfrwt beam="1">  1       21 0.25631875E-01 0.41475559E+03</pdfrwt>
<pdfrwt beam="2">  1       21 0.36284932E-01 0.41475559E+03</pdfrwt>
<totfact> 0.99375127E+04</totfact>
</mgrwt>
</event>
<event>
 6    0  0.1284967E-004  0.4295232E+03  0.7546771E-02  0.1034011E+00
         21   -1    0    0  502  501  0.00000000000E+00  0.00000000000E+00  0.38785020860E+03  0.38785020860E+03  0.00000000000E+00 0. -1.
         21   -1    0    0  501  502 -0.00000000000E+00 -0.00000000000E+00 -0.11891844279E+03  0.11891844279E+03  0.00000000000E+00 0. -1.
      99925    2    1    2    0    0  0.61734300205E+02  0.42683232950E+02  0.12128987956E+03  0.29921476232E+03  0.26303090485E+03 0.  0.
         25    1    3    3    0    0  0.78279490231E+01 -0.62281575589E+01  0.79590184004E+02  0.14860071407E+03  0.12509000000E+03 0.  0.
         25    1    3    3    0    0  0.53906351181E+02  0.48911390509E+02  0.41699695558E+02  0.15061404825E+03  0.12509000000E+03 0.  0.
         25    1    1    2    0    0 -0.61734300205E+02 -0.42683232950E+02  0.14764188625E+03  0.20755388908E+03  0.12509000000E+03 0.  0.
<mgrwt>
<rscale>  2 0.42952319E+03</rscale>
<asrwt>0</asrwt>
<pdfrwt beam="1">  1       21 0.57036795E-01 0.42952319E+03</pdfrwt>
<pdfrwt beam="2">  1       21 0.17488006E-01 0.42952319E+03</pdfrwt>
<totfact> 0.79727259E+04</totfact>
</mgrwt>
</event>
<event>
 6    0  0.1284967E-004  0.3977550E+03  0.7546771E-02  0.1044560E+00
         21   -1    0    0  502  501  0.00000000000E+00  0.00000000000E+00  0.61740533530E+02  0.61740533530E+02  0.00000000000E+00 0. -1.
         21   -1    0    0  501  502 -0.00000000000E+00 -0.00000000000E+00 -0.64062050064E+03  0.64062050064E+03  0.00000000000E+00 0. -1.
      99925    2    1    2    0    0  0.39873953742E+02  0.60295549214E+01 -0.37581312442E+03  0.46047275744E+03  0.26300830431E+03 0.  0.
         25    1    3    3    0    0  0.29949517603E+01  0.38307724896E+02 -0.16679268672E+03  0.21199943389E+03  0.12509000000E+03 0.  0.
         25    1    3    3    0    0  0.36879001981E+02 -0.32278169974E+02 -0.20902043769E+03  0.24847332355E+03  0.12509000000E+03 0.  0.
         25    1    1    2    0    0 -0.39873953742E+02 -0.60295549214E+01 -0.20306684269E+03  0.24188827673E+03  0.12509000000E+03 0.  0.
<mgrwt>
<rscale>  2 0.39775496E+03</rscale>
<asrwt>0</asrwt>
<pdfrwt beam="1">  1       21 0.90794905E-02 0.39775496E+03</pdfrwt>
<pdfrwt beam="2">  1       21 0.94208895E-01 0.39775496E+03</pdfrwt>
<totfact> 0.85117014E+04</totfact>
</mgrwt>
</event>
<event>
 6    0  0.1284967E-004  0.8241128E+03  0.7546771E-02  0.9525756E-01
         21   -1    0    0  502  501  0.00000000000E+00  0.00000000000E+00  0.19468395247E+03  0.19468395247E+03  0.00000000000E+00 0. -1.
         21   -1    0    0  501  502 -0.00000000000E+00 -0.00000000000E+00 -0.87213382623E+03  0.87213382623E+03  0.00000000000E+00 0.  1.
      99925    2    1    2    0    0  0.25581110157E+03  0.24928932777E+03 -0.32772856238E+03  0.55151496252E+03  0.26301759383E+03 0.  0.
         25    1    3    3    0    0  0.78895414237E+02  0.79583915728E+02 -0.11272475884E+03  0.20226830050E+03  0.12509000000E+03 0.  0.
         25    1    3    3    0    0  0.17691568734E+03  0.16970541204E+03 -0.21500380354E+03  0.34924666203E+03  0.12509000000E+03 0.  0.
         25    1    1    2    0    0 -0.25581110157E+03 -0.24928932777E+03 -0.34972131138E+03  0.51530281617E+03  0.12509000000E+03 0.  0.
<mgrwt>
<rscale>  2 0.82411276E+03</rscale>
<asrwt>0</asrwt>
<pdfrwt beam="1">  1       21 0.28629992E-01 0.82411276E+03</pdfrwt>
<pdfrwt beam="2">  1       21 0.12825498E+00 0.82411276E+03</pdfrwt>
<totfact> 0.41521588E+03</totfact>
</mgrwt>
</event>
<event>
 6    0  0.1284967E-004  0.5163263E+03  0.7546771E-02  0.1009603E+00
         21   -1    0    0  502  501  0.00000000000E+00  0.00000000000E+00  0.87091112262E+02  0.87091112262E+02  0.00000000000E+00 0. -1.
         21   -1    0    0  501  502 -0.00000000000E+00 -0.00000000000E+00 -0.76527004066E+03  0.76527004066E+03  0.00000000000E+00 0. -1.
      99925    2    1    2    0    0 -0.35967785819E+02 -0.15749233780E+03 -0.45483571192E+03  0.54966127097E+03  0.26297237476E+03 0.  0.
         25    1    3    3    0    0  0.19630108819E+02 -0.59371581412E+02 -0.21954287412E+03  0.26030157035E+03  0.12509000000E+03 0.  0.
         25    1    3    3    0    0 -0.55597894638E+02 -0.98120756392E+02 -0.23529283780E+03  0.28935970062E+03  0.12509000000E+03 0.  0.
         25    1    1    2    0    0  0.35967785819E+02  0.15749233780E+03 -0.22334321647E+03  0.30269988194E+03  0.12509000000E+03 0.  0.
<mgrwt>
<rscale>  2 0.51632633E+03</rscale>
<asrwt>0</asrwt>
<pdfrwt beam="1">  1       21 0.12807515E-01 0.51632633E+03</pdfrwt>
<pdfrwt beam="2">  1       21 0.11253972E+00 0.51632633E+03</pdfrwt>
<totfact> 0.28782132E+04</totfact>
</mgrwt>
</event>
<event>
 6    0  0.1284967E-004  0.3939915E+03  0.7546771E-02  0.1045880E+00
         21   -1    0    0  502  501  0.00000000000E+00  0.00000000000E+00  0.17888399275E+03  0.17888399275E+03  0.00000000000E+00 0.  1.
         21   -1    0    0  501  502 -0.00000000000E+00 -0.00000000000E+00 -0.21694133253E+03  0.21694133253E+03  0.00000000000E+00 0.  1.
      99925    2    1    2    0    0 -0.27923296936E+02  0.15054845639E+02 -0.24383722624E+02  0.26605308327E+03  0.26302721969E+03 0.  0.
         25    1    1    2    0    0  0.27923296936E+02 -0.15054845639E+02 -0.13673617160E+02  0.12977224201E+03  0.12509000000E+03 0.  0.
         25    1    3    3    0    0 -0.51155105812E+02  0.24376077382E+02 -0.14859468124E+02  0.13812801994E+03  0.12509000000E+03 0.  0.
         25    1    3    3    0    0  0.23231808875E+02 -0.93212317433E+01 -0.95242545000E+01  0.12792506333E+03  0.12509000000E+03 0.  0.
<mgrwt>
<rscale>  2 0.39399153E+03</rscale>
<asrwt>0</asrwt>
<pdfrwt beam="1">  1       21 0.26306470E-01 0.39399153E+03</pdfrwt>
<pdfrwt beam="2">  1       21 0.31903137E-01 0.39399153E+03</pdfrwt>
<totfact> 0.12289966E+05</totfact>
</mgrwt>
</event>
<event>
 6    0  0.1284967E-004  0.4105885E+03  0.7546771E-02  0.1040174E+00
         21   -1    0    0  502  501  0.00000000000E+00  0.00000000000E+00  0.25512203763E+03  0.25512203763E+03  0.00000000000E+00 0.  1.
         21   -1    0    0  501  502 -0.00000000000E+00 -0.00000000000E+00 -0.16519827139E+03  0.16519827139E+03  0.00000000000E+00 0.  1.
      99925    2    1    2    0    0 -0.56380502492E+02  0.24917169034E+02  0.72892101174E+02  0.27983112051E+03  0.26304480838E+03 0.  0.
         25    1    3    3    0    0 -0.14484987956E+01  0.14143845180E+02  0.28554115907E+01  0.12592778875E+03  0.12509000000E+03 0.  0.
         25    1    1    2    0    0  0.56380502492E+02 -0.24917169034E+02  0.17031665073E+02  0.14048918851E+03  0.12509000000E+03 0.  0.
         25    1    3    3    0    0 -0.54932003697E+02  0.10773323855E+02  0.70036689583E+02  0.15390333175E+03  0.12509000000E+03 0.  0.
<mgrwt>
<rscale>  2 0.41058845E+03</rscale>
<asrwt>0</asrwt>
<pdfrwt beam="1">  1       21 0.37517947E-01 0.41058845E+03</pdfrwt>
<pdfrwt beam="2">  1       21 0.24293864E-01 0.41058845E+03</pdfrwt>
<totfact> 0.10312020E+05</totfact>
</mgrwt>
</event>
<event>
 6    0  0.1284967E-004  0.3971259E+03  0.7546771E-02  0.1044779E+00
         21   -1    0    0  502  501  0.00000000000E+00  0.00000000000E+00  0.51831854541E+02  0.51831854541E+02  0.00000000000E+00 0.  1.
         21   -1    0    0  501  502 -0.00000000000E+00 -0.00000000000E+00 -0.76067613118E+03  0.76067613118E+03  0.00000000000E+00 0.  1.
      99925    2    1    2    0    0 -0.23597182036E+02  0.22424319995E+02 -0.42652364831E+03  0.50200497059E+03  0.26272969151E+03 0.  0.
         25    1    1    2    0    0  0.23597182036E+02 -0.22424319995E+02 -0.28232062833E+03  0.31050301513E+03  0.12509000000E+03 0.  0.
         25    1    3    3    0    0 -0.83756694434E+01  0.47102034391E+02 -0.25142384314E+03  0.28486876010E+03  0.12509000000E+03 0.  0.
         25    1    3    3    0    0 -0.15221512593E+02 -0.24677714397E+02 -0.17509980517E+03  0.21713621049E+03  0.12509000000E+03 0.  0.
<mgrwt>
<rscale>  2 0.39712595E+03</rscale>
<asrwt>0</asrwt>
<pdfrwt beam="1">  1       21 0.76223321E-02 0.39712595E+03</pdfrwt>
<pdfrwt beam="2">  1       21 0.11186413E+00 0.39712595E+03</pdfrwt>
<totfact> 0.76380799E+04</totfact>
</mgrwt>
</event>
<event>
 6    0  0.1284967E-004  0.4337713E+03  0.7546771E-02  0.1032675E+00
         21   -1    0    0  502  501  0.00000000000E+00  0.00000000000E+00  0.33024770299E+02  0.33024770299E+02  0.00000000000E+00 0. -1.
         21   -1    0    0  501  502 -0.00000000000E+00 -0.00000000000E+00 -0.14243666807E+04  0.14243666807E+04  0.00000000000E+00 0. -1.
      99925    2    1    2    0    0 -0.50418728150E+02 -0.24661010389E+02 -0.64903258138E+03  0.70252665407E+03  0.26296424550E+03 0.  0.
         25    1    1    2    0    0  0.50418728150E+02  0.24661010389E+02 -0.74230932904E+03  0.75486479694E+03  0.12509000000E+03 0.  0.
         25    1    3    3    0    0 -0.34044532340E+02 -0.24293782516E+02 -0.42984141846E+03  0.44962247628E+03  0.12509000000E+03 0.  0.
         25    1    3    3    0    0 -0.16374195810E+02 -0.36722787320E+00 -0.21919116292E+03  0.25290417779E+03  0.12509000000E+03 0.  0.
<mgrwt>
<rscale>  2 0.43377129E+03</rscale>
<asrwt>0</asrwt>
<pdfrwt beam="1">  1       21 0.48565828E-02 0.43377129E+03</pdfrwt>
<pdfrwt beam="2">  1       21 0.20946574E+00 0.43377129E+03</pdfrwt>
<totfact> 0.29400321E+04</totfact>
</mgrwt>
</event>
<event>
 6    0  0.1284967E-004  0.3949477E+03  0.7546771E-02  0.1045543E+00
         21   -1    0    0  502  501  0.00000000000E+00  0.00000000000E+00  0.57584920314E+02  0.57584920314E+02  0.00000000000E+00 0. -1.
         21   -1    0    0  501  502 -0.00000000000E+00 -0.00000000000E+00 -0.67718973216E+03  0.67718973216E+03  0.00000000000E+00 0. -1.
      99925    2    1    2    0    0  0.23890446030E+02 -0.62981378159E+01 -0.46017046507E+03  0.53062461210E+03  0.26304980915E+03 0.  0.
         25    1    3    3    0    0  0.26693820127E+02 -0.12422798359E+02 -0.30659007284E+03  0.33243325167E+03  0.12509000000E+03 0.  0.
         25    1    3    3    0    0 -0.28033740963E+01  0.61246605429E+01 -0.15358039223E+03  0.19819136043E+03  0.12509000000E+03 0.  0.
         25    1    1    2    0    0 -0.23890446030E+02  0.62981378159E+01 -0.15943434678E+03  0.20415004037E+03  0.12509000000E+03 0.  0.
<mgrwt>
<rscale>  2 0.39494768E+03</rscale>
<asrwt>0</asrwt>
<pdfrwt beam="1">  1       21 0.84683707E-02 0.39494768E+03</pdfrwt>
<pdfrwt beam="2">  1       21 0.99586724E-01 0.39494768E+03</pdfrwt>
<totfact> 0.84385072E+04</totfact>
</mgrwt>
</event>
<event>
 6    0  0.1284967E-004  0.6307468E+03  0.7546771E-02  0.9843593E-01
         21   -1    0    0  502  501  0.00000000000E+00  0.00000000000E+00  0.13193886875E+04  0.13193886875E+04  0.00000000000E+00 0. -1.
         21   -1    0    0  501  502 -0.00000000000E+00 -0.00000000000E+00 -0.75383682795E+02  0.75383682795E+02  0.00000000000E+00 0. -1.
      99925    2    1    2    0    0  0.20068389887E+03 -0.13263063827E+03  0.63740095736E+03  0.73033208567E+03  0.26313506312E+03 0.  0.
         25    1    3    3    0    0  0.85658834973E+02 -0.92078880417E+02  0.37845035814E+03  0.41795710055E+03  0.12509000000E+03 0.  0.
         25    1    1    2    0    0 -0.20068389887E+03  0.13263063827E+03  0.60660404730E+03  0.66444028458E+03  0.12509000000E+03 0.  0.
         25    1    3    3    0    0  0.11502506390E+03 -0.40551757850E+02  0.25895059922E+03  0.31237498512E+03  0.12509000000E+03 0.  0.
<mgrwt>
<rscale>  2 0.63074679E+03</rscale>
<asrwt>0</asrwt>
<pdfrwt beam="1">  1       21 0.19402773E+00 0.63074679E+03</pdfrwt>
<pdfrwt beam="2">  1       21 0.11085837E-01 0.63074679E+03</pdfrwt>
<totfact> 0.81808301E+03</totfact>
</mgrwt>
</event>
<event>
 6    0  0.1284967E-004  0.4231462E+03  0.7546771E-02  0.1036047E+00
         21   -1    0    0  502  501  0.00000000000E+00  0.00000000000E+00  0.34848897629E+03  0.34848897629E+03  0.00000000000E+00 0. -1.
         21   -1    0    0  501  502 -0.00000000000E+00 -0.00000000000E+00 -0.12844932449E+03  0.12844932449E+03  0.00000000000E+00 0. -1.
      99925    2    1    2    0    0  0.12422033240E+01 -0.17624433530E+02  0.55450015260E+02  0.26945475858E+03  0.26309503797E+03 0.  0.
         25    1    3    3    0    0 -0.38850137745E+02 -0.18393783579E+02  0.24991814669E+02  0.13460967045E+03  0.12509000000E+03 0.  0.
         25    1    1    2    0    0 -0.12422033240E+01  0.17624433530E+02  0.16458963654E+03  0.20748354220E+03  0.12509000000E+03 0.  0.
         25    1    3    3    0    0  0.40092341069E+02  0.76935004925E+00  0.30458200591E+02  0.13484508814E+03  0.12509000000E+03 0.  0.
<mgrwt>
<rscale>  2 0.42314619E+03</rscale>
<asrwt>0</asrwt>
<pdfrwt beam="1">  1       21 0.51248379E-01 0.42314619E+03</pdfrwt>
<pdfrwt beam="2">  1       21 0.18889607E-01 0.42314619E+03</pdfrwt>
<totfact> 0.86905520E+04</totfact>
</mgrwt>
</event>
<event>
 6    0  0.1284967E-004  0.4568749E+03  0.7546771E-02  0.1025691E+00
         21   -1    0    0  502  501  0.00000000000E+00  0.00000000000E+00  0.71566556887E+02  0.71566556887E+02  0.00000000000E+00 0. -1.
         21   -1    0    0  501  502 -0.00000000000E+00 -0.00000000000E+00 -0.72916273580E+03  0.72916273580E+03  0.00000000000E+00 0. -1.
      99925    2    1    2    0    0 -0.10569708307E+03  0.39408029331E+02 -0.45151547749E+03  0.53456838319E+03  0.26300620477E+03 0.  0.
         25    1    3    3    0    0 -0.24534138629E+02  0.40691873727E+02 -0.25390885421E+03  0.28701039509E+03  0.12509000000E+03 0.  0.
         25    1    1    2    0    0  0.10569708307E+03 -0.39408029331E+02 -0.20608070143E+03  0.26616090950E+03  0.12509000000E+03 0.  0.
         25    1    3    3    0    0 -0.81162944440E+02 -0.12838443957E+01 -0.19760662328E+03  0.24755798810E+03  0.12509000000E+03 0.  0.
<mgrwt>
<rscale>  2 0.45687489E+03</rscale>
<asrwt>0</asrwt>
<pdfrwt beam="1">  1       21 0.10524494E-01 0.45687489E+03</pdfrwt>
<pdfrwt beam="2">  1       21 0.10722981E+00 0.45687489E+03</pdfrwt>
<totfact> 0.47033686E+04</totfact>
</mgrwt>
</event>
<event>
 6    0  0.1284967E-004  0.4283204E+03  0.7546771E-02  0.1034392E+00
         21   -1    0    0  502  501  0.00000000000E+00  0.00000000000E+00  0.56044158246E+02  0.56044158246E+02  0.00000000000E+00 0.  1.
         21   -1    0    0  501  502 -0.00000000000E+00 -0.00000000000E+00 -0.81836521830E+03  0.81836521830E+03  0.00000000000E+00 0.  1.
      99925    2    1    2    0    0  0.43886994997E+02  0.71554452560E+02 -0.45610102091E+03  0.53314067232E+03  0.26299187667E+03 0.  0.
         25    1    3    3    0    0 -0.77025627160E+01  0.48445065936E+02 -0.17813367156E+03  0.22312634745E+03  0.12509000000E+03 0.  0.
         25    1    3    3    0    0  0.51589557713E+02  0.23109386624E+02 -0.27796734935E+03  0.31001432486E+03  0.12509000000E+03 0.  0.
         25    1    1    2    0    0 -0.43886994997E+02 -0.71554452560E+02 -0.30622003915E+03  0.34126870423E+03  0.12509000000E+03 0.  0.
<mgrwt>
<rscale>  2 0.42832039E+03</rscale>
<asrwt>0</asrwt>
<pdfrwt beam="1">  1       21 0.82417880E-02 0.42832039E+03</pdfrwt>
<pdfrwt beam="2">  1       21 0.12034783E+00 0.42832039E+03</pdfrwt>
<totfact> 0.54974139E+04</totfact>
</mgrwt>
</event>
<event>
 6    0  0.1284967E-004  0.4617861E+03  0.7546771E-02  0.1024264E+00
         21   -1    0    0  502  501  0.00000000000E+00  0.00000000000E+00  0.70874666137E+03  0.70874666137E+03  0.00000000000E+00 0.  1.
         21   -1    0    0  501  502 -0.00000000000E+00 -0.00000000000E+00 -0.75219531212E+02  0.75219531212E+02  0.00000000000E+00 0.  1.
      99925    2    1    2    0    0  0.11581582607E+03  0.28638079212E+02  0.40508806068E+03  0.49749566755E+03  0.26300600216E+03 0.  0.
         25    1    3    3    0    0  0.94940195979E+02  0.30339714939E+02  0.19638244012E+03  0.25327398209E+03  0.12509000000E+03 0.  0.
         25    1    3    3    0    0  0.20875630093E+02 -0.17016357272E+01  0.20870562057E+03  0.24422168547E+03  0.12509000000E+03 0.  0.
         25    1    1    2    0    0 -0.11581582607E+03 -0.28638079212E+02  0.22843906948E+03  0.28647052504E+03  0.12509000000E+03 0.  0.
<mgrwt>
<rscale>  2 0.46178606E+03</rscale>
<asrwt>0</asrwt>
<pdfrwt beam="1">  1       21 0.10422745E+00 0.46178606E+03</pdfrwt>
<pdfrwt beam="2">  1       21 0.11061696E-01 0.46178606E+03</pdfrwt>
<totfact> 0.46048098E+04</totfact>
</mgrwt>
</event>
<event>
 6    0  0.1284967E-004  0.4103350E+03  0.7546771E-02  0.1040259E+00
         21   -1    0    0  502  501  0.00000000000E+00  0.00000000000E+00  0.77088063948E+03  0.77088063948E+03  0.00000000000E+00 0. -1.
         21   -1    0    0  501  502 -0.00000000000E+00 -0.00000000000E+00 -0.54604703582E+02  0.54604703582E+02  0.00000000000E+00 0. -1.
      99925    2    1    2    0    0 -0.45028660399E+01  0.49896716180E+02  0.54816536736E+03  0.61003551261E+03  0.26296026046E+03 0.  0.
         25    1    3    3    0    0 -0.93700411547E+00  0.60689725503E+02  0.24185020053E+03  0.27896800597E+03  0.12509000000E+03 0.  0.
         25    1    3    3    0    0 -0.35658619244E+01 -0.10793009323E+02  0.30631516683E+03  0.33106750664E+03  0.12509000000E+03 0.  0.
         25    1    1    2    0    0  0.45028660399E+01 -0.49896716180E+02  0.16811056854E+03  0.21544983045E+03  0.12509000000E+03 0.  0.
<mgrwt>
<rscale>  2 0.41033503E+03</rscale>
<asrwt>0</asrwt>
<pdfrwt beam="1">  1       21 0.11336479E+00 0.41033503E+03</pdfrwt>
<pdfrwt beam="2">  1       21 0.80301039E-02 0.41033503E+03</pdfrwt>
<totfact> 0.67178834E+04</totfact>
</mgrwt>
</event>
<event>
 6    0  0.1284967E-004  0.4015097E+03  0.7546771E-02  0.1043258E+00
         21   -1    0    0  502  501  0.00000000000E+00  0.00000000000E+00  0.34064370992E+02  0.34064370992E+02  0.00000000000E+00 0.  1.
         21   -1    0    0  501  502 -0.00000000000E+00 -0.00000000000E+00 -0.11831278681E+04  0.11831278681E+04  0.00000000000E+00 0.  1.
      99925    2    1    2    0    0  0.41555096941E+02  0.17756061880E+02 -0.81659118128E+03  0.85910362896E+03  0.26305091548E+03 0.  0.
         25    1    3    3    0    0  0.10930381212E+01  0.20969605191E+02 -0.50923828057E+03  0.52479715469E+03  0.12509000000E+03 0.  0.
         25    1    1    2    0    0 -0.41555096941E+02 -0.17756061880E+02 -0.33247231588E+03  0.35808861018E+03  0.12509000000E+03 0.  0.
         25    1    3    3    0    0  0.40462058820E+02 -0.32135433115E+01 -0.30735290071E+03  0.33430647427E+03  0.12509000000E+03 0.  0.
<mgrwt>
<rscale>  2 0.40150968E+03</rscale>
<asrwt>0</asrwt>
<pdfrwt beam="1">  1       21 0.50094668E-02 0.40150968E+03</pdfrwt>
<pdfrwt beam="2">  1       21 0.17398938E+00 0.40150968E+03</pdfrwt>
<totfact> 0.49094226E+04</totfact>
</mgrwt>
</event>
<event>
 6    0  0.1284967E-004  0.4290966E+03  0.7546771E-02  0.1034146E+00
         21   -1    0    0  502  501  0.00000000000E+00  0.00000000000E+00  0.11424975444E+04  0.11424975444E+04  0.00000000000E+00 0.  1.
         21   -1    0    0  501  502 -0.00000000000E+00 -0.00000000000E+00 -0.40289782649E+02  0.40289782649E+02  0.00000000000E+00 0.  1.
      99925    2    1    2    0    0  0.71622966678E+02 -0.13934208958E+02  0.58244341123E+03  0.64322593137E+03  0.26301190081E+03 0.  0.
         25    1    3    3    0    0  0.49356408433E+02  0.17437062000E+02  0.22653363835E+03  0.26401724108E+03  0.12509000000E+03 0.  0.
         25    1    1    2    0    0 -0.71622966678E+02  0.13934208958E+02  0.51976435052E+03  0.53956139568E+03  0.12509000000E+03 0.  0.
         25    1    3    3    0    0  0.22266558245E+02 -0.31371270958E+02  0.35590977288E+03  0.37920869029E+03  0.12509000000E+03 0.  0.
<mgrwt>
<rscale>  2 0.42909662E+03</rscale>
<asrwt>0</asrwt>
<pdfrwt beam="1">  1       21 0.16801432E+00 0.42909662E+03</pdfrwt>
<pdfrwt beam="2">  1       21 0.59249688E-02 0.42909662E+03</pdfrwt>
<totfact> 0.40231972E+04</totfact>
</mgrwt>
</event>
<event>
 6    0  0.1284967E-004  0.4428388E+03  0.7546771E-02  0.1029879E+00
         21   -1    0    0  502  501  0.00000000000E+00  0.00000000000E+00  0.51825382099E+03  0.51825382099E+03  0.00000000000E+00 0. -1.
         21   -1    0    0  501  502 -0.00000000000E+00 -0.00000000000E+00 -0.94599498821E+02  0.94599498821E+02  0.00000000000E+00 0. -1.
      99925    2    1    2    0    0  0.85178298234E+02  0.42072033375E+02  0.31769614628E+03  0.42338025677E+03  0.26323867872E+03 0.  0.
         25    1    1    2    0    0 -0.85178298234E+02 -0.42072033375E+02  0.10595817589E+03  0.18947306305E+03  0.12509000000E+03 0.  0.
         25    1    3    3    0    0  0.52280372764E+02  0.61737865945E+02  0.17337335566E+03  0.22858396712E+03  0.12509000000E+03 0.  0.
         25    1    3    3    0    0  0.32897925469E+02 -0.19665832570E+02  0.14432279062E+03  0.19479628965E+03  0.12509000000E+03 0.  0.
<mgrwt>
<rscale>  2 0.44283880E+03</rscale>
<asrwt>0</asrwt>
<pdfrwt beam="1">  1       21 0.76213796E-01 0.44283880E+03</pdfrwt>
<pdfrwt beam="2">  1       21 0.13911691E-01 0.44283880E+03</pdfrwt>
<totfact> 0.63804872E+04</totfact>
</mgrwt>
</event>
<event>
 6    0  0.1284967E-004  0.4704140E+03  0.7546771E-02  0.1021803E+00
         21   -1    0    0  502  501  0.00000000000E+00  0.00000000000E+00  0.15354162842E+03  0.15354162842E+03  0.00000000000E+00 0.  1.
         21   -1    0    0  501  502 -0.00000000000E+00 -0.00000000000E+00 -0.36030840750E+03  0.36030840750E+03  0.00000000000E+00 0.  1.
      99925    2    1    2    0    0 -0.12668180561E+03 -0.81959423761E+01 -0.12718417535E+03  0.31866716715E+03  0.26316818884E+03 0.  0.
         25    1    3    3    0    0 -0.34846422652E+02  0.27115366688E+02 -0.49694901488E+02  0.14165665398E+03  0.12509000000E+03 0.  0.
         25    1    1    2    0    0  0.12668180561E+03  0.81959423761E+01 -0.79582603731E+02  0.19518286877E+03  0.12509000000E+03 0.  0.
         25    1    3    3    0    0 -0.91835382960E+02 -0.35311309064E+02 -0.77489273858E+02  0.17701051317E+03  0.12509000000E+03 0.  0.
<mgrwt>
<rscale>  2 0.47041403E+03</rscale>
<asrwt>0</asrwt>
<pdfrwt beam="1">  1       21 0.22579652E-01 0.47041403E+03</pdfrwt>
<pdfrwt beam="2">  1       21 0.52986530E-01 0.47041403E+03</pdfrwt>
<totfact> 0.57007806E+04</totfact>
</mgrwt>
</event>
<event>
 6    0  0.1284967E-004  0.4430483E+03  0.7546771E-02  0.1029816E+00
         21   -1    0    0  502  501  0.00000000000E+00  0.00000000000E+00  0.19714393664E+03  0.19714393664E+03  0.00000000000E+00 0. -1.
         21   -1    0    0  501  502 -0.00000000000E+00 -0.00000000000E+00 -0.24891936098E+03  0.24891936098E+03  0.00000000000E+00 0. -1.
      99925    2    1    2    0    0  0.55532984001E+02  0.33976331941E+02 -0.11204653909E+03  0.29270613666E+03  0.26245790534E+03 0.  0.
         25    1    1    2    0    0 -0.55532984001E+02 -0.33976331941E+02  0.60271114750E+02  0.15335716096E+03  0.12509000000E+03 0.  0.
         25    1    3    3    0    0  0.40719930406E+02  0.54995923670E+02 -0.63493053822E+02  0.15608183859E+03  0.12509000000E+03 0.  0.
         25    1    3    3    0    0  0.14813053595E+02 -0.21019591729E+02 -0.48553485265E+02  0.13662429808E+03  0.12509000000E+03 0.  0.
<mgrwt>
<rscale>  2 0.44304827E+03</rscale>
<asrwt>0</asrwt>
<pdfrwt beam="1">  1       21 0.28991756E-01 0.44304827E+03</pdfrwt>
<pdfrwt beam="2">  1       21 0.36605788E-01 0.44304827E+03</pdfrwt>
<totfact> 0.76218044E+04</totfact>
</mgrwt>
</event>
<event>
 6    0  0.1284967E-004  0.4301862E+03  0.7546771E-02  0.1033801E+00
         21   -1    0    0  502  501  0.00000000000E+00  0.00000000000E+00  0.77580344398E+02  0.77580344398E+02  0.00000000000E+00 0. -1.
         21   -1    0    0  501  502 -0.00000000000E+00 -0.00000000000E+00 -0.59635000190E+03  0.59635000190E+03  0.00000000000E+00 0. -1.
      99925    2    1    2    0    0 -0.20213511047E+02  0.73573702405E+02 -0.26592927505E+03  0.38170193767E+03  0.26297588135E+03 0.  0.
         25    1    3    3    0    0 -0.81030304464E+01  0.90594249528E+01 -0.16801570172E+03  0.20982020019E+03  0.12509000000E+03 0.  0.
         25    1    1    2    0    0  0.20213511047E+02 -0.73573702405E+02 -0.25284038245E+03  0.29222840863E+03  0.12509000000E+03 0.  0.
         25    1    3    3    0    0 -0.12110480600E+02  0.64514277452E+02 -0.97913573336E+02  0.17188173748E+03  0.12509000000E+03 0.  0.
<mgrwt>
<rscale>  2 0.43018619E+03</rscale>
<asrwt>0</asrwt>
<pdfrwt beam="1">  1       21 0.11408874E-01 0.43018619E+03</pdfrwt>
<pdfrwt beam="2">  1       21 0.87698529E-01 0.43018619E+03</pdfrwt>
<totfact> 0.66396323E+04</totfact>
</mgrwt>
</event>
<event>
 6    0  0.1284967E-004  0.4136073E+03  0.7546771E-02  0.1039167E+00
         21   -1    0    0  502  501  0.00000000000E+00  0.00000000000E+00  0.32080601457E+02  0.32080601457E+02  0.00000000000E+00 0. -1.
         21   -1    0    0  501  502 -0.00000000000E+00 -0.00000000000E+00 -0.13331343720E+04  0.13331343720E+04  0.00000000000E+00 0. -1.
      99925    2    1    2    0    0 -0.26424660506E+02 -0.94337430547E+01 -0.65207173388E+03  0.70369214679E+03  0.26305481014E+03 0.  0.
         25    1    3    3    0    0 -0.25812825120E+02  0.20908974480E+02 -0.40382397619E+03  0.42405754208E+03  0.12509000000E+03 0.  0.
         25    1    1    2    0    0  0.26424660506E+02  0.94337430547E+01 -0.64898203668E+03  0.66152282668E+03  0.12509000000E+03 0.  0.
         25    1    3    3    0    0 -0.61183538637E+00 -0.30342717535E+02 -0.24824775770E+03  0.27963460471E+03  0.12509000000E+03 0.  0.
<mgrwt>
<rscale>  2 0.41360731E+03</rscale>
<asrwt>0</asrwt>
<pdfrwt beam="1">  1       21 0.47177354E-02 0.41360731E+03</pdfrwt>
<pdfrwt beam="2">  1       21 0.19604918E+00 0.41360731E+03</pdfrwt>
<totfact> 0.38150409E+04</totfact>
</mgrwt>
</event>
<event>
 6    0  0.1284967E-004  0.4294331E+03  0.7546771E-02  0.1034039E+00
         21   -1    0    0  502  501  0.00000000000E+00  0.00000000000E+00  0.25922056509E+02  0.25922056509E+02  0.00000000000E+00 0. -1.
         21   -1    0    0  501  502 -0.00000000000E+00 -0.00000000000E+00 -0.17785315136E+04  0.17785315136E+04  0.00000000000E+00 0. -1.
      99925    2    1    2    0    0 -0.84446676407E+02 -0.16834777545E+02 -0.11911369287E+04  0.12228062894E+04  0.26274205535E+03 0.  0.
         25    1    3    3    0    0 -0.40129597377E+02  0.31585231015E+02 -0.59984543332E+03  0.61487402236E+03  0.12509000000E+03 0.  0.
         25    1    3    3    0    0 -0.44317079030E+02 -0.48420008561E+02 -0.59129149539E+03  0.60793226706E+03  0.12509000000E+03 0.  0.
         25    1    1    2    0    0  0.84446676407E+02  0.16834777545E+02 -0.56147252840E+03  0.58164728070E+03  0.12509000000E+03 0.  0.
<mgrwt>
<rscale>  2 0.42943309E+03</rscale>
<asrwt>0</asrwt>
<pdfrwt beam="1">  1       21 0.38120662E-02 0.42943309E+03</pdfrwt>
<pdfrwt beam="2">  1       21 0.26154882E+00 0.42943309E+03</pdfrwt>
<totfact> 0.21051595E+04</totfact>
</mgrwt>
</event>
<event>
 6    0  0.1284967E-004  0.4039579E+03  0.7546771E-02  0.1042418E+00
         21   -1    0    0  502  501  0.00000000000E+00  0.00000000000E+00  0.35067267089E+02  0.35067267089E+02  0.00000000000E+00 0.  1.
         21   -1    0    0  501  502 -0.00000000000E+00 -0.00000000000E+00 -0.11633498548E+04  0.11633498548E+04  0.00000000000E+00 0.  1.
      99925    2    1    2    0    0 -0.51112911611E+02 -0.45988483600E+01 -0.71428690169E+03  0.76290177741E+03  0.26302027469E+03 0.  0.
         25    1    3    3    0    0 -0.21594177763E+02 -0.19899794142E+02 -0.45944954708E+03  0.47707830042E+03  0.12509000000E+03 0.  0.
         25    1    1    2    0    0  0.51112911611E+02  0.45988483600E+01 -0.41399568605E+03  0.43551534452E+03  0.12509000000E+03 0.  0.
         25    1    3    3    0    0 -0.29518733848E+02  0.15300945782E+02 -0.25483735461E+03  0.28582347699E+03  0.12509000000E+03 0.  0.
<mgrwt>
<rscale>  2 0.40395792E+03</rscale>
<asrwt>0</asrwt>
<pdfrwt beam="1">  1       21 0.51569506E-02 0.40395792E+03</pdfrwt>
<pdfrwt beam="2">  1       21 0.17108088E+00 0.40395792E+03</pdfrwt>
<totfact> 0.48963992E+04</totfact>
</mgrwt>
</event>
<event>
 6    0  0.1284967E-004  0.4375393E+03  0.7546771E-02  0.1031504E+00
         21   -1    0    0  502  501  0.00000000000E+00  0.00000000000E+00  0.10029906456E+03  0.10029906456E+03  0.00000000000E+00 0.  1.
         21   -1    0    0  501  502 -0.00000000000E+00 -0.00000000000E+00 -0.47717463807E+03  0.47717463807E+03  0.00000000000E+00 0.  1.
      99925    2    1    2    0    0 -0.66268773466E+02 -0.54743695239E+02 -0.18508098475E+03  0.33289018952E+03  0.26300662513E+03 0.  0.
         25    1    3    3    0    0 -0.22388794329E+02 -0.24740303627E+02 -0.43368778799E+02  0.13653461030E+03  0.12509000000E+03 0.  0.
         25    1    1    2    0    0  0.66268773466E+02  0.54743695239E+02 -0.19179458876E+03  0.24458351310E+03  0.12509000000E+03 0.  0.
         25    1    3    3    0    0 -0.43879979136E+02 -0.30003391612E+02 -0.14171220595E+03  0.19635557922E+03  0.12509000000E+03 0.  0.
<mgrwt>
<rscale>  2 0.43753935E+03</rscale>
<asrwt>0</asrwt>
<pdfrwt beam="1">  1       21 0.14749862E-01 0.43753935E+03</pdfrwt>
<pdfrwt beam="2">  1       21 0.70172743E-01 0.43753935E+03</pdfrwt>
<totfact> 0.69149101E+04</totfact>
</mgrwt>
</event>
<event>
 6    0  0.1284967E-004  0.4774191E+03  0.7546771E-02  0.1019847E+00
         21   -1    0    0  502  501  0.00000000000E+00  0.00000000000E+00  0.77264914238E+02  0.77264914238E+02  0.00000000000E+00 0.  1.
         21   -1    0    0  501  502 -0.00000000000E+00 -0.00000000000E+00 -0.73749189160E+03  0.73749189160E+03  0.00000000000E+00 0.  1.
      99925    2    1    2    0    0 -0.72707238542E+02 -0.11112144517E+03 -0.39178391347E+03  0.49019016435E+03  0.26297803000E+03 0.  0.
         25    1    3    3    0    0 -0.60580724167E+01 -0.78205849213E+02 -0.17306034522E+03  0.22748680463E+03  0.12509000000E+03 0.  0.
         25    1    1    2    0    0  0.72707238542E+02  0.11112144517E+03 -0.26844306390E+03  0.32456664149E+03  0.12509000000E+03 0.  0.
         25    1    3    3    0    0 -0.66649166125E+02 -0.32915595961E+02 -0.21872356824E+03  0.26270335972E+03  0.12509000000E+03 0.  0.
<mgrwt>
<rscale>  2 0.47741909E+03</rscale>
<asrwt>0</asrwt>
<pdfrwt beam="1">  1       21 0.11362487E-01 0.47741909E+03</pdfrwt>
<pdfrwt beam="2">  1       21 0.10845470E+00 0.47741909E+03</pdfrwt>
<totfact> 0.39616339E+04</totfact>
</mgrwt>
</event>
<event>
 6    0  0.1284967E-004  0.4159942E+03  0.7546771E-02  0.1038378E+00
         21   -1    0    0  502  501  0.00000000000E+00  0.00000000000E+00  0.25566653670E+03  0.25566653670E+03  0.00000000000E+00 0. -1.
         21   -1    0    0  501  502 -0.00000000000E+00 -0.00000000000E+00 -0.16921571399E+03  0.16921571399E+03  0.00000000000E+00 0. -1.
      99925    2    1    2    0    0  0.48460115317E+02 -0.50105335961E+02  0.67556050399E+02  0.28044040084E+03  0.26310467690E+03 0.  0.
         25    1    3    3    0    0  0.57822409430E+02 -0.50265449254E+02  0.39181369079E+02  0.15183126886E+03  0.12509000000E+03 0.  0.
         25    1    3    3    0    0 -0.93622941130E+01  0.16011329315E+00  0.28374681319E+02  0.12860913197E+03  0.12509000000E+03 0.  0.
         25    1    1    2    0    0 -0.48460115317E+02  0.50105335961E+02  0.18894772310E+02  0.14444184985E+03  0.12509000000E+03 0.  0.
<mgrwt>
<rscale>  2 0.41599421E+03</rscale>
<asrwt>0</asrwt>
<pdfrwt beam="1">  1       21 0.37598020E-01 0.41599421E+03</pdfrwt>
<pdfrwt beam="2">  1       21 0.24884664E-01 0.41599421E+03</pdfrwt>
<totfact> 0.97893578E+04</totfact>
</mgrwt>
</event>
<event>
 6    0  0.1284967E-004  0.3988362E+03  0.7546771E-02  0.1044183E+00
         21   -1    0    0  502  501  0.00000000000E+00  0.00000000000E+00  0.11894534368E+04  0.11894534368E+04  0.00000000000E+00 0. -1.
         21   -1    0    0  501  502 -0.00000000000E+00 -0.00000000000E+00 -0.33433483480E+02  0.33433483480E+02  0.00000000000E+00 0. -1.
      99925    2    1    2    0    0  0.26533586475E+02  0.30875906953E+02  0.81509548199E+03  0.85746339053E+03  0.26306932261E+03 0.  0.
         25    1    3    3    0    0  0.87976630552E+01 -0.51022045182E+01  0.51139699040E+03  0.52657176268E+03  0.12509000000E+03 0.  0.
         25    1    1    2    0    0 -0.26533586475E+02 -0.30875906953E+02  0.34092447130E+03  0.36542352972E+03  0.12509000000E+03 0.  0.
         25    1    3    3    0    0  0.17735923420E+02  0.35978111472E+02  0.30369849160E+03  0.33089162785E+03  0.12509000000E+03 0.  0.
<mgrwt>
<rscale>  2 0.39883617E+03</rscale>
<asrwt>0</asrwt>
<pdfrwt beam="1">  1       21 0.17491959E+00 0.39883617E+03</pdfrwt>
<pdfrwt beam="2">  1       21 0.49166895E-02 0.39883617E+03</pdfrwt>
<totfact> 0.49969497E+04</totfact>
</mgrwt>
</event>
<event>
 6    0  0.1284967E-004  0.4053646E+03  0.7546771E-02  0.1041938E+00
         21   -1    0    0  502  501  0.00000000000E+00  0.00000000000E+00  0.14560545410E+03  0.14560545410E+03  0.00000000000E+00 0. -1.
         21   -1    0    0  501  502 -0.00000000000E+00 -0.00000000000E+00 -0.28213310186E+03  0.28213310186E+03  0.00000000000E+00 0. -1.
      99925    2    1    2    0    0 -0.20138947212E+02 -0.47882589143E+02 -0.72778508697E+02  0.27803959014E+03  0.26326979093E+03 0.  0.
         25    1    1    2    0    0  0.20138947212E+02  0.47882589143E+02 -0.63749139054E+02  0.14969896582E+03  0.12509000000E+03 0.  0.
         25    1    3    3    0    0 -0.13154790663E+02  0.13335281179E+02 -0.53251980437E+02  0.13723760331E+03  0.12509000000E+03 0.  0.
         25    1    3    3    0    0 -0.69841565489E+01 -0.61217870322E+02 -0.19526528261E+02  0.14080198683E+03  0.12509000000E+03 0.  0.
<mgrwt>
<rscale>  2 0.40536462E+03</rscale>
<asrwt>0</asrwt>
<pdfrwt beam="1">  1       21 0.21412567E-01 0.40536462E+03</pdfrwt>
<pdfrwt beam="2">  1       21 0.41490161E-01 0.40536462E+03</pdfrwt>
<totfact> 0.10705517E+05</totfact>
</mgrwt>
</event>
<event>
 6    0  0.1284967E-004  0.4345680E+03  0.7546771E-02  0.1032427E+00
         21   -1    0    0  502  501  0.00000000000E+00  0.00000000000E+00  0.13689388500E+04  0.13689388500E+04  0.00000000000E+00 0.  1.
         21   -1    0    0  501  502 -0.00000000000E+00 -0.00000000000E+00 -0.34488271360E+02  0.34488271360E+02  0.00000000000E+00 0.  1.
      99925    2    1    2    0    0 -0.18142805513E+02  0.63226001793E+02  0.10673096108E+04  0.11012045320E+04  0.26301126858E+03 0.  0.
         25    1    3    3    0    0  0.25371254534E+02  0.46661805941E+02  0.60065183831E+03  0.61583371429E+03  0.12509000000E+03 0.  0.
         25    1    1    2    0    0  0.18142805513E+02 -0.63226001793E+02  0.26714096788E+03  0.30222258935E+03  0.12509000000E+03 0.  0.
         25    1    3    3    0    0 -0.43514060047E+02  0.16564195853E+02  0.46665777246E+03  0.48537081773E+03  0.12509000000E+03 0.  0.
<mgrwt>
<rscale>  2 0.43456799E+03</rscale>
<asrwt>0</asrwt>
<pdfrwt beam="1">  1       21 0.20131450E+00 0.43456799E+03</pdfrwt>
<pdfrwt beam="2">  1       21 0.50718055E-02 0.43456799E+03</pdfrwt>
<totfact> 0.30857308E+04</totfact>
</mgrwt>
</event>
<event>
 6    0  0.1284967E-004  0.3927432E+03  0.7546771E-02  0.1046322E+00
         21   -1    0    0  502  501  0.00000000000E+00  0.00000000000E+00  0.64732028835E+02  0.64732028835E+02  0.00000000000E+00 0.  1.
         21   -1    0    0  501  502 -0.00000000000E+00 -0.00000000000E+00 -0.59571431442E+03  0.59571431442E+03  0.00000000000E+00 0.  1.
      99925    2    1    2    0    0  0.40177628892E+01  0.19787111838E+02 -0.39316395572E+03  0.47323236846E+03  0.26260865611E+03 0.  0.
         25    1    3    3    0    0 -0.81431815120E+01  0.25260588249E+02 -0.26172818180E+03  0.29129634047E+03  0.12509000000E+03 0.  0.
         25    1    3    3    0    0  0.12160944401E+02 -0.54734764106E+01 -0.13143577392E+03  0.18193602798E+03  0.12509000000E+03 0.  0.
         25    1    1    2    0    0 -0.40177628892E+01 -0.19787111838E+02 -0.13781832986E+03  0.18721397480E+03  0.12509000000E+03 0.  0.
<mgrwt>
<rscale>  2 0.39274315E+03</rscale>
<asrwt>0</asrwt>
<pdfrwt beam="1">  1       21 0.95194160E-02 0.39274315E+03</pdfrwt>
<pdfrwt beam="2">  1       21 0.87605046E-01 0.39274315E+03</pdfrwt>
<totfact> 0.92999399E+04</totfact>
</mgrwt>
</event>
<event>
 6    0  0.1284967E-004  0.4515931E+03  0.7546771E-02  0.1027248E+00
         21   -1    0    0  502  501  0.00000000000E+00  0.00000000000E+00  0.30135332683E+03  0.30135332683E+03  0.00000000000E+00 0. -1.
         21   -1    0    0  501  502 -0.00000000000E+00 -0.00000000000E+00 -0.16918376118E+03  0.16918376118E+03  0.00000000000E+00 0. -1.
      99925    2    1    2    0    0  0.74566818284E+02 -0.39785515098E+02  0.10010488801E+02  0.27633758812E+03  0.26290522079E+03 0.  0.
         25    1    1    2    0    0 -0.74566818284E+02  0.39785515098E+02  0.12215907685E+03  0.19419949989E+03  0.12509000000E+03 0.  0.
         25    1    3    3    0    0  0.39767111119E+02 -0.60605475068E+02  0.18774005938E+01  0.14458727284E+03  0.12509000000E+03 0.  0.
         25    1    3    3    0    0  0.34799707165E+02  0.20819959970E+02  0.81330882069E+01  0.13175031528E+03  0.12509000000E+03 0.  0.
<mgrwt>
<rscale>  2 0.45159313E+03</rscale>
<asrwt>0</asrwt>
<pdfrwt beam="1">  1       21 0.44316666E-01 0.45159313E+03</pdfrwt>
<pdfrwt beam="2">  1       21 0.24879965E-01 0.45159313E+03</pdfrwt>
<totfact> 0.69248832E+04</totfact>
</mgrwt>
</event>
<event>
 6    0  0.1284967E-004  0.4675488E+03  0.7546771E-02  0.1022614E+00
         21   -1    0    0  502  501  0.00000000000E+00  0.00000000000E+00  0.69468843878E+02  0.69468843878E+02  0.00000000000E+00 0. -1.
         21   -1    0    0  501  502 -0.00000000000E+00 -0.00000000000E+00 -0.78669046729E+03  0.78669046729E+03  0.00000000000E+00 0. -1.
      99925    2    1    2    0    0  0.90294990521E+02  0.24218111083E+02 -0.29696503023E+03  0.40782593696E+03  0.26342752980E+03 0.  0.
         25    1    1    2    0    0 -0.90294990521E+02 -0.24218111083E+02 -0.42025659318E+03  0.44833337420E+03  0.12509000000E+03 0.  0.
         25    1    3    3    0    0  0.16884888605E+02 -0.83056036278E+01 -0.10103964266E+03  0.16189688077E+03  0.12509000000E+03 0.  0.
         25    1    3    3    0    0  0.73410101916E+02  0.32523714711E+02 -0.19592538758E+03  0.24592905619E+03  0.12509000000E+03 0.  0.
<mgrwt>
<rscale>  2 0.46754883E+03</rscale>
<asrwt>0</asrwt>
<pdfrwt beam="1">  1       21 0.10216006E-01 0.46754883E+03</pdfrwt>
<pdfrwt beam="2">  1       21 0.11568978E+00 0.46754883E+03</pdfrwt>
<totfact> 0.40979772E+04</totfact>
</mgrwt>
</event>
<event>
 6    0  0.1284967E-004  0.4850407E+03  0.7546771E-02  0.1017759E+00
         21   -1    0    0  502  501  0.00000000000E+00  0.00000000000E+00  0.58177009375E+03  0.58177009375E+03  0.00000000000E+00 0. -1.
         21   -1    0    0  501  502 -0.00000000000E+00 -0.00000000000E+00 -0.10109854450E+03  0.10109854450E+03  0.00000000000E+00 0. -1.
      99925    2    1    2    0    0 -0.68501347044E+02  0.12134937437E+03  0.28597945245E+03  0.41273788128E+03  0.26296426793E+03 0.  0.
         25    1    1    2    0    0  0.68501347044E+02 -0.12134937437E+03  0.19469209680E+03  0.27013075697E+03  0.12509000000E+03 0.  0.
         25    1    3    3    0    0 -0.67001686336E+02  0.74325828052E+02  0.18819017080E+03  0.24713681064E+03  0.12509000000E+03 0.  0.
         25    1    3    3    0    0 -0.14996607089E+01  0.47023546320E+02  0.97789281650E+02  0.16560107064E+03  0.12509000000E+03 0.  0.
<mgrwt>
<rscale>  2 0.48504066E+03</rscale>
<asrwt>0</asrwt>
<pdfrwt beam="1">  1       21 0.85554425E-01 0.48504066E+03</pdfrwt>
<pdfrwt beam="2">  1       21 0.14867433E-01 0.48504066E+03</pdfrwt>
<totfact> 0.42778715E+04</totfact>
</mgrwt>
</event>
<event>
 6    0  0.1284967E-004  0.4126473E+03  0.7546771E-02  0.1039486E+00
         21   -1    0    0  502  501  0.00000000000E+00  0.00000000000E+00  0.84584987847E+03  0.84584987847E+03  0.00000000000E+00 0. -1.
         21   -1    0    0  501  502 -0.00000000000E+00 -0.00000000000E+00 -0.50327429408E+02  0.50327429408E+02  0.00000000000E+00 0. -1.
      99925    2    1    2    0    0 -0.54918901137E+02 -0.24662065114E+02  0.58163802257E+03  0.64119032948E+03  0.26305502496E+03 0.  0.
         25    1    3    3    0    0 -0.18143786993E+01 -0.43763675301E+02  0.27759832498E+03  0.30761483934E+03  0.12509000000E+03 0.  0.
         25    1    3    3    0    0 -0.53104522438E+02  0.19101610187E+02  0.30403969759E+03  0.33357549014E+03  0.12509000000E+03 0.  0.
         25    1    1    2    0    0  0.54918901137E+02  0.24662065114E+02  0.21388442649E+03  0.25498697840E+03  0.12509000000E+03 0.  0.
<mgrwt>
<rscale>  2 0.41264731E+03</rscale>
<asrwt>0</asrwt>
<pdfrwt beam="1">  1       21 0.12438968E+00 0.41264731E+03</pdfrwt>
<pdfrwt beam="2">  1       21 0.74010931E-02 0.41264731E+03</pdfrwt>
<totfact> 0.61343621E+04</totfact>
</mgrwt>
</event>
<event>
 6    0  0.1284967E-004  0.4045891E+03  0.7546771E-02  0.1042202E+00
         21   -1    0    0  502  501  0.00000000000E+00  0.00000000000E+00  0.54508063781E+03  0.54508063781E+03  0.00000000000E+00 0.  1.
         21   -1    0    0  501  502 -0.00000000000E+00 -0.00000000000E+00 -0.75077107409E+02  0.75077107409E+02  0.00000000000E+00 0.  1.
      99925    2    1    2    0    0 -0.34150817159E+02 -0.37223860475E+02  0.28202304317E+03  0.38877912524E+03  0.26279329757E+03 0.  0.
         25    1    1    2    0    0  0.34150817159E+02  0.37223860475E+02  0.18798048723E+03  0.23137861997E+03  0.12509000000E+03 0.  0.
         25    1    3    3    0    0 -0.56281805561E+02 -0.11889713204E+02  0.15575452947E+03  0.20788455563E+03  0.12509000000E+03 0.  0.
         25    1    3    3    0    0  0.22130988402E+02 -0.25334147271E+02  0.12626851370E+03  0.18089456962E+03  0.12509000000E+03 0.  0.
<mgrwt>
<rscale>  2 0.40458906E+03</rscale>
<asrwt>0</asrwt>
<pdfrwt beam="1">  1       21 0.80158915E-01 0.40458906E+03</pdfrwt>
<pdfrwt beam="2">  1       21 0.11040751E-01 0.40458906E+03</pdfrwt>
<totfact> 0.87356489E+04</totfact>
</mgrwt>
</event>
<event>
 6    0  0.1284967E-004  0.3930093E+03  0.7546771E-02  0.1046228E+00
         21   -1    0    0  502  501  0.00000000000E+00  0.00000000000E+00  0.29079713360E+03  0.29079713360E+03  0.00000000000E+00 0.  1.
         21   -1    0    0  501  502 -0.00000000000E+00 -0.00000000000E+00 -0.13278696188E+03  0.13278696188E+03  0.00000000000E+00 0.  1.
      99925    2    1    2    0    0 -0.53387170080E+01 -0.61224676937E+01  0.76339431418E+02  0.27397258379E+03  0.26299673262E+03 0.  0.
         25    1    3    3    0    0 -0.12166714034E+01 -0.13842654357E+02  0.78909050638E+02  0.14855048213E+03  0.12509000000E+03 0.  0.
         25    1    1    2    0    0  0.53387170080E+01  0.61224676937E+01  0.81670740300E+02  0.14961151169E+03  0.12509000000E+03 0.  0.
         25    1    3    3    0    0 -0.41220456046E+01  0.77201866629E+01 -0.25696192195E+01  0.12542210166E+03  0.12509000000E+03 0.  0.
<mgrwt>
<rscale>  2 0.39300925E+03</rscale>
<asrwt>0</asrwt>
<pdfrwt beam="1">  1       21 0.42764285E-01 0.39300925E+03</pdfrwt>
<pdfrwt beam="2">  1       21 0.19527494E-01 0.39300925E+03</pdfrwt>
<totfact> 0.12012925E+05</totfact>
</mgrwt>
</event>
<event>
 6    0  0.1284967E-004  0.4854359E+03  0.7546771E-02  0.1017652E+00
         21   -1    0    0  502  501  0.00000000000E+00  0.00000000000E+00  0.16855689299E+03  0.16855689299E+03  0.00000000000E+00 0.  1.
         21   -1    0    0  501  502 -0.00000000000E+00 -0.00000000000E+00 -0.34950810443E+03  0.34950810443E+03  0.00000000000E+00 0.  1.
      99925    2    1    2    0    0  0.11919372751E+03  0.53630695322E+02 -0.58211000635E+02  0.29944188883E+03  0.26304662711E+03 0.  0.
         25    1    3    3    0    0  0.67370896809E+02  0.46602982175E+02  0.55195831962E+01  0.14962837158E+03  0.12509000000E+03 0.  0.
         25    1    3    3    0    0  0.51822830702E+02  0.70277131468E+01 -0.63730583831E+02  0.14981351725E+03  0.12509000000E+03 0.  0.
         25    1    1    2    0    0 -0.11919372751E+03 -0.53630695322E+02 -0.12274021081E+03  0.21862310859E+03  0.12509000000E+03 0.  0.
<mgrwt>
<rscale>  2 0.48543589E+03</rscale>
<asrwt>0</asrwt>
<pdfrwt beam="1">  1       21 0.24787779E-01 0.48543589E+03</pdfrwt>
<pdfrwt beam="2">  1       21 0.51398250E-01 0.48543589E+03</pdfrwt>
<totfact> 0.50635442E+04</totfact>
</mgrwt>
</event>
<event>
 6    0  0.1284967E-004  0.4435994E+03  0.7546771E-02  0.1029648E+00
         21   -1    0    0  502  501  0.00000000000E+00  0.00000000000E+00  0.14989851420E+03  0.14989851420E+03  0.00000000000E+00 0.  1.
         21   -1    0    0  501  502 -0.00000000000E+00 -0.00000000000E+00 -0.32818944386E+03  0.32818944386E+03  0.00000000000E+00 0.  1.
      99925    2    1    2    0    0 -0.74545493677E+01  0.59757827617E+02 -0.20223050415E+03  0.33720793962E+03  0.26303127089E+03 0.  0.
         25    1    1    2    0    0  0.74545493677E+01 -0.59757827617E+02  0.23939574489E+02  0.14088001844E+03  0.12509000000E+03 0.  0.
         25    1    3    3    0    0  0.86270940323E+01  0.22447591850E+02 -0.52122920412E+02  0.13763222030E+03  0.12509000000E+03 0.  0.
         25    1    3    3    0    0 -0.16081643400E+02  0.37310235767E+02 -0.15010758374E+03  0.19957571932E+03  0.12509000000E+03 0.  0.
<mgrwt>
<rscale>  2 0.44359941E+03</rscale>
<asrwt>0</asrwt>
<pdfrwt beam="1">  1       21 0.22043899E-01 0.44359941E+03</pdfrwt>
<pdfrwt beam="2">  1       21 0.48263153E-01 0.44359941E+03</pdfrwt>
<totfact> 0.73247379E+04</totfact>
</mgrwt>
</event>
<event>
 6    0  0.1284967E-004  0.3966812E+03  0.7546771E-02  0.1044935E+00
         21   -1    0    0  502  501  0.00000000000E+00  0.00000000000E+00  0.20804749517E+03  0.20804749517E+03  0.00000000000E+00 0.  1.
         21   -1    0    0  501  502 -0.00000000000E+00 -0.00000000000E+00 -0.18908664774E+03  0.18908664774E+03  0.00000000000E+00 0.  1.
      99925    2    1    2    0    0  0.14781941464E+02 -0.31336981946E+02 -0.43276489615E+01  0.26526157413E+03  0.26295334554E+03 0.  0.
         25    1    1    2    0    0 -0.14781941464E+02  0.31336981946E+02  0.23288496392E+02  0.13187256877E+03  0.12509000000E+03 0.  0.
         25    1    3    3    0    0  0.40599498825E+02 -0.37420881557E+02 -0.11302428101E+02  0.13720019921E+03  0.12509000000E+03 0.  0.
         25    1    3    3    0    0 -0.25817557362E+02  0.60838996111E+01  0.69747791396E+01  0.12806137492E+03  0.12509000000E+03 0.  0.
<mgrwt>
<rscale>  2 0.39668125E+03</rscale>
<asrwt>0</asrwt>
<pdfrwt beam="1">  1       21 0.30595220E-01 0.39668125E+03</pdfrwt>
<pdfrwt beam="2">  1       21 0.27806860E-01 0.39668125E+03</pdfrwt>
<totfact> 0.11977231E+05</totfact>
</mgrwt>
</event>
<event>
 6    0  0.1284967E-004  0.4734834E+03  0.7546771E-02  0.1020942E+00
         21   -1    0    0  502  501  0.00000000000E+00  0.00000000000E+00  0.14091314272E+03  0.14091314272E+03  0.00000000000E+00 0. -1.
         21   -1    0    0  501  502 -0.00000000000E+00 -0.00000000000E+00 -0.39773892892E+03  0.39773892892E+03  0.00000000000E+00 0. -1.
      99925    2    1    2    0    0  0.87165072880E+02  0.94024937429E+02 -0.18153651811E+03  0.34434710316E+03  0.26302277707E+03 0.  0.
         25    1    1    2    0    0 -0.87165072880E+02 -0.94024937429E+02 -0.75289268081E+02  0.19430496848E+03  0.12509000000E+03 0.  0.
         25    1    3    3    0    0  0.75937245611E+02  0.78345303016E+02 -0.99769694995E+02  0.19366453448E+03  0.12509000000E+03 0.  0.
         25    1    3    3    0    0  0.11227827268E+02  0.15679634413E+02 -0.81766823116E+02  0.15068256868E+03  0.12509000000E+03 0.  0.
<mgrwt>
<rscale>  2 0.47348344E+03</rscale>
<asrwt>0</asrwt>
<pdfrwt beam="1">  1       21 0.20722521E-01 0.47348344E+03</pdfrwt>
<pdfrwt beam="2">  1       21 0.58491018E-01 0.47348344E+03</pdfrwt>
<totfact> 0.54232641E+04</totfact>
</mgrwt>
</event>
<event>
 6    0  0.1284967E-004  0.3890033E+03  0.7546771E-02  0.1047655E+00
         21   -1    0    0  502  501  0.00000000000E+00  0.00000000000E+00  0.71203227053E+03  0.71203227053E+03  0.00000000000E+00 0. -1.
         21   -1    0    0  501  502 -0.00000000000E+00 -0.00000000000E+00 -0.53130879880E+02  0.53130879880E+02  0.00000000000E+00 0. -1.
      99925    2    1    2    0    0  0.31150006658E+01 -0.95255517983E+01  0.43941576190E+03  0.51233536575E+03  0.26325059512E+03 0.  0.
         25    1    3    3    0    0  0.26861175476E+01  0.19069821614E+02  0.15352358749E+03  0.19896701571E+03  0.12509000000E+03 0.  0.
         25    1    3    3    0    0  0.42888311818E+00 -0.28595373413E+02  0.28589217441E+03  0.31336835004E+03  0.12509000000E+03 0.  0.
         25    1    1    2    0    0 -0.31150006658E+01  0.95255517983E+01  0.21948562875E+03  0.25282778465E+03  0.12509000000E+03 0.  0.
<mgrwt>
<rscale>  2 0.38900335E+03</rscale>
<asrwt>0</asrwt>
<pdfrwt beam="1">  1       21 0.10471062E+00 0.38900335E+03</pdfrwt>
<pdfrwt beam="2">  1       21 0.78133651E-02 0.38900335E+03</pdfrwt>
<totfact> 0.86223918E+04</totfact>
</mgrwt>
</event>
