<event>
 7    0  0.4709932E-002  0.4451748E+03  0.7546771E-02  0.1029171E+00
         21   -1    0    0  502  501  0.00000000000E+00  0.00000000000E+00  0.10602094712E+03  0.10602094712E+03  0.00000000000E+00 0. -1.
         21   -1    0    0  501  502 -0.00000000000E+00 -0.00000000000E+00 -0.46731477367E+03  0.46731477367E+03  0.00000000000E+00 0. -1.
      99926    2    1    2    0    0  0.00000000000E+00  0.00000000000E+00 -0.36129382655E+03  0.57333572078E+03  0.44517481917E+03 0.  0.
      99925    2    3    3    0    0  0.86741676507E+02 -0.38317196984E+02 -0.17539932231E+03  0.33003220491E+03  0.26299050930E+03 0.  0.
         25    1    3    3    0    0 -0.86741676507E+02  0.38317196984E+02 -0.18589450424E+03  0.24330351587E+03  0.12509000000E+03 0.  0.
         25    1    4    4    0    0  0.15788959616E+02 -0.36984537836E+02 -0.11283685306E+03  0.17319587407E+03  0.12509000000E+03 0.  0.
         25    1    4    4    0    0  0.70952716891E+02 -0.13326591483E+01 -0.62562469248E+02  0.15683633085E+03  0.12509000000E+03 0.  0.
<mgrwt>
<rscale>  2 0.44517482E+03</rscale>
<asrwt>0</asrwt>
<pdfrwt beam="1">  1       21 0.15591316E-01 0.44517482E+03</pdfrwt>
<pdfrwt beam="2">  1       21 0.68722761E-01 0.44517482E+03</pdfrwt>
<totfact> 0.65275454E+04</totfact>
</mgrwt>
</event>
<event>
 7    0  0.4709932E-002  0.4496428E+03  0.7546771E-02  0.1027829E+00
         21   -1    0    0  502  501  0.00000000000E+00  0.00000000000E+00  0.37004456634E+03  0.37004456634E+03  0.00000000000E+00 0. -1.
         21   -1    0    0  501  502 -0.00000000000E+00 -0.00000000000E+00 -0.13659073753E+03  0.13659073753E+03  0.00000000000E+00 0. -1.
      99926    2    1    2    0    0  0.71054273576E-14  0.00000000000E+00  0.23345382881E+03  0.50663530387E+03  0.44964279260E+03 0.  0.
      99925    2    3    3    0    0 -0.39305076758E+02 -0.32366288880E+02  0.25502350159E+03  0.36986825887E+03  0.26300775053E+03 0.  0.
         25    1    4    4    0    0 -0.47990092365E+02 -0.45582031685E+02  0.12635261141E+03  0.18971890018E+03  0.12509000000E+03 0.  0.
         25    1    4    4    0    0  0.86850156074E+01  0.13215742805E+02  0.12867089018E+03  0.18014935868E+03  0.12509000000E+03 0.  0.
         25    1    3    3    0    0  0.39305076758E+02  0.32366288880E+02 -0.21569672775E+02  0.13676704500E+03  0.12509000000E+03 0.  0.
<mgrwt>
<rscale>  2 0.44964279E+03</rscale>
<asrwt>0</asrwt>
<pdfrwt beam="1">  1       21 0.54418318E-01 0.44964279E+03</pdfrwt>
<pdfrwt beam="2">  1       21 0.20086873E-01 0.44964279E+03</pdfrwt>
<totfact> 0.67637265E+04</totfact>
</mgrwt>
</event>
<event>
 7    0  0.4709932E-002  0.4461248E+03  0.7546771E-02  0.1028884E+00
         21   -1    0    0  502  501  0.00000000000E+00  0.00000000000E+00  0.15817337050E+03  0.15817337050E+03  0.00000000000E+00 0. -1.
         21   -1    0    0  501  502 -0.00000000000E+00 -0.00000000000E+00 -0.31457154323E+03  0.31457154323E+03  0.00000000000E+00 0. -1.
      99926    2    1    2    0    0  0.26645352591E-14  0.14210854715E-13 -0.15639817273E+03  0.47274491373E+03  0.44612483121E+03 0.  0.
      99925    2    3    3    0    0  0.15458835031E+01  0.10014400252E+03 -0.13098484417E+03  0.31049647347E+03  0.26309659755E+03 0.  0.
         25    1    3    3    0    0 -0.15458835031E+01 -0.10014400252E+03 -0.25413328555E+02  0.16224844025E+03  0.12509000000E+03 0.  0.
         25    1    4    4    0    0  0.22708061730E+02  0.86570598677E+02 -0.67195945133E+02  0.16784793048E+03  0.12509000000E+03 0.  0.
         25    1    4    4    0    0 -0.21162178227E+02  0.13573403840E+02 -0.63788899037E+02  0.14264854300E+03  0.12509000000E+03 0.  0.
<mgrwt>
<rscale>  2 0.44612483E+03</rscale>
<asrwt>0</asrwt>
<pdfrwt beam="1">  1       21 0.23260790E-01 0.44612483E+03</pdfrwt>
<pdfrwt beam="2">  1       21 0.46260521E-01 0.44612483E+03</pdfrwt>
<totfact> 0.72184385E+04</totfact>
</mgrwt>
</event>
<event>
 6    0  0.4709932E-002  0.4607230E+03  0.7546771E-02  0.1024572E+00
         21   -1    0    0  502  501  0.00000000000E+00  0.00000000000E+00  0.33422036775E+03  0.33422036775E+03  0.00000000000E+00 0.  1.
         21   -1    0    0  501  502 -0.00000000000E+00 -0.00000000000E+00 -0.15877671488E+03  0.15877671488E+03  0.00000000000E+00 0.  1.
      99926    2    1    2    0    0  0.71054273576E-14  0.00000000000E+00  0.17544365287E+03  0.49299708264E+03  0.46072296248E+03 0.  0.
         25    1    3    3    0    0 -0.38619316291E+02 -0.85179430985E+02  0.59160572523E+02  0.16701637194E+03  0.12509000000E+03 0.  0.
         25    1    3    3    0    0 -0.15779110991E+02 -0.17967182584E+02  0.17680183544E+02  0.12857642468E+03  0.12509000000E+03 0.  0.
         25    1    3    3    0    0  0.54398427282E+02  0.10314661357E+03  0.98602896801E+02  0.19740428602E+03  0.12509000000E+03 0.  0.
<mgrwt>
<rscale>  2 0.46072296E+03</rscale>
<asrwt>0</asrwt>
<pdfrwt beam="1">  1       21 0.49150054E-01 0.46072296E+03</pdfrwt>
<pdfrwt beam="2">  1       21 0.23349517E-01 0.46072296E+03</pdfrwt>
<totfact> 0.62860656E+04</totfact>
</mgrwt>
</event>
<event>
 7    0  0.4709932E-002  0.4572026E+03  0.7546771E-02  0.1025596E+00
         21   -1    0    0  502  501  0.00000000000E+00  0.00000000000E+00  0.22260348431E+02  0.22260348431E+02  0.00000000000E+00 0. -1.
         21   -1    0    0  501  502 -0.00000000000E+00 -0.00000000000E+00 -0.23476071114E+04  0.23476071114E+04  0.00000000000E+00 0. -1.
      99926    2    1    2    0    0  0.44408920985E-14  0.00000000000E+00 -0.23253467629E+04  0.23698674598E+04  0.45720259089E+03 0.  0.
      99925    2    3    3    0    0  0.63394330299E+01 -0.17672613331E+02 -0.87049996810E+03  0.90953215096E+03  0.26291829436E+03 0.  0.
         25    1    3    3    0    0 -0.63394330299E+01  0.17672613331E+02 -0.14548467948E+04  0.14603353088E+04  0.12509000000E+03 0.  0.
         25    1    4    4    0    0 -0.31891187223E+02  0.39484913357E+01 -0.48355329984E+03  0.50050368660E+03  0.12509000000E+03 0.  0.
         25    1    4    4    0    0  0.38230620252E+02 -0.21621104667E+02 -0.38694666825E+03  0.40902846437E+03  0.12509000000E+03 0.  0.
<mgrwt>
<rscale>  2 0.45720259E+03</rscale>
<asrwt>0</asrwt>
<pdfrwt beam="1">  1       21 0.32735829E-02 0.45720259E+03</pdfrwt>
<pdfrwt beam="2">  1       21 0.34523610E+00 0.45720259E+03</pdfrwt>
<totfact> 0.84116535E+03</totfact>
</mgrwt>
</event>
<event>
 7    0  0.4709932E-002  0.4566969E+03  0.7546771E-02  0.1025744E+00
         21   -1    0    0  502  501  0.00000000000E+00  0.00000000000E+00  0.10214175579E+03  0.10214175579E+03  0.00000000000E+00 0. -1.
         21   -1    0    0  501  502 -0.00000000000E+00 -0.00000000000E+00 -0.51049664751E+03  0.51049664751E+03  0.00000000000E+00 0. -1.
      99926    2    1    2    0    0  0.17763568394E-14  0.35527136788E-14 -0.40835489172E+03  0.61263840329E+03  0.45669694065E+03 0.  0.
      99925    2    3    3    0    0 -0.91847114741E+01 -0.25922890427E+02 -0.10675378163E+03  0.28496922122E+03  0.26278267062E+03 0.  0.
         25    1    4    4    0    0 -0.28909228204E+02 -0.89319748820E+01 -0.87815338343E+02  0.15580296980E+03  0.12509000000E+03 0.  0.
         25    1    4    4    0    0  0.19724516730E+02 -0.16990915545E+02 -0.18938443289E+02  0.12916625142E+03  0.12509000000E+03 0.  0.
         25    1    3    3    0    0  0.91847114741E+01  0.25922890427E+02 -0.30160111009E+03  0.32766918207E+03  0.12509000000E+03 0.  0.
<mgrwt>
<rscale>  2 0.45669694E+03</rscale>
<asrwt>0</asrwt>
<pdfrwt beam="1">  1       21 0.15020847E-01 0.45669694E+03</pdfrwt>
<pdfrwt beam="2">  1       21 0.75073036E-01 0.45669694E+03</pdfrwt>
<totfact> 0.57137334E+04</totfact>
</mgrwt>
</event>
<event>
 7    0  0.4709932E-002  0.4624038E+03  0.7546771E-02  0.1024086E+00
         21   -1    0    0  502  501  0.00000000000E+00  0.00000000000E+00  0.54050331342E+03  0.54050331342E+03  0.00000000000E+00 0. -1.
         21   -1    0    0  501  502 -0.00000000000E+00 -0.00000000000E+00 -0.98897300713E+02  0.98897300713E+02  0.00000000000E+00 0. -1.
      99926    2    1    2    0    0  0.00000000000E+00  0.00000000000E+00  0.44160601271E+03  0.63940061414E+03  0.46240380069E+03 0.  0.
      99925    2    3    3    0    0  0.57755538082E+02  0.98177777804E+02  0.22386898530E+03  0.36366251478E+03  0.26298008259E+03 0.  0.
         25    1    4    4    0    0 -0.42469930029E+01  0.49067808747E+02  0.75904136668E+02  0.15438469117E+03  0.12509000000E+03 0.  0.
         25    1    3    3    0    0 -0.57755538082E+02 -0.98177777804E+02  0.21773702741E+03  0.27573809936E+03  0.12509000000E+03 0.  0.
         25    1    4    4    0    0  0.62002531085E+02  0.49109969058E+02  0.14796484864E+03  0.20927782361E+03  0.12509000000E+03 0.  0.
<mgrwt>
<rscale>  2 0.46240380E+03</rscale>
<asrwt>0</asrwt>
<pdfrwt beam="1">  1       21 0.79485780E-01 0.46240380E+03</pdfrwt>
<pdfrwt beam="2">  1       21 0.14543721E-01 0.46240380E+03</pdfrwt>
<totfact> 0.53142335E+04</totfact>
</mgrwt>
</event>
<event>
 7    0  0.4709932E-002  0.4576614E+03  0.7546771E-02  0.1025462E+00
         21   -1    0    0  502  501  0.00000000000E+00  0.00000000000E+00  0.16024751581E+04  0.16024751581E+04  0.00000000000E+00 0.  1.
         21   -1    0    0  501  502 -0.00000000000E+00 -0.00000000000E+00 -0.32676628116E+02  0.32676628116E+02  0.00000000000E+00 0.  1.
      99926    2    1    2    0    0  0.00000000000E+00  0.00000000000E+00  0.15697985300E+04  0.16351517863E+04  0.45766138053E+03 0.  0.
      99925    2    3    3    0    0  0.28469294628E+02 -0.69348857958E+02  0.67040963976E+03  0.72401642371E+03  0.26292761721E+03 0.  0.
         25    1    3    3    0    0 -0.28469294628E+02  0.69348857958E+02  0.89938889027E+03  0.91113536255E+03  0.12509000000E+03 0.  0.
         25    1    4    4    0    0  0.66453258845E+01 -0.46463680274E+02  0.23998831675E+03  0.27467241255E+03  0.12509000000E+03 0.  0.
         25    1    4    4    0    0  0.21823968743E+02 -0.22885177685E+02  0.43042132300E+03  0.44934401116E+03  0.12509000000E+03 0.  0.
<mgrwt>
<rscale>  2 0.45766138E+03</rscale>
<asrwt>0</asrwt>
<pdfrwt beam="1">  1       21 0.23565806E+00 0.45766138E+03</pdfrwt>
<pdfrwt beam="2">  1       21 0.48053876E-02 0.45766138E+03</pdfrwt>
<totfact> 0.20225775E+04</totfact>
</mgrwt>
</event>
<event>
 7    0  0.4709932E-002  0.4544822E+03  0.7546771E-02  0.1026394E+00
         21   -1    0    0  502  501  0.00000000000E+00  0.00000000000E+00  0.10460253021E+03  0.10460253021E+03  0.00000000000E+00 0. -1.
         21   -1    0    0  501  502 -0.00000000000E+00 -0.00000000000E+00 -0.49366417155E+03  0.49366417155E+03  0.00000000000E+00 0. -1.
      99926    2    1    2    0    0  0.00000000000E+00  0.35527136788E-14 -0.38906164134E+03  0.59826670175E+03  0.45448221710E+03 0.  0.
      99925    2    3    3    0    0 -0.36678361295E+02  0.27913039877E+02 -0.10953807729E+03  0.28858077869E+03  0.26297497118E+03 0.  0.
         25    1    4    4    0    0  0.10411197212E+00  0.44510157584E+02 -0.34299113621E+02  0.13713169678E+03  0.12509000000E+03 0.  0.
         25    1    4    4    0    0 -0.36782473268E+02 -0.16597117708E+02 -0.75238963664E+02  0.15144908190E+03  0.12509000000E+03 0.  0.
         25    1    3    3    0    0  0.36678361295E+02 -0.27913039877E+02 -0.27952356405E+03  0.30968592306E+03  0.12509000000E+03 0.  0.
<mgrwt>
<rscale>  2 0.45448222E+03</rscale>
<asrwt>0</asrwt>
<pdfrwt beam="1">  1       21 0.15382725E-01 0.45448222E+03</pdfrwt>
<pdfrwt beam="2">  1       21 0.72597671E-01 0.45448222E+03</pdfrwt>
<totfact> 0.59026208E+04</totfact>
</mgrwt>
</event>
<event>
 7    0  0.4709932E-002  0.4180414E+03  0.7546771E-02  0.1037706E+00
         21   -1    0    0  502  501  0.00000000000E+00  0.00000000000E+00  0.33865314978E+02  0.33865314978E+02  0.00000000000E+00 0. -1.
         21   -1    0    0  501  502 -0.00000000000E+00 -0.00000000000E+00 -0.12901000305E+04  0.12901000305E+04  0.00000000000E+00 0. -1.
      99926    2    1    2    0    0  0.71054273576E-14  0.00000000000E+00 -0.12562347155E+04  0.13239653455E+04  0.41804135626E+03 0.  0.
      99925    2    3    3    0    0  0.41392280720E+02 -0.14168258899E+02 -0.63347348222E+03  0.68726045130E+03  0.26291484322E+03 0.  0.
         25    1    4    4    0    0 -0.13703009418E+02 -0.32087889032E+01 -0.24788635911E+03  0.27801658930E+03  0.12509000000E+03 0.  0.
         25    1    4    4    0    0  0.55095290137E+02 -0.10959469996E+02 -0.38558712310E+03  0.40924386200E+03  0.12509000000E+03 0.  0.
         25    1    3    3    0    0 -0.41392280720E+02  0.14168258899E+02 -0.62276123329E+03  0.63670489417E+03  0.12509000000E+03 0.  0.
<mgrwt>
<rscale>  2 0.41804136E+03</rscale>
<asrwt>0</asrwt>
<pdfrwt beam="1">  1       21 0.49801933E-02 0.41804136E+03</pdfrwt>
<pdfrwt beam="2">  1       21 0.18972060E+00 0.41804136E+03</pdfrwt>
<totfact> 0.38309467E+04</totfact>
</mgrwt>
</event>
<event>
 7    0  0.4709932E-002  0.4594376E+03  0.7546771E-02  0.1024944E+00
         21   -1    0    0  502  501  0.00000000000E+00  0.00000000000E+00  0.57256215580E+02  0.57256215580E+02  0.00000000000E+00 0. -1.
         21   -1    0    0  501  502 -0.00000000000E+00 -0.00000000000E+00 -0.92165942601E+03  0.92165942601E+03  0.00000000000E+00 0. -1.
      99926    2    1    2    0    0  0.00000000000E+00  0.00000000000E+00 -0.86440321043E+03  0.97891564159E+03  0.45943761617E+03 0.  0.
      99925    2    3    3    0    0 -0.41927879860E+00  0.10511913516E+03 -0.65224688919E+03  0.71113210753E+03  0.26312100170E+03 0.  0.
         25    1    4    4    0    0  0.65884116840E+00  0.90750015847E+02 -0.30840831055E+03  0.34496259734E+03  0.12509000000E+03 0.  0.
         25    1    3    3    0    0  0.41927879860E+00 -0.10511913516E+03 -0.21215632124E+03  0.26778353406E+03  0.12509000000E+03 0.  0.
         25    1    4    4    0    0 -0.10781199670E+01  0.14369119308E+02 -0.34383857864E+03  0.36616951019E+03  0.12509000000E+03 0.  0.
<mgrwt>
<rscale>  2 0.45943762E+03</rscale>
<asrwt>0</asrwt>
<pdfrwt beam="1">  1       21 0.84200313E-02 0.45943762E+03</pdfrwt>
<pdfrwt beam="2">  1       21 0.13553816E+00 0.45943762E+03</pdfrwt>
<totfact> 0.38633776E+04</totfact>
</mgrwt>
</event>
<event>
 7    0  0.4709932E-002  0.4512653E+03  0.7546771E-02  0.1027345E+00
         21   -1    0    0  502  501  0.00000000000E+00  0.00000000000E+00  0.38150420389E+03  0.38150420389E+03  0.00000000000E+00 0. -1.
         21   -1    0    0  501  502 -0.00000000000E+00 -0.00000000000E+00 -0.13344567497E+03  0.13344567497E+03  0.00000000000E+00 0. -1.
      99926    2    1    2    0    0 -0.71054273576E-14  0.00000000000E+00  0.24805852892E+03  0.51494987887E+03  0.45126527008E+03 0.  0.
      99925    2    3    3    0    0 -0.62407072823E+02  0.27240428524E+02  0.25465281877E+03  0.37237471819E+03  0.26301746891E+03 0.  0.
         25    1    4    4    0    0 -0.60591048173E+02  0.17925891487E+02  0.17322097124E+03  0.22281298364E+03  0.12509000000E+03 0.  0.
         25    1    4    4    0    0 -0.18160246498E+01  0.93145370367E+01  0.81431847538E+02  0.14956173454E+03  0.12509000000E+03 0.  0.
         25    1    3    3    0    0  0.62407072823E+02 -0.27240428524E+02 -0.65942898571E+01  0.14257516068E+03  0.12509000000E+03 0.  0.
<mgrwt>
<rscale>  2 0.45126527E+03</rscale>
<asrwt>0</asrwt>
<pdfrwt beam="1">  1       21 0.56103559E-01 0.45126527E+03</pdfrwt>
<pdfrwt beam="2">  1       21 0.19624364E-01 0.45126527E+03</pdfrwt>
<totfact> 0.66171902E+04</totfact>
</mgrwt>
</event>
<event>
 7    0  0.4709932E-002  0.4380984E+03  0.7546771E-02  0.1031332E+00
         21   -1    0    0  502  501  0.00000000000E+00  0.00000000000E+00  0.35312412825E+03  0.35312412825E+03  0.00000000000E+00 0.  1.
         21   -1    0    0  501  502 -0.00000000000E+00 -0.00000000000E+00 -0.13588013257E+03  0.13588013257E+03  0.00000000000E+00 0.  1.
      99926    2    1    2    0    0 -0.35527136788E-14  0.00000000000E+00  0.21724399569E+03  0.48900426082E+03  0.43809840611E+03 0.  0.
      99925    2    3    3    0    0 -0.29464006562E+02  0.36877054700E+02  0.23277036307E+03  0.35440626295E+03  0.26304697764E+03 0.  0.
         25    1    4    4    0    0  0.11069546911E+02  0.32254622719E+02  0.78172235198E+02  0.15139782697E+03  0.12509000000E+03 0.  0.
         25    1    4    4    0    0 -0.40533553474E+02  0.46224319809E+01  0.15459812788E+03  0.20300843598E+03  0.12509000000E+03 0.  0.
         25    1    3    3    0    0  0.29464006562E+02 -0.36877054700E+02 -0.15526367389E+02  0.13459799787E+03  0.12509000000E+03 0.  0.
<mgrwt>
<rscale>  2 0.43809841E+03</rscale>
<asrwt>0</asrwt>
<pdfrwt beam="1">  1       21 0.51930019E-01 0.43809841E+03</pdfrwt>
<pdfrwt beam="2">  1       21 0.19982373E-01 0.43809841E+03</pdfrwt>
<totfact> 0.75709346E+04</totfact>
</mgrwt>
</event>
<event>
 7    0  0.4709932E-002  0.4539619E+03  0.7546771E-02  0.1026547E+00
         21   -1    0    0  502  501  0.00000000000E+00  0.00000000000E+00  0.31061881257E+03  0.31061881257E+03  0.00000000000E+00 0.  1.
         21   -1    0    0  501  502 -0.00000000000E+00 -0.00000000000E+00 -0.16586358921E+03  0.16586358921E+03  0.00000000000E+00 0.  1.
      99926    2    1    2    0    0  0.00000000000E+00  0.00000000000E+00  0.14475522336E+03  0.47648240178E+03  0.45396189765E+03 0.  0.
      99925    2    3    3    0    0  0.55417824037E+02  0.70196697834E+02  0.16231946985E+03  0.32170926954E+03  0.26296488779E+03 0.  0.
         25    1    4    4    0    0  0.40603413155E+02  0.67663504886E+02  0.11413912700E+03  0.18682139991E+03  0.12509000000E+03 0.  0.
         25    1    4    4    0    0  0.14814410882E+02  0.25331929485E+01  0.48180342849E+02  0.13488786963E+03  0.12509000000E+03 0.  0.
         25    1    3    3    0    0 -0.55417824037E+02 -0.70196697834E+02 -0.17564246492E+02  0.15477313224E+03  0.12509000000E+03 0.  0.
<mgrwt>
<rscale>  2 0.45396190E+03</rscale>
<asrwt>0</asrwt>
<pdfrwt beam="1">  1       21 0.45679237E-01 0.45396190E+03</pdfrwt>
<pdfrwt beam="2">  1       21 0.24391704E-01 0.45396190E+03</pdfrwt>
<totfact> 0.67511570E+04</totfact>
</mgrwt>
</event>
<event>
 7    0  0.4709932E-002  0.4516496E+03  0.7546771E-02  0.1027231E+00
         21   -1    0    0  502  501  0.00000000000E+00  0.00000000000E+00  0.13437023606E+03  0.13437023606E+03  0.00000000000E+00 0. -1.
         21   -1    0    0  501  502 -0.00000000000E+00 -0.00000000000E+00 -0.37952474383E+03  0.37952474383E+03  0.00000000000E+00 0. -1.
      99926    2    1    2    0    0 -0.71054273576E-14 -0.14210854715E-13 -0.24515450777E+03  0.51389497989E+03  0.45164955184E+03 0.  0.
      99925    2    3    3    0    0  0.60514104633E+02  0.78650752896E+02 -0.10079535849E+03  0.29863938792E+03  0.26301688527E+03 0.  0.
         25    1    3    3    0    0 -0.60514104633E+02 -0.78650752896E+02 -0.14435914928E+03  0.21525559196E+03  0.12509000000E+03 0.  0.
         25    1    4    4    0    0  0.14275445842E+02  0.76881469910E+02 -0.58849951730E+02  0.15882497816E+03  0.12509000000E+03 0.  0.
         25    1    4    4    0    0  0.46238658791E+02  0.17692829863E+01 -0.41945406761E+02  0.13981440976E+03  0.12509000000E+03 0.  0.
<mgrwt>
<rscale>  2 0.45164955E+03</rscale>
<asrwt>0</asrwt>
<pdfrwt beam="1">  1       21 0.19760329E-01 0.45164955E+03</pdfrwt>
<pdfrwt beam="2">  1       21 0.55812461E-01 0.45164955E+03</pdfrwt>
<totfact> 0.66043517E+04</totfact>
</mgrwt>
</event>
<event>
 7    0  0.4709932E-002  0.4593207E+03  0.7546771E-02  0.1024978E+00
         21   -1    0    0  502  501  0.00000000000E+00  0.00000000000E+00  0.14567336688E+03  0.14567336688E+03  0.00000000000E+00 0.  1.
         21   -1    0    0  501  502 -0.00000000000E+00 -0.00000000000E+00 -0.36206947054E+03  0.36206947054E+03  0.00000000000E+00 0.  1.
      99926    2    1    2    0    0  0.35527136788E-14  0.00000000000E+00 -0.21639610366E+03  0.50774283742E+03  0.45932071070E+03 0.  0.
      99925    2    3    3    0    0  0.28377229293E+02  0.41854673134E+02 -0.25252430018E+03  0.36806522472E+03  0.26295704338E+03 0.  0.
         25    1    4    4    0    0 -0.21882822491E+02  0.31811449630E+02 -0.10369033057E+03  0.16700305087E+03  0.12509000000E+03 0.  0.
         25    1    4    4    0    0  0.50260051784E+02  0.10043223504E+02 -0.14883396961E+03  0.20106217385E+03  0.12509000000E+03 0.  0.
         25    1    3    3    0    0 -0.28377229293E+02 -0.41854673134E+02  0.36128196519E+02  0.13967761270E+03  0.12509000000E+03 0.  0.
<mgrwt>
<rscale>  2 0.45932071E+03</rscale>
<asrwt>0</asrwt>
<pdfrwt beam="1">  1       21 0.21422554E-01 0.45932071E+03</pdfrwt>
<pdfrwt beam="2">  1       21 0.53245510E-01 0.45932071E+03</pdfrwt>
<totfact> 0.62557010E+04</totfact>
</mgrwt>
</event>
<event>
 7    0  0.4709932E-002  0.4509478E+03  0.7546771E-02  0.1027440E+00
         21   -1    0    0  502  501  0.00000000000E+00  0.00000000000E+00  0.31877894332E+03  0.31877894332E+03  0.00000000000E+00 0. -1.
         21   -1    0    0  501  502 -0.00000000000E+00 -0.00000000000E+00 -0.15947878624E+03  0.15947878624E+03  0.00000000000E+00 0. -1.
      99926    2    1    2    0    0  0.71054273576E-14  0.00000000000E+00  0.15930015708E+03  0.47825772956E+03  0.45094779725E+03 0.  0.
      99925    2    3    3    0    0  0.58198392735E+02  0.33661785821E+02  0.95568829619E+01  0.27188252518E+03  0.26326527447E+03 0.  0.
         25    1    4    4    0    0  0.66889064447E+02  0.44296375901E+01  0.16881641131E+02  0.14292049027E+03  0.12509000000E+03 0.  0.
         25    1    3    3    0    0 -0.58198392735E+02 -0.33661785821E+02  0.14974327412E+03  0.20637520439E+03  0.12509000000E+03 0.  0.
         25    1    4    4    0    0 -0.86906717119E+01  0.29232148231E+02 -0.73247581691E+01  0.12896203491E+03  0.12509000000E+03 0.  0.
<mgrwt>
<rscale>  2 0.45094780E+03</rscale>
<asrwt>0</asrwt>
<pdfrwt beam="1">  1       21 0.46879256E-01 0.45094780E+03</pdfrwt>
<pdfrwt beam="2">  1       21 0.23452763E-01 0.45094780E+03</pdfrwt>
<totfact> 0.69020593E+04</totfact>
</mgrwt>
</event>
<event>
 7    0  0.4709932E-002  0.4563280E+03  0.7546771E-02  0.1025852E+00
         21   -1    0    0  502  501  0.00000000000E+00  0.00000000000E+00  0.80507408679E+03  0.80507408679E+03  0.00000000000E+00 0.  1.
         21   -1    0    0  501  502 -0.00000000000E+00 -0.00000000000E+00 -0.64663384382E+02  0.64663384382E+02  0.00000000000E+00 0.  1.
      99926    2    1    2    0    0  0.00000000000E+00  0.00000000000E+00  0.74041070241E+03  0.86973747117E+03  0.45632801856E+03 0.  0.
      99925    2    3    3    0    0 -0.87884910338E+02 -0.38175324734E+02  0.58457448454E+03  0.64812170507E+03  0.26297015749E+03 0.  0.
         25    1    4    4    0    0 -0.79991746588E+02 -0.80166547222E+01  0.27168132085E+03  0.30971146972E+03  0.12509000000E+03 0.  0.
         25    1    3    3    0    0  0.87884910338E+02  0.38175324734E+02  0.15583621787E+03  0.22161576610E+03  0.12509000000E+03 0.  0.
         25    1    4    4    0    0 -0.78931637493E+01 -0.30158670012E+02  0.31289316369E+03  0.33841023535E+03  0.12509000000E+03 0.  0.
<mgrwt>
<rscale>  2 0.45632802E+03</rscale>
<asrwt>0</asrwt>
<pdfrwt beam="1">  1       21 0.11839324E+00 0.45632802E+03</pdfrwt>
<pdfrwt beam="2">  1       21 0.95093217E-02 0.45632802E+03</pdfrwt>
<totfact> 0.44107374E+04</totfact>
</mgrwt>
</event>
<event>
 6    0  0.4709932E-002  0.4643868E+03  0.7546771E-02  0.1023517E+00
         21   -1    0    0  502  501  0.00000000000E+00  0.00000000000E+00  0.74474758342E+03  0.74474758342E+03  0.00000000000E+00 0. -1.
         21   -1    0    0  501  502 -0.00000000000E+00 -0.00000000000E+00 -0.72392025553E+02  0.72392025553E+02  0.00000000000E+00 0. -1.
      99926    2    1    2    0    0 -0.35527136788E-14  0.00000000000E+00  0.67235555787E+03  0.81713960898E+03  0.46438684775E+03 0.  0.
         25    1    3    3    0    0  0.20915982705E+02  0.10563999820E+03  0.17790661979E+03  0.24268407656E+03  0.12509000000E+03 0.  0.
         25    1    3    3    0    0 -0.26558951707E+02 -0.86712932229E+02  0.19118788660E+03  0.24581461839E+03  0.12509000000E+03 0.  0.
         25    1    3    3    0    0  0.56429690027E+01 -0.18927065970E+02  0.30326105148E+03  0.32864091403E+03  0.12509000000E+03 0.  0.
<mgrwt>
<rscale>  2 0.46438685E+03</rscale>
<asrwt>0</asrwt>
<pdfrwt beam="1">  1       21 0.10952170E+00 0.46438685E+03</pdfrwt>
<pdfrwt beam="2">  1       21 0.10645887E-01 0.46438685E+03</pdfrwt>
<totfact> 0.43642462E+04</totfact>
</mgrwt>
</event>
<event>
 7    0  0.4709932E-002  0.4536207E+03  0.7546771E-02  0.1026648E+00
         21   -1    0    0  502  501  0.00000000000E+00  0.00000000000E+00  0.97547800996E+02  0.97547800996E+02  0.00000000000E+00 0.  1.
         21   -1    0    0  501  502 -0.00000000000E+00 -0.00000000000E+00 -0.52736129271E+03  0.52736129271E+03  0.00000000000E+00 0.  1.
      99926    2    1    2    0    0  0.00000000000E+00  0.00000000000E+00 -0.42981349171E+03  0.62490909370E+03  0.45362069809E+03 0.  0.
      99925    2    3    3    0    0  0.70452165637E+02  0.84399998319E+02 -0.24324455429E+03  0.37482442030E+03  0.26313222057E+03 0.  0.
         25    1    4    4    0    0 -0.44902374691E+01  0.53282302531E+02 -0.11323300588E+03  0.17699827038E+03  0.12509000000E+03 0.  0.
         25    1    4    4    0    0  0.74942403106E+02  0.31117695787E+02 -0.13001154840E+03  0.19782614992E+03  0.12509000000E+03 0.  0.
         25    1    3    3    0    0 -0.70452165637E+02 -0.84399998319E+02 -0.18656893742E+03  0.25008467340E+03  0.12509000000E+03 0.  0.
<mgrwt>
<rscale>  2 0.45362070E+03</rscale>
<asrwt>0</asrwt>
<pdfrwt beam="1">  1       21 0.14345265E-01 0.45362070E+03</pdfrwt>
<pdfrwt beam="2">  1       21 0.77553130E-01 0.45362070E+03</pdfrwt>
<totfact> 0.57797501E+04</totfact>
</mgrwt>
</event>
<event>
 7    0  0.4709932E-002  0.4591035E+03  0.7546771E-02  0.1025042E+00
         21   -1    0    0  502  501  0.00000000000E+00  0.00000000000E+00  0.41035889996E+03  0.41035889996E+03  0.00000000000E+00 0. -1.
         21   -1    0    0  501  502 -0.00000000000E+00 -0.00000000000E+00 -0.12840958201E+03  0.12840958201E+03  0.00000000000E+00 0. -1.
      99926    2    1    2    0    0  0.00000000000E+00  0.00000000000E+00  0.28194931796E+03  0.53876848197E+03  0.45910353872E+03 0.  0.
      99925    2    3    3    0    0 -0.80505475124E+02  0.76540573870E+02  0.21965880430E+03  0.36025459689E+03  0.26304713133E+03 0.  0.
         25    1    4    4    0    0 -0.59775918666E+02  0.23055143840E+02  0.15161978164E+03  0.20673840087E+03  0.12509000000E+03 0.  0.
         25    1    4    4    0    0 -0.20729556458E+02  0.53485430030E+02  0.68039022656E+02  0.15351619602E+03  0.12509000000E+03 0.  0.
         25    1    3    3    0    0  0.80505475124E+02 -0.76540573870E+02  0.62290513660E+02  0.17851388508E+03  0.12509000000E+03 0.  0.
<mgrwt>
<rscale>  2 0.45910354E+03</rscale>
<asrwt>0</asrwt>
<pdfrwt beam="1">  1       21 0.60346897E-01 0.45910354E+03</pdfrwt>
<pdfrwt beam="2">  1       21 0.18883762E-01 0.45910354E+03</pdfrwt>
<totfact> 0.60621239E+04</totfact>
</mgrwt>
</event>
<event>
 7    0  0.4709932E-002  0.4492730E+03  0.7546771E-02  0.1027939E+00
         21   -1    0    0  502  501  0.00000000000E+00  0.00000000000E+00  0.64534937640E+02  0.64534937640E+02  0.00000000000E+00 0. -1.
         21   -1    0    0  501  502 -0.00000000000E+00 -0.00000000000E+00 -0.78192612101E+03  0.78192612101E+03  0.00000000000E+00 0. -1.
      99926    2    1    2    0    0 -0.17763568394E-14  0.00000000000E+00 -0.71739118337E+03  0.84646105865E+03  0.44927298364E+03 0.  0.
      99925    2    3    3    0    0 -0.10255465602E+02  0.70009046858E+02 -0.30083685890E+03  0.40581215697E+03  0.26300998052E+03 0.  0.
         25    1    4    4    0    0  0.15852894360E+02  0.39627865674E+02 -0.99575318515E+02  0.16548242854E+03  0.12509000000E+03 0.  0.
         25    1    4    4    0    0 -0.26108359961E+02  0.30381181184E+02 -0.20126154039E+03  0.24032972844E+03  0.12509000000E+03 0.  0.
         25    1    3    3    0    0  0.10255465602E+02 -0.70009046858E+02 -0.41655432447E+03  0.44064890168E+03  0.12509000000E+03 0.  0.
<mgrwt>
<rscale>  2 0.44927298E+03</rscale>
<asrwt>0</asrwt>
<pdfrwt beam="1">  1       21 0.94904333E-02 0.44927298E+03</pdfrwt>
<pdfrwt beam="2">  1       21 0.11498912E+00 0.44927298E+03</pdfrwt>
<totfact> 0.47705532E+04</totfact>
</mgrwt>
</event>
<event>
 7    0  0.4709932E-002  0.4478332E+03  0.7546771E-02  0.1028370E+00
         21   -1    0    0  502  501  0.00000000000E+00  0.00000000000E+00  0.58013695717E+03  0.58013695717E+03  0.00000000000E+00 0.  1.
         21   -1    0    0  501  502 -0.00000000000E+00 -0.00000000000E+00 -0.86425519779E+02  0.86425519779E+02  0.00000000000E+00 0.  1.
      99926    2    1    2    0    0  0.00000000000E+00  0.00000000000E+00  0.49371143739E+03  0.66656247695E+03  0.44783317459E+03 0.  0.
      99925    2    3    3    0    0  0.90856291669E+02  0.41468735905E+02  0.36992926090E+03  0.46421609791E+03  0.26205801971E+03 0.  0.
         25    1    4    4    0    0  0.57789245155E+02  0.23649461960E+02  0.25229524072E+03  0.28844287216E+03  0.12509000000E+03 0.  0.
         25    1    3    3    0    0 -0.90856291669E+02 -0.41468735905E+02  0.12378217649E+03  0.20234637904E+03  0.12509000000E+03 0.  0.
         25    1    4    4    0    0  0.33067046514E+02  0.17819273945E+02  0.11763402018E+03  0.17577322576E+03  0.12509000000E+03 0.  0.
<mgrwt>
<rscale>  2 0.44783317E+03</rscale>
<asrwt>0</asrwt>
<pdfrwt beam="1">  1       21 0.85314256E-01 0.44783317E+03</pdfrwt>
<pdfrwt beam="2">  1       21 0.12709636E-01 0.44783317E+03</pdfrwt>
<totfact> 0.57961059E+04</totfact>
</mgrwt>
</event>
<event>
 7    0  0.4709932E-002  0.4564725E+03  0.7546771E-02  0.1025809E+00
         21   -1    0    0  502  501  0.00000000000E+00  0.00000000000E+00  0.49581802063E+03  0.49581802063E+03  0.00000000000E+00 0. -1.
         21   -1    0    0  501  502 -0.00000000000E+00 -0.00000000000E+00 -0.10506232448E+03  0.10506232448E+03  0.00000000000E+00 0. -1.
      99926    2    1    2    0    0  0.00000000000E+00  0.00000000000E+00  0.39075569614E+03  0.60088034511E+03  0.45647253485E+03 0.  0.
      99925    2    3    3    0    0 -0.15479108451E+02 -0.11118171354E+03  0.21559876806E+03  0.35812855051E+03  0.26300618563E+03 0.  0.
         25    1    3    3    0    0  0.15479108451E+02  0.11118171354E+03  0.17515692809E+03  0.24275179460E+03  0.12509000000E+03 0.  0.
         25    1    4    4    0    0 -0.42005998353E+01 -0.52105429208E+02  0.56175319794E+02  0.14675079368E+03  0.12509000000E+03 0.  0.
         25    1    4    4    0    0 -0.11278508615E+02 -0.59076284332E+02  0.15942344826E+03  0.21137775683E+03  0.12509000000E+03 0.  0.
<mgrwt>
<rscale>  2 0.45647253E+03</rscale>
<asrwt>0</asrwt>
<pdfrwt beam="1">  1       21 0.72914414E-01 0.45647253E+03</pdfrwt>
<pdfrwt beam="2">  1       21 0.15450342E-01 0.45647253E+03</pdfrwt>
<totfact> 0.57946971E+04</totfact>
</mgrwt>
</event>
<event>
 7    0  0.4709932E-002  0.4256825E+03  0.7546771E-02  0.1035233E+00
         21   -1    0    0  502  501  0.00000000000E+00  0.00000000000E+00  0.11400331677E+03  0.11400331677E+03  0.00000000000E+00 0.  1.
         21   -1    0    0  501  502 -0.00000000000E+00 -0.00000000000E+00 -0.39736907262E+03  0.39736907262E+03  0.00000000000E+00 0.  1.
      99926    2    1    2    0    0  0.88817841970E-15  0.00000000000E+00 -0.28336575585E+03  0.51137238938E+03  0.42568247443E+03 0.  0.
      99925    2    3    3    0    0  0.78296493256E+01  0.95816959904E+01 -0.85217061916E+02  0.27671620406E+03  0.26297680057E+03 0.  0.
         25    1    4    4    0    0 -0.35496476826E+02  0.68111420681E+01 -0.32530225307E+02  0.13420922167E+03  0.12509000000E+03 0.  0.
         25    1    3    3    0    0 -0.78296493256E+01 -0.95816959904E+01 -0.19814869393E+03  0.23465618533E+03  0.12509000000E+03 0.  0.
         25    1    4    4    0    0  0.43326126152E+02  0.27705539223E+01 -0.52686836608E+02  0.14250698238E+03  0.12509000000E+03 0.  0.
<mgrwt>
<rscale>  2 0.42568247E+03</rscale>
<asrwt>0</asrwt>
<pdfrwt beam="1">  1       21 0.16765193E-01 0.42568247E+03</pdfrwt>
<pdfrwt beam="2">  1       21 0.58436629E-01 0.42568247E+03</pdfrwt>
<totfact> 0.81920945E+04</totfact>
</mgrwt>
</event>
<event>
 7    0  0.4709932E-002  0.5278989E+03  0.7546771E-02  0.1006743E+00
         21   -1    0    0  502  501  0.00000000000E+00  0.00000000000E+00  0.18448139327E+03  0.18448139327E+03  0.00000000000E+00 0.  1.
         21   -1    0    0  501  502 -0.00000000000E+00 -0.00000000000E+00 -0.37764958080E+03  0.37764958080E+03  0.00000000000E+00 0.  1.
      99926    2    1    2    0    0 -0.28421709430E-13  0.00000000000E+00 -0.19316818753E+03  0.56213097407E+03  0.52789893288E+03 0.  0.
      99925    2    3    3    0    0 -0.12720393851E+03 -0.11123456164E+03 -0.15285952424E+03  0.34806027053E+03  0.26310824406E+03 0.  0.
         25    1    3    3    0    0  0.12720393851E+03  0.11123456164E+03 -0.40308663285E+02  0.21407070354E+03  0.12509000000E+03 0.  0.
         25    1    4    4    0    0 -0.93478643155E+02 -0.28440952919E+02 -0.84134855804E+02  0.17964778482E+03  0.12509000000E+03 0.  0.
         25    1    4    4    0    0 -0.33725295356E+02 -0.82793608723E+02 -0.68724668441E+02  0.16841248571E+03  0.12509000000E+03 0.  0.
<mgrwt>
<rscale>  2 0.52789893E+03</rscale>
<asrwt>0</asrwt>
<pdfrwt beam="1">  1       21 0.27129617E-01 0.52789893E+03</pdfrwt>
<pdfrwt beam="2">  1       21 0.55536703E-01 0.52789893E+03</pdfrwt>
<totfact> 0.35609555E+04</totfact>
</mgrwt>
</event>
<event>
 7    0  0.4709932E-002  0.4566884E+03  0.7546771E-02  0.1025746E+00
         21   -1    0    0  502  501  0.00000000000E+00  0.00000000000E+00  0.12397155442E+04  0.12397155442E+04  0.00000000000E+00 0.  1.
         21   -1    0    0  501  502 -0.00000000000E+00 -0.00000000000E+00 -0.42058895831E+02  0.42058895831E+02  0.00000000000E+00 0.  1.
      99926    2    1    2    0    0  0.14210854715E-13  0.00000000000E+00  0.11976566484E+04  0.12817744400E+04  0.45668837048E+03 0.  0.
      99925    2    3    3    0    0  0.11340005670E+03 -0.17005334653E+02  0.74244099906E+03  0.79595806552E+03  0.26302442988E+03 0.  0.
         25    1    3    3    0    0 -0.11340005670E+03  0.17005334653E+02  0.45521564929E+03  0.48581637450E+03  0.12509000000E+03 0.  0.
         25    1    4    4    0    0  0.74495275468E+02 -0.25499432719E+02  0.48432247387E+03  0.50637489465E+03  0.12509000000E+03 0.  0.
         25    1    4    4    0    0  0.38904781235E+02  0.84940980659E+01  0.25811852519E+03  0.28958317087E+03  0.12509000000E+03 0.  0.
<mgrwt>
<rscale>  2 0.45668837E+03</rscale>
<asrwt>0</asrwt>
<pdfrwt beam="1">  1       21 0.18231109E+00 0.45668837E+03</pdfrwt>
<pdfrwt beam="2">  1       21 0.61851326E-02 0.45668837E+03</pdfrwt>
<totfact> 0.29262364E+04</totfact>
</mgrwt>
</event>
<event>
 7    0  0.4709932E-002  0.4385375E+03  0.7546771E-02  0.1031196E+00
         21   -1    0    0  502  501  0.00000000000E+00  0.00000000000E+00  0.56187675600E+03  0.56187675600E+03  0.00000000000E+00 0.  1.
         21   -1    0    0  501  502 -0.00000000000E+00 -0.00000000000E+00 -0.85568223075E+02  0.85568223075E+02  0.00000000000E+00 0.  1.
      99926    2    1    2    0    0  0.00000000000E+00  0.00000000000E+00  0.47630853293E+03  0.64744497908E+03  0.43853754958E+03 0.  0.
      99925    2    3    3    0    0  0.90864805280E+02 -0.33269395844E+02  0.29866364103E+03  0.40960368482E+03  0.26308162726E+03 0.  0.
         25    1    3    3    0    0 -0.90864805280E+02  0.33269395844E+02  0.17764489189E+03  0.23784129426E+03  0.12509000000E+03 0.  0.
         25    1    4    4    0    0  0.51955564513E+02 -0.36233185041E+02  0.20569561063E+03  0.24893858020E+03  0.12509000000E+03 0.  0.
         25    1    4    4    0    0  0.38909240767E+02  0.29637891978E+01  0.92968030408E+02  0.16066510462E+03  0.12509000000E+03 0.  0.
<mgrwt>
<rscale>  2 0.43853755E+03</rscale>
<asrwt>0</asrwt>
<pdfrwt beam="1">  1       21 0.82628933E-01 0.43853755E+03</pdfrwt>
<pdfrwt beam="2">  1       21 0.12583562E-01 0.43853755E+03</pdfrwt>
<totfact> 0.63728738E+04</totfact>
</mgrwt>
</event>
<event>
 7    0  0.4709932E-002  0.4569181E+03  0.7546771E-02  0.1025679E+00
         21   -1    0    0  502  501  0.00000000000E+00  0.00000000000E+00  0.33470669635E+02  0.33470669635E+02  0.00000000000E+00 0. -1.
         21   -1    0    0  501  502 -0.00000000000E+00 -0.00000000000E+00 -0.15593815522E+04  0.15593815522E+04  0.00000000000E+00 0. -1.
      99926    2    1    2    0    0  0.00000000000E+00  0.00000000000E+00 -0.15259108826E+04  0.15928522219E+04  0.45691813170E+03 0.  0.
      99925    2    3    3    0    0  0.10878195110E+03  0.28229587734E+02 -0.87425094345E+03  0.91984508454E+03  0.26300160629E+03 0.  0.
         25    1    4    4    0    0  0.72743498692E+02  0.77309804030E+01 -0.57284004390E+03  0.59088459843E+03  0.12509000000E+03 0.  0.
         25    1    4    4    0    0  0.36038452413E+02  0.20498607331E+02 -0.30141089955E+03  0.32896048611E+03  0.12509000000E+03 0.  0.
         25    1    3    3    0    0 -0.10878195110E+03 -0.28229587734E+02 -0.65165993913E+03  0.67300713731E+03  0.12509000000E+03 0.  0.
<mgrwt>
<rscale>  2 0.45691813E+03</rscale>
<asrwt>0</asrwt>
<pdfrwt beam="1">  1       21 0.49221569E-02 0.45691813E+03</pdfrwt>
<pdfrwt beam="2">  1       21 0.22932084E+00 0.45691813E+03</pdfrwt>
<totfact> 0.21273159E+04</totfact>
</mgrwt>
</event>
<event>
 7    0  0.4709932E-002  0.4512740E+03  0.7546771E-02  0.1027343E+00
         21   -1    0    0  502  501  0.00000000000E+00  0.00000000000E+00  0.13537741527E+03  0.13537741527E+03  0.00000000000E+00 0. -1.
         21   -1    0    0  501  502 -0.00000000000E+00 -0.00000000000E+00 -0.37607495246E+03  0.37607495246E+03  0.00000000000E+00 0. -1.
      99926    2    1    2    0    0 -0.14210854715E-13  0.00000000000E+00 -0.24069753719E+03  0.51145236774E+03  0.45127399665E+03 0.  0.
      99925    2    3    3    0    0  0.69167776467E+02 -0.44650326106E+02 -0.69522904947E+02  0.28401865048E+03  0.26278380198E+03 0.  0.
         25    1    4    4    0    0  0.25759982779E+02  0.54804630428E+01 -0.62426824353E+02  0.14226112852E+03  0.12509000000E+03 0.  0.
         25    1    4    4    0    0  0.43407793688E+02 -0.50130789148E+02 -0.70960805939E+01  0.14175752196E+03  0.12509000000E+03 0.  0.
         25    1    3    3    0    0 -0.69167776467E+02  0.44650326106E+02 -0.17117463224E+03  0.22743371726E+03  0.12509000000E+03 0.  0.
<mgrwt>
<rscale>  2 0.45127400E+03</rscale>
<asrwt>0</asrwt>
<pdfrwt beam="1">  1       21 0.19908444E-01 0.45127400E+03</pdfrwt>
<pdfrwt beam="2">  1       21 0.55305140E-01 0.45127400E+03</pdfrwt>
<totfact> 0.66415475E+04</totfact>
</mgrwt>
</event>
<event>
 7    0  0.4709932E-002  0.4558922E+03  0.7546771E-02  0.1025979E+00
         21   -1    0    0  502  501  0.00000000000E+00  0.00000000000E+00  0.24703059171E+03  0.24703059171E+03  0.00000000000E+00 0.  1.
         21   -1    0    0  501  502 -0.00000000000E+00 -0.00000000000E+00 -0.21033596397E+03  0.21033596397E+03  0.00000000000E+00 0.  1.
      99926    2    1    2    0    0  0.00000000000E+00  0.00000000000E+00  0.36694627735E+02  0.45736655568E+03  0.45589216987E+03 0.  0.
      99925    2    3    3    0    0  0.58015471575E+01 -0.10793730996E+03 -0.13872454644E+02  0.28448318820E+03  0.26278150342E+03 0.  0.
         25    1    4    4    0    0 -0.16473274805E+02 -0.35488926469E+02 -0.37500397739E+02  0.13632542175E+03  0.12509000000E+03 0.  0.
         25    1    4    4    0    0  0.22274821963E+02 -0.72448383491E+02  0.23627943096E+02  0.14815776645E+03  0.12509000000E+03 0.  0.
         25    1    3    3    0    0 -0.58015471575E+01  0.10793730996E+03  0.50567082379E+02  0.17288336748E+03  0.12509000000E+03 0.  0.
<mgrwt>
<rscale>  2 0.45589217E+03</rscale>
<asrwt>0</asrwt>
<pdfrwt beam="1">  1       21 0.36328028E-01 0.45589217E+03</pdfrwt>
<pdfrwt beam="2">  1       21 0.30931759E-01 0.45589217E+03</pdfrwt>
<totfact> 0.67888258E+04</totfact>
</mgrwt>
</event>
<event>
 7    0  0.4709932E-002  0.4556762E+03  0.7546771E-02  0.1026043E+00
         21   -1    0    0  502  501  0.00000000000E+00  0.00000000000E+00  0.97663322946E+02  0.97663322946E+02  0.00000000000E+00 0.  1.
         21   -1    0    0  501  502 -0.00000000000E+00 -0.00000000000E+00 -0.53152191291E+03  0.53152191291E+03  0.00000000000E+00 0.  1.
      99926    2    1    2    0    0  0.00000000000E+00 -0.71054273576E-14 -0.43385858997E+03  0.62918523586E+03  0.45567618430E+03 0.  0.
      99925    2    3    3    0    0 -0.40927711361E+02 -0.44823618763E+02 -0.13970237619E+03  0.30382448138E+03  0.26288462719E+03 0.  0.
         25    1    4    4    0    0  0.60907471495E+01 -0.48224363722E+02 -0.51890723934E+02  0.14388482126E+03  0.12509000000E+03 0.  0.
         25    1    3    3    0    0  0.40927711361E+02  0.44823618763E+02 -0.29415621377E+03  0.32536075448E+03  0.12509000000E+03 0.  0.
         25    1    4    4    0    0 -0.47018458510E+02  0.34007449589E+01 -0.87811652260E+02  0.15993966012E+03  0.12509000000E+03 0.  0.
<mgrwt>
<rscale>  2 0.45567618E+03</rscale>
<asrwt>0</asrwt>
<pdfrwt beam="1">  1       21 0.14362253E-01 0.45567618E+03</pdfrwt>
<pdfrwt beam="2">  1       21 0.78164989E-01 0.45567618E+03</pdfrwt>
<totfact> 0.56614046E+04</totfact>
</mgrwt>
</event>
<event>
 7    0  0.4709932E-002  0.4640383E+03  0.7546771E-02  0.1023616E+00
         21   -1    0    0  502  501  0.00000000000E+00  0.00000000000E+00  0.11558828079E+03  0.11558828079E+03  0.00000000000E+00 0. -1.
         21   -1    0    0  501  502 -0.00000000000E+00 -0.00000000000E+00 -0.46572966372E+03  0.46572966372E+03  0.00000000000E+00 0. -1.
      99926    2    1    2    0    0  0.14210854715E-13  0.00000000000E+00 -0.35014138293E+03  0.58131794451E+03  0.46403832231E+03 0.  0.
      99925    2    3    3    0    0  0.78602955060E+02 -0.54326948307E+02 -0.12464570692E+03  0.30631676296E+03  0.26298966740E+03 0.  0.
         25    1    4    4    0    0  0.57759136899E+02 -0.59246539451E+02 -0.45412926655E+02  0.15670390021E+03  0.12509000000E+03 0.  0.
         25    1    3    3    0    0 -0.78602955060E+02  0.54326948307E+02 -0.22549567602E+03  0.27500118156E+03  0.12509000000E+03 0.  0.
         25    1    4    4    0    0  0.20843818161E+02  0.49195911441E+01 -0.79232780261E+02  0.14961286275E+03  0.12509000000E+03 0.  0.
<mgrwt>
<rscale>  2 0.46403832E+03</rscale>
<asrwt>0</asrwt>
<pdfrwt beam="1">  1       21 0.16998276E-01 0.46403832E+03</pdfrwt>
<pdfrwt beam="2">  1       21 0.68489657E-01 0.46403832E+03</pdfrwt>
<totfact> 0.55751439E+04</totfact>
</mgrwt>
</event>
<event>
 7    0  0.4709932E-002  0.4302920E+03  0.7546771E-02  0.1033768E+00
         21   -1    0    0  502  501  0.00000000000E+00  0.00000000000E+00  0.79500878214E+03  0.79500878214E+03  0.00000000000E+00 0. -1.
         21   -1    0    0  501  502 -0.00000000000E+00 -0.00000000000E+00 -0.58223018297E+02  0.58223018297E+02  0.00000000000E+00 0. -1.
      99926    2    1    2    0    0  0.71054273576E-14  0.00000000000E+00  0.73678576385E+03  0.85323180044E+03  0.43029204440E+03 0.  0.
      99925    2    3    3    0    0 -0.58109736956E+02 -0.22236370801E+02  0.35143509458E+03  0.44333688205E+03  0.26300145925E+03 0.  0.
         25    1    4    4    0    0 -0.18164078885E+02 -0.13699565853E+02  0.10890585255E+03  0.16740849645E+03  0.12509000000E+03 0.  0.
         25    1    3    3    0    0  0.58109736956E+02  0.22236370801E+02  0.38535066927E+03  0.40989491839E+03  0.12509000000E+03 0.  0.
         25    1    4    4    0    0 -0.39945658070E+02 -0.85368049477E+01  0.24252924203E+03  0.27592838560E+03  0.12509000000E+03 0.  0.
<mgrwt>
<rscale>  2 0.43029204E+03</rscale>
<asrwt>0</asrwt>
<pdfrwt beam="1">  1       21 0.11691305E+00 0.43029204E+03</pdfrwt>
<pdfrwt beam="2">  1       21 0.85622091E-02 0.43029204E+03</pdfrwt>
<totfact> 0.55247102E+04</totfact>
</mgrwt>
</event>
<event>
 7    0  0.4709932E-002  0.4526096E+03  0.7546771E-02  0.1026947E+00
         21   -1    0    0  502  501  0.00000000000E+00  0.00000000000E+00  0.21269852378E+04  0.21269852378E+04  0.00000000000E+00 0.  1.
         21   -1    0    0  501  502 -0.00000000000E+00 -0.00000000000E+00 -0.24078148973E+02  0.24078148973E+02  0.00000000000E+00 0.  1.
      99926    2    1    2    0    0 -0.14210854715E-13  0.00000000000E+00  0.21029070889E+04  0.21510633868E+04  0.45260962173E+03 0.  0.
      99925    2    3    3    0    0 -0.65609193683E+02  0.30654781782E+02  0.17252975872E+04  0.17467358886E+04  0.26304033582E+03 0.  0.
         25    1    4    4    0    0 -0.67537929989E+02  0.39098683291E+02  0.93424889430E+03  0.94581107185E+03  0.12509000000E+03 0.  0.
         25    1    3    3    0    0  0.65609193683E+02 -0.30654781782E+02  0.37760950167E+03  0.40432749819E+03  0.12509000000E+03 0.  0.
         25    1    4    4    0    0  0.19287363061E+01 -0.84439015095E+01  0.79104869289E+03  0.80092481677E+03  0.12509000000E+03 0.  0.
<mgrwt>
<rscale>  2 0.45260962E+03</rscale>
<asrwt>0</asrwt>
<pdfrwt beam="1">  1       21 0.31279182E+00 0.45260962E+03</pdfrwt>
<pdfrwt beam="2">  1       21 0.35409057E-02 0.45260962E+03</pdfrwt>
<totfact> 0.11610556E+04</totfact>
</mgrwt>
</event>
<event>
 7    0  0.4709932E-002  0.4710327E+03  0.7546771E-02  0.1021629E+00
         21   -1    0    0  502  501  0.00000000000E+00  0.00000000000E+00  0.42566874037E+03  0.42566874037E+03  0.00000000000E+00 0.  1.
         21   -1    0    0  501  502 -0.00000000000E+00 -0.00000000000E+00 -0.13030779661E+03  0.13030779661E+03  0.00000000000E+00 0.  1.
      99926    2    1    2    0    0  0.00000000000E+00 -0.35527136788E-14  0.29536094376E+03  0.55597653698E+03  0.47103271921E+03 0.  0.
      99925    2    3    3    0    0 -0.11656543777E+03 -0.31685256783E+02  0.23171256116E+03  0.37080072460E+03  0.26307985401E+03 0.  0.
         25    1    3    3    0    0  0.11656543777E+03  0.31685256783E+02  0.63648382605E+02  0.18517581238E+03  0.12509000000E+03 0.  0.
         25    1    4    4    0    0 -0.78357658029E+02 -0.38217287699E+02  0.16190538344E+03  0.22239906685E+03  0.12509000000E+03 0.  0.
         25    1    4    4    0    0 -0.38207779744E+02  0.65320309155E+01  0.69807177716E+02  0.14840165775E+03  0.12509000000E+03 0.  0.
<mgrwt>
<rscale>  2 0.47103272E+03</rscale>
<asrwt>0</asrwt>
<pdfrwt beam="1">  1       21 0.62598344E-01 0.47103272E+03</pdfrwt>
<pdfrwt beam="2">  1       21 0.19162911E-01 0.47103272E+03</pdfrwt>
<totfact> 0.54255131E+04</totfact>
</mgrwt>
</event>
<event>
 7    0  0.4709932E-002  0.4642993E+03  0.7546771E-02  0.1023542E+00
         21   -1    0    0  502  501  0.00000000000E+00  0.00000000000E+00  0.59316471412E+02  0.59316471412E+02  0.00000000000E+00 0.  1.
         21   -1    0    0  501  502 -0.00000000000E+00 -0.00000000000E+00 -0.90857498926E+03  0.90857498926E+03  0.00000000000E+00 0.  1.
      99926    2    1    2    0    0 -0.71054273576E-14  0.00000000000E+00 -0.84925851785E+03  0.96789146068E+03  0.46429931026E+03 0.  0.
      99925    2    3    3    0    0 -0.19752690109E+02 -0.66998174904E+02 -0.32224482955E+03  0.42175058145E+03  0.26296938714E+03 0.  0.
         25    1    3    3    0    0  0.19752690109E+02  0.66998174904E+02 -0.52701368830E+03  0.54614087923E+03  0.12509000000E+03 0.  0.
         25    1    4    4    0    0  0.23087417968E+02 -0.56518613349E+02 -0.17416312227E+03  0.22295220066E+03  0.12509000000E+03 0.  0.
         25    1    4    4    0    0 -0.42840108077E+02 -0.10479561555E+02 -0.14808170728E+03  0.19879838078E+03  0.12509000000E+03 0.  0.
<mgrwt>
<rscale>  2 0.46429931E+03</rscale>
<asrwt>0</asrwt>
<pdfrwt beam="1">  1       21 0.87230109E-02 0.46429931E+03</pdfrwt>
<pdfrwt beam="2">  1       21 0.13361396E+00 0.46429931E+03</pdfrwt>
<totfact> 0.37614568E+04</totfact>
</mgrwt>
</event>
<event>
 7    0  0.4709932E-002  0.4511932E+03  0.7546771E-02  0.1027367E+00
         21   -1    0    0  502  501  0.00000000000E+00  0.00000000000E+00  0.20793965911E+03  0.20793965911E+03  0.00000000000E+00 0.  1.
         21   -1    0    0  501  502 -0.00000000000E+00 -0.00000000000E+00 -0.24475282220E+03  0.24475282220E+03  0.00000000000E+00 0.  1.
      99926    2    1    2    0    0  0.00000000000E+00  0.00000000000E+00 -0.36813163091E+02  0.45269248131E+03  0.45119316668E+03 0.  0.
      99925    2    3    3    0    0  0.65195487289E+02 -0.73870907649E+02 -0.71040231156E+02  0.28982332263E+03  0.26314156140E+03 0.  0.
         25    1    4    4    0    0  0.53632553865E+02 -0.17694652219E+02 -0.65560077612E+02  0.15210254248E+03  0.12509000000E+03 0.  0.
         25    1    4    4    0    0  0.11562933424E+02 -0.56176255430E+02 -0.54801535443E+01  0.13772078015E+03  0.12509000000E+03 0.  0.
         25    1    3    3    0    0 -0.65195487289E+02  0.73870907649E+02  0.34227068065E+02  0.16286915868E+03  0.12509000000E+03 0.  0.
<mgrwt>
<rscale>  2 0.45119317E+03</rscale>
<asrwt>0</asrwt>
<pdfrwt beam="1">  1       21 0.30579362E-01 0.45119317E+03</pdfrwt>
<pdfrwt beam="2">  1       21 0.35993062E-01 0.45119317E+03</pdfrwt>
<totfact> 0.70842614E+04</totfact>
</mgrwt>
</event>
<event>
 7    0  0.4709932E-002  0.4480730E+03  0.7546771E-02  0.1028298E+00
         21   -1    0    0  502  501  0.00000000000E+00  0.00000000000E+00  0.13025045078E+03  0.13025045078E+03  0.00000000000E+00 0.  1.
         21   -1    0    0  501  502 -0.00000000000E+00 -0.00000000000E+00 -0.38535259091E+03  0.38535259091E+03  0.00000000000E+00 0.  1.
      99926    2    1    2    0    0 -0.35527136788E-14  0.00000000000E+00 -0.25510214013E+03  0.51560304169E+03  0.44807297922E+03 0.  0.
      99925    2    3    3    0    0 -0.22836390758E+02 -0.10110366699E+03 -0.18996371829E+03  0.34057740265E+03  0.26298916463E+03 0.  0.
         25    1    3    3    0    0  0.22836390758E+02  0.10110366699E+03 -0.65138421835E+02  0.17502563904E+03  0.12509000000E+03 0.  0.
         25    1    4    4    0    0  0.74899696252E+01 -0.85253648577E+02 -0.11933686010E+03  0.19290691672E+03  0.12509000000E+03 0.  0.
         25    1    4    4    0    0 -0.30326360383E+02 -0.15850018411E+02 -0.70626858190E+02  0.14767048593E+03  0.12509000000E+03 0.  0.
<mgrwt>
<rscale>  2 0.44807298E+03</rscale>
<asrwt>0</asrwt>
<pdfrwt beam="1">  1       21 0.19154478E-01 0.44807298E+03</pdfrwt>
<pdfrwt beam="2">  1       21 0.56669499E-01 0.44807298E+03</pdfrwt>
<totfact> 0.67840205E+04</totfact>
</mgrwt>
</event>
<event>
 7    0  0.4709932E-002  0.4528942E+03  0.7546771E-02  0.1026862E+00
         21   -1    0    0  502  501  0.00000000000E+00  0.00000000000E+00  0.61040733525E+02  0.61040733525E+02  0.00000000000E+00 0.  1.
         21   -1    0    0  501  502 -0.00000000000E+00 -0.00000000000E+00 -0.84006660752E+03  0.84006660752E+03  0.00000000000E+00 0.  1.
      99926    2    1    2    0    0  0.00000000000E+00  0.00000000000E+00 -0.77902587400E+03  0.90110734105E+03  0.45289416836E+03 0.  0.
      99925    2    3    3    0    0  0.31395889525E+02  0.75498643680E+01 -0.70284576415E+03  0.75112861067E+03  0.26298159487E+03 0.  0.
         25    1    3    3    0    0 -0.31395889525E+02 -0.75498643680E+01 -0.76180109843E+02  0.14997873038E+03  0.12509000000E+03 0.  0.
         25    1    4    4    0    0 -0.15528492726E+02  0.15875029638E+02 -0.27712980311E+03  0.30486322593E+03  0.12509000000E+03 0.  0.
         25    1    4    4    0    0  0.46924382251E+02 -0.83251652700E+01 -0.42571596104E+03  0.44626538474E+03  0.12509000000E+03 0.  0.
<mgrwt>
<rscale>  2 0.45289417E+03</rscale>
<asrwt>0</asrwt>
<pdfrwt beam="1">  1       21 0.89765787E-02 0.45289417E+03</pdfrwt>
<pdfrwt beam="2">  1       21 0.12353920E+00 0.45289417E+03</pdfrwt>
<totfact> 0.43905261E+04</totfact>
</mgrwt>
</event>
<event>
 7    0  0.4709932E-002  0.4502644E+03  0.7546771E-02  0.1027643E+00
         21   -1    0    0  502  501  0.00000000000E+00  0.00000000000E+00  0.12077966455E+04  0.12077966455E+04  0.00000000000E+00 0. -1.
         21   -1    0    0  501  502 -0.00000000000E+00 -0.00000000000E+00 -0.41964447294E+02  0.41964447294E+02  0.00000000000E+00 0. -1.
      99926    2    1    2    0    0  0.00000000000E+00  0.00000000000E+00  0.11658321982E+04  0.12497610928E+04  0.45026444973E+03 0.  0.
      99925    2    3    3    0    0 -0.12504297977E+02  0.89128446159E+02  0.56707251713E+03  0.63148857912E+03  0.26288086369E+03 0.  0.
         25    1    4    4    0    0 -0.35706452102E+02  0.20676664682E+02  0.30515019120E+03  0.33236519443E+03  0.12509000000E+03 0.  0.
         25    1    3    3    0    0  0.12504297977E+02 -0.89128446159E+02  0.59875968106E+03  0.61827251366E+03  0.12509000000E+03 0.  0.
         25    1    4    4    0    0  0.23202154124E+02  0.68451781478E+02  0.26192232593E+03  0.29912338468E+03  0.12509000000E+03 0.  0.
<mgrwt>
<rscale>  2 0.45026445E+03</rscale>
<asrwt>0</asrwt>
<pdfrwt beam="1">  1       21 0.17761713E+00 0.45026445E+03</pdfrwt>
<pdfrwt beam="2">  1       21 0.61712430E-02 0.45026445E+03</pdfrwt>
<totfact> 0.31764220E+04</totfact>
</mgrwt>
</event>
<event>
 7    0  0.4709932E-002  0.4548539E+03  0.7546771E-02  0.1026284E+00
         21   -1    0    0  502  501  0.00000000000E+00  0.00000000000E+00  0.60473034309E+03  0.60473034309E+03  0.00000000000E+00 0.  1.
         21   -1    0    0  501  502 -0.00000000000E+00 -0.00000000000E+00 -0.85530702850E+02  0.85530702850E+02  0.00000000000E+00 0.  1.
      99926    2    1    2    0    0  0.00000000000E+00 -0.14210854715E-13  0.51919964024E+03  0.69026104594E+03  0.45485387227E+03 0.  0.
      99925    2    3    3    0    0 -0.16559898921E+02  0.10893317994E+03  0.37168294973E+03  0.46766421302E+03  0.26157395337E+03 0.  0.
         25    1    4    4    0    0  0.87080705186E+01  0.30594708893E+02  0.12887973617E+03  0.18239890679E+03  0.12509000000E+03 0.  0.
         25    1    4    4    0    0 -0.25267969439E+02  0.78338471046E+02  0.24280321356E+03  0.28526530623E+03  0.12509000000E+03 0.  0.
         25    1    3    3    0    0  0.16559898921E+02 -0.10893317994E+03  0.14751669051E+03  0.22259683291E+03  0.12509000000E+03 0.  0.
<mgrwt>
<rscale>  2 0.45485387E+03</rscale>
<asrwt>0</asrwt>
<pdfrwt beam="1">  1       21 0.88930931E-01 0.45485387E+03</pdfrwt>
<pdfrwt beam="2">  1       21 0.12578045E-01 0.45485387E+03</pdfrwt>
<totfact> 0.53496526E+04</totfact>
</mgrwt>
</event>
<event>
 7    0  0.4709932E-002  0.4592401E+03  0.7546771E-02  0.1025002E+00
         21   -1    0    0  502  501  0.00000000000E+00  0.00000000000E+00  0.68517515062E+03  0.68517515062E+03  0.00000000000E+00 0. -1.
         21   -1    0    0  501  502 -0.00000000000E+00 -0.00000000000E+00 -0.76951679654E+02  0.76951679654E+02  0.00000000000E+00 0. -1.
      99926    2    1    2    0    0  0.35527136788E-14  0.14210854715E-13  0.60822347097E+03  0.76212683027E+03  0.45924014937E+03 0.  0.
      99925    2    3    3    0    0 -0.21704859704E+02 -0.78733730193E+02  0.52057438229E+03  0.58892183020E+03  0.26298504403E+03 0.  0.
         25    1    3    3    0    0  0.21704859704E+02  0.78733730193E+02  0.87649088675E+02  0.17320500007E+03  0.12509000000E+03 0.  0.
         25    1    4    4    0    0 -0.50107324503E+02 -0.47200510927E+02  0.28812369560E+03  0.32156088734E+03  0.12509000000E+03 0.  0.
         25    1    4    4    0    0  0.28402464798E+02 -0.31533219266E+02  0.23245068669E+03  0.26736094286E+03  0.12509000000E+03 0.  0.
<mgrwt>
<rscale>  2 0.45924015E+03</rscale>
<asrwt>0</asrwt>
<pdfrwt beam="1">  1       21 0.10076105E+00 0.45924015E+03</pdfrwt>
<pdfrwt beam="2">  1       21 0.11316424E-01 0.45924015E+03</pdfrwt>
<totfact> 0.48031886E+04</totfact>
</mgrwt>
</event>
<event>
 7    0  0.4709932E-002  0.4630137E+03  0.7546771E-02  0.1023911E+00
         21   -1    0    0  502  501  0.00000000000E+00  0.00000000000E+00  0.55841670477E+02  0.55841670477E+02  0.00000000000E+00 0.  1.
         21   -1    0    0  501  502 -0.00000000000E+00 -0.00000000000E+00 -0.95977484195E+03  0.95977484195E+03  0.00000000000E+00 0.  1.
      99926    2    1    2    0    0  0.00000000000E+00  0.00000000000E+00 -0.90393317148E+03  0.10156165124E+04  0.46301373827E+03 0.  0.
      99925    2    3    3    0    0  0.25146502855E+02 -0.36294887756E+02 -0.81080171184E+03  0.85353430379E+03  0.26300518312E+03 0.  0.
         25    1    4    4    0    0  0.16505248819E+02  0.16911500368E+02 -0.32641498841E+03  0.35036077812E+03  0.12509000000E+03 0.  0.
         25    1    3    3    0    0 -0.25146502855E+02  0.36294887756E+02 -0.93131459641E+02  0.16208220864E+03  0.12509000000E+03 0.  0.
         25    1    4    4    0    0  0.86412540361E+01 -0.53206388124E+02 -0.48438672342E+03  0.50317352567E+03  0.12509000000E+03 0.  0.
<mgrwt>
<rscale>  2 0.46301374E+03</rscale>
<asrwt>0</asrwt>
<pdfrwt beam="1">  1       21 0.82120108E-02 0.46301374E+03</pdfrwt>
<pdfrwt beam="2">  1       21 0.14114335E+00 0.46301374E+03</pdfrwt>
<totfact> 0.36243255E+04</totfact>
</mgrwt>
</event>
<event>
 7    0  0.4709932E-002  0.4519848E+03  0.7546771E-02  0.1027132E+00
         21   -1    0    0  502  501  0.00000000000E+00  0.00000000000E+00  0.28692394881E+04  0.28692394881E+04  0.00000000000E+00 0.  1.
         21   -1    0    0  501  502 -0.00000000000E+00 -0.00000000000E+00 -0.17800033140E+02  0.17800033140E+02  0.00000000000E+00 0.  1.
      99926    2    1    2    0    0 -0.71054273576E-14  0.00000000000E+00  0.28514394550E+04  0.28870395213E+04  0.45198476955E+03 0.  0.
      99925    2    3    3    0    0 -0.50293143016E+02  0.64010925133E+02  0.22733825466E+04  0.22900268780E+04  0.26330229787E+03 0.  0.
         25    1    4    4    0    0  0.24641248113E+01  0.62288593068E+02  0.11781840182E+04  0.11864447015E+04  0.12509000000E+03 0.  0.
         25    1    4    4    0    0 -0.52757267827E+02  0.17223320657E+01  0.10951985284E+04  0.11035821766E+04  0.12509000000E+03 0.  0.
         25    1    3    3    0    0  0.50293143016E+02 -0.64010925133E+02  0.57805690837E+03  0.59701264324E+03  0.12509000000E+03 0.  0.
<mgrwt>
<rscale>  2 0.45198477E+03</rscale>
<asrwt>0</asrwt>
<pdfrwt beam="1">  1       21 0.42194666E+00 0.45198477E+03</pdfrwt>
<pdfrwt beam="2">  1       21 0.26176539E-02 0.45198477E+03</pdfrwt>
<totfact> 0.40203193E+03</totfact>
</mgrwt>
</event>
<event>
 7    0  0.4709932E-002  0.4530152E+03  0.7546771E-02  0.1026827E+00
         21   -1    0    0  502  501  0.00000000000E+00  0.00000000000E+00  0.29440473408E+03  0.29440473408E+03  0.00000000000E+00 0.  1.
         21   -1    0    0  501  502 -0.00000000000E+00 -0.00000000000E+00 -0.17426925056E+03  0.17426925056E+03  0.00000000000E+00 0.  1.
      99926    2    1    2    0    0 -0.71054273576E-14 -0.14210854715E-13  0.12013548351E+03  0.46867398464E+03  0.45301519785E+03 0.  0.
      99925    2    3    3    0    0 -0.46534568185E+02 -0.72485569315E+02  0.28268147834E+01  0.27676657036E+03  0.26300593110E+03 0.  0.
         25    1    4    4    0    0 -0.40902492558E+02 -0.19567226903E+02 -0.31135880731E+02  0.13664860568E+03  0.12509000000E+03 0.  0.
         25    1    3    3    0    0  0.46534568185E+02  0.72485569315E+02  0.11730866873E+03  0.19190741428E+03  0.12509000000E+03 0.  0.
         25    1    4    4    0    0 -0.56320756277E+01 -0.52918342412E+02  0.33962695515E+02  0.14011796468E+03  0.12509000000E+03 0.  0.
<mgrwt>
<rscale>  2 0.45301520E+03</rscale>
<asrwt>0</asrwt>
<pdfrwt beam="1">  1       21 0.43294814E-01 0.45301520E+03</pdfrwt>
<pdfrwt beam="2">  1       21 0.25627831E-01 0.45301520E+03</pdfrwt>
<totfact> 0.68608391E+04</totfact>
</mgrwt>
</event>
<event>
 7    0  0.4709932E-002  0.4549540E+03  0.7546771E-02  0.1026255E+00
         21   -1    0    0  502  501  0.00000000000E+00  0.00000000000E+00  0.12157374825E+03  0.12157374825E+03  0.00000000000E+00 0. -1.
         21   -1    0    0  501  502 -0.00000000000E+00 -0.00000000000E+00 -0.42563288281E+03  0.42563288281E+03  0.00000000000E+00 0. -1.
      99926    2    1    2    0    0  0.00000000000E+00 -0.14210854715E-13 -0.30405913457E+03  0.54720663106E+03  0.45495399741E+03 0.  0.
      99925    2    3    3    0    0 -0.71791158979E+02 -0.80988827974E+02 -0.15144883379E+03  0.32214980986E+03  0.26292696699E+03 0.  0.
         25    1    3    3    0    0  0.71791158979E+02  0.80988827974E+02 -0.15261030078E+03  0.22505682120E+03  0.12509000000E+03 0.  0.
         25    1    4    4    0    0 -0.66669429903E+02 -0.67610862106E+02 -0.99712426071E+02  0.18602719578E+03  0.12509000000E+03 0.  0.
         25    1    4    4    0    0 -0.51217290759E+01 -0.13377965868E+02 -0.51736407718E+02  0.13612261408E+03  0.12509000000E+03 0.  0.
<mgrwt>
<rscale>  2 0.45495400E+03</rscale>
<asrwt>0</asrwt>
<pdfrwt beam="1">  1       21 0.17878493E-01 0.45495400E+03</pdfrwt>
<pdfrwt beam="2">  1       21 0.62593070E-01 0.45495400E+03</pdfrwt>
<totfact> 0.62074070E+04</totfact>
</mgrwt>
</event>
<event>
 7    0  0.4709932E-002  0.4521283E+03  0.7546771E-02  0.1027089E+00
         21   -1    0    0  502  501  0.00000000000E+00  0.00000000000E+00  0.13434314299E+03  0.13434314299E+03  0.00000000000E+00 0.  1.
         21   -1    0    0  501  502 -0.00000000000E+00 -0.00000000000E+00 -0.38040641843E+03  0.38040641843E+03  0.00000000000E+00 0.  1.
      99926    2    1    2    0    0  0.14210854715E-13 -0.35527136788E-14 -0.24606327544E+03  0.51474956143E+03  0.45212827325E+03 0.  0.
      99925    2    3    3    0    0 -0.10364399939E+03  0.18353183828E+02 -0.11702636556E+03  0.30647822356E+03  0.26297302773E+03 0.  0.
         25    1    4    4    0    0 -0.15971398921E+02  0.50978047256E+01 -0.28349950559E+02  0.12935339575E+03  0.12509000000E+03 0.  0.
         25    1    4    4    0    0 -0.87672600466E+02  0.13255379102E+02 -0.88676415005E+02  0.17712482781E+03  0.12509000000E+03 0.  0.
         25    1    3    3    0    0  0.10364399939E+03 -0.18353183828E+02 -0.12903690988E+03  0.20827133786E+03  0.12509000000E+03 0.  0.
<mgrwt>
<rscale>  2 0.45212827E+03</rscale>
<asrwt>0</asrwt>
<pdfrwt beam="1">  1       21 0.19756345E-01 0.45212827E+03</pdfrwt>
<pdfrwt beam="2">  1       21 0.55942119E-01 0.45212827E+03</pdfrwt>
<totfact> 0.65731455E+04</totfact>
</mgrwt>
</event>
<event>
 7    0  0.4709932E-002  0.4408968E+03  0.7546771E-02  0.1030472E+00
         21   -1    0    0  502  501  0.00000000000E+00  0.00000000000E+00  0.14728776070E+03  0.14728776070E+03  0.00000000000E+00 0. -1.
         21   -1    0    0  501  502 -0.00000000000E+00 -0.00000000000E+00 -0.32994931751E+03  0.32994931751E+03  0.00000000000E+00 0. -1.
      99926    2    1    2    0    0 -0.71054273576E-14  0.35527136788E-14 -0.18266155681E+03  0.47723707821E+03  0.44089679572E+03 0.  0.
      99925    2    3    3    0    0 -0.38916445299E+02  0.24612888068E+02 -0.21184069190E+02  0.26785042371E+03  0.26301102776E+03 0.  0.
         25    1    3    3    0    0  0.38916445299E+02 -0.24612888068E+02 -0.16147748762E+03  0.20938665450E+03  0.12509000000E+03 0.  0.
         25    1    4    4    0    0  0.19025843373E+02  0.24434434507E+02 -0.40316329516E+01  0.12892938560E+03  0.12509000000E+03 0.  0.
         25    1    4    4    0    0 -0.57942288671E+02  0.17845356120E+00 -0.17152436239E+02  0.13892103812E+03  0.12509000000E+03 0.  0.
<mgrwt>
<rscale>  2 0.44089680E+03</rscale>
<asrwt>0</asrwt>
<pdfrwt beam="1">  1       21 0.21659965E-01 0.44089680E+03</pdfrwt>
<pdfrwt beam="2">  1       21 0.48521958E-01 0.44089680E+03</pdfrwt>
<totfact> 0.74947577E+04</totfact>
</mgrwt>
</event>
<event>
 7    0  0.4709932E-002  0.4558190E+03  0.7546771E-02  0.1026001E+00
         21   -1    0    0  502  501  0.00000000000E+00  0.00000000000E+00  0.80999362246E+02  0.80999362246E+02  0.00000000000E+00 0.  1.
         21   -1    0    0  501  502 -0.00000000000E+00 -0.00000000000E+00 -0.64127352119E+03  0.64127352119E+03  0.00000000000E+00 0.  1.
      99926    2    1    2    0    0  0.00000000000E+00  0.35527136788E-14 -0.56027415894E+03  0.72227288343E+03  0.45581902655E+03 0.  0.
      99925    2    3    3    0    0 -0.10646002780E+03  0.31292140477E+02 -0.39163909849E+03  0.48478977395E+03  0.26330022006E+03 0.  0.
         25    1    4    4    0    0 -0.33187559032E+02  0.51430770711E+02 -0.18447440014E+03  0.23113816357E+03  0.12509000000E+03 0.  0.
         25    1    3    3    0    0  0.10646002780E+03 -0.31292140477E+02 -0.16863506045E+03  0.23748310948E+03  0.12509000000E+03 0.  0.
         25    1    4    4    0    0 -0.73272468773E+02 -0.20138630235E+02 -0.20716469835E+03  0.25365161038E+03  0.12509000000E+03 0.  0.
<mgrwt>
<rscale>  2 0.45581903E+03</rscale>
<asrwt>0</asrwt>
<pdfrwt beam="1">  1       21 0.11911672E-01 0.45581903E+03</pdfrwt>
<pdfrwt beam="2">  1       21 0.94304924E-01 0.45581903E+03</pdfrwt>
<totfact> 0.51378588E+04</totfact>
</mgrwt>
</event>
<event>
 7    0  0.4709932E-002  0.4530629E+03  0.7546771E-02  0.1026813E+00
         21   -1    0    0  502  501  0.00000000000E+00  0.00000000000E+00  0.96125531692E+02  0.96125531692E+02  0.00000000000E+00 0.  1.
         21   -1    0    0  501  502 -0.00000000000E+00 -0.00000000000E+00 -0.53384876319E+03  0.53384876319E+03  0.00000000000E+00 0.  1.
      99926    2    1    2    0    0 -0.88817841970E-15 -0.14210854715E-13 -0.43772323150E+03  0.62997429489E+03  0.45306289279E+03 0.  0.
      99925    2    3    3    0    0  0.24177073568E+01 -0.97201197065E+02 -0.20075347934E+03  0.34491975702E+03  0.26308508375E+03 0.  0.
         25    1    4    4    0    0 -0.34056740283E+02 -0.48882737892E+02 -0.12519757620E+03  0.18673865376E+03  0.12509000000E+03 0.  0.
         25    1    4    4    0    0  0.36474447639E+02 -0.48318459174E+02 -0.75555903134E+02  0.15818110325E+03  0.12509000000E+03 0.  0.
         25    1    3    3    0    0 -0.24177073568E+01  0.97201197065E+02 -0.23696975216E+03  0.28505453787E+03  0.12509000000E+03 0.  0.
<mgrwt>
<rscale>  2 0.45306289E+03</rscale>
<asrwt>0</asrwt>
<pdfrwt beam="1">  1       21 0.14136107E-01 0.45306289E+03</pdfrwt>
<pdfrwt beam="2">  1       21 0.78507172E-01 0.45306289E+03</pdfrwt>
<totfact> 0.57748181E+04</totfact>
</mgrwt>
</event>
<event>
 7    0  0.4709932E-002  0.4627409E+03  0.7546771E-02  0.1023989E+00
         21   -1    0    0  502  501  0.00000000000E+00  0.00000000000E+00  0.52038034429E+03  0.52038034429E+03  0.00000000000E+00 0.  1.
         21   -1    0    0  501  502 -0.00000000000E+00 -0.00000000000E+00 -0.10287144153E+03  0.10287144153E+03  0.00000000000E+00 0.  1.
      99926    2    1    2    0    0  0.14210854715E-13 -0.12212453271E-14  0.41750890276E+03  0.62325178581E+03  0.46274086121E+03 0.  0.
      99925    2    3    3    0    0  0.11716948257E+03 -0.71188583326E+00  0.22449789057E+03  0.36512400088E+03  0.26303429191E+03 0.  0.
         25    1    4    4    0    0  0.60613908994E+02  0.40185007112E+02  0.11098065321E+03  0.18235430965E+03  0.12509000000E+03 0.  0.
         25    1    4    4    0    0  0.56555573580E+02 -0.40896892945E+02  0.11351723737E+03  0.18276969124E+03  0.12509000000E+03 0.  0.
         25    1    3    3    0    0 -0.11716948257E+03  0.71188583326E+00  0.19301101219E+03  0.25812778493E+03  0.12509000000E+03 0.  0.
<mgrwt>
<rscale>  2 0.46274086E+03</rscale>
<asrwt>0</asrwt>
<pdfrwt beam="1">  1       21 0.76526520E-01 0.46274086E+03</pdfrwt>
<pdfrwt beam="2">  1       21 0.15128153E-01 0.46274086E+03</pdfrwt>
<totfact> 0.53898641E+04</totfact>
</mgrwt>
</event>
<event>
 7    0  0.4709932E-002  0.4541729E+03  0.7546771E-02  0.1026485E+00
         21   -1    0    0  502  501  0.00000000000E+00  0.00000000000E+00  0.22352941622E+03  0.22352941622E+03  0.00000000000E+00 0. -1.
         21   -1    0    0  501  502 -0.00000000000E+00 -0.00000000000E+00 -0.23070007712E+03  0.23070007712E+03  0.00000000000E+00 0. -1.
      99926    2    1    2    0    0  0.17763568394E-14  0.00000000000E+00 -0.71706608929E+01  0.45422949334E+03  0.45417289025E+03 0.  0.
      99925    2    3    3    0    0 -0.10972772096E+02 -0.85742602112E+02 -0.76306688447E+02  0.28719807728E+03  0.26303579480E+03 0.  0.
         25    1    4    4    0    0 -0.28516563050E+02 -0.54663540372E+02 -0.65958264236E+01  0.13961486325E+03  0.12509000000E+03 0.  0.
         25    1    4    4    0    0  0.17543790954E+02 -0.31079061740E+02 -0.69710862024E+02  0.14758321403E+03  0.12509000000E+03 0.  0.
         25    1    3    3    0    0  0.10972772096E+02  0.85742602112E+02  0.69136027554E+02  0.16703141606E+03  0.12509000000E+03 0.  0.
<mgrwt>
<rscale>  2 0.45417289E+03</rscale>
<asrwt>0</asrwt>
<pdfrwt beam="1">  1       21 0.32871973E-01 0.45417289E+03</pdfrwt>
<pdfrwt beam="2">  1       21 0.33926482E-01 0.45417289E+03</pdfrwt>
<totfact> 0.69056891E+04</totfact>
</mgrwt>
</event>
<event>
 7    0  0.4709932E-002  0.4466476E+03  0.7546771E-02  0.1028726E+00
         21   -1    0    0  502  501  0.00000000000E+00  0.00000000000E+00  0.19515096858E+03  0.19515096858E+03  0.00000000000E+00 0.  1.
         21   -1    0    0  501  502 -0.00000000000E+00 -0.00000000000E+00 -0.25556382413E+03  0.25556382413E+03  0.00000000000E+00 0.  1.
      99926    2    1    2    0    0  0.00000000000E+00  0.14210854715E-13 -0.60412855543E+02  0.45071479271E+03  0.44664763657E+03 0.  0.
      99925    2    3    3    0    0  0.40180162772E+01 -0.70466168444E+02  0.40312145767E+02  0.27528771573E+03  0.26301450908E+03 0.  0.
         25    1    4    4    0    0 -0.27652124219E+01 -0.74001791253E+02  0.66341243041E+01  0.14551780377E+03  0.12509000000E+03 0.  0.
         25    1    4    4    0    0  0.67832286992E+01  0.35356228089E+01  0.33678021463E+02  0.12976991196E+03  0.12509000000E+03 0.  0.
         25    1    3    3    0    0 -0.40180162772E+01  0.70466168444E+02 -0.10072500131E+03  0.17542707698E+03  0.12509000000E+03 0.  0.
<mgrwt>
<rscale>  2 0.44664764E+03</rscale>
<asrwt>0</asrwt>
<pdfrwt beam="1">  1       21 0.28698672E-01 0.44664764E+03</pdfrwt>
<pdfrwt beam="2">  1       21 0.37582915E-01 0.44664764E+03</pdfrwt>
<totfact> 0.73647231E+04</totfact>
</mgrwt>
</event>
<event>
 7    0  0.4709932E-002  0.4526000E+03  0.7546771E-02  0.1026950E+00
         21   -1    0    0  502  501  0.00000000000E+00  0.00000000000E+00  0.11424128027E+03  0.11424128027E+03  0.00000000000E+00 0. -1.
         21   -1    0    0  501  502 -0.00000000000E+00 -0.00000000000E+00 -0.44827665192E+03  0.44827665192E+03  0.00000000000E+00 0. -1.
      99926    2    1    2    0    0  0.00000000000E+00  0.00000000000E+00 -0.33403537164E+03  0.56251793219E+03  0.45260003814E+03 0.  0.
      99925    2    3    3    0    0 -0.10133295288E+03 -0.44806722321E+02 -0.20471057971E+03  0.35121620571E+03  0.26300264638E+03 0.  0.
         25    1    4    4    0    0 -0.36433295009E+02 -0.22800553955E+02 -0.14591523803E+03  0.19694165388E+03  0.12509000000E+03 0.  0.
         25    1    3    3    0    0  0.10133295288E+03  0.44806722321E+02 -0.12932479193E+03  0.21130172648E+03  0.12509000000E+03 0.  0.
         25    1    4    4    0    0 -0.64899657867E+02 -0.22006168366E+02 -0.58795341683E+02  0.15427455183E+03  0.12509000000E+03 0.  0.
<mgrwt>
<rscale>  2 0.45260004E+03</rscale>
<asrwt>0</asrwt>
<pdfrwt beam="1">  1       21 0.16800188E-01 0.45260004E+03</pdfrwt>
<pdfrwt beam="2">  1       21 0.65923037E-01 0.45260004E+03</pdfrwt>
<totfact> 0.62219489E+04</totfact>
</mgrwt>
</event>
<event>
 7    0  0.4709932E-002  0.4557649E+03  0.7546771E-02  0.1026017E+00
         21   -1    0    0  502  501  0.00000000000E+00  0.00000000000E+00  0.10244252430E+03  0.10244252430E+03  0.00000000000E+00 0.  1.
         21   -1    0    0  501  502 -0.00000000000E+00 -0.00000000000E+00 -0.50692245892E+03  0.50692245892E+03  0.00000000000E+00 0.  1.
      99926    2    1    2    0    0 -0.14210854715E-13  0.00000000000E+00 -0.40447993462E+03  0.60936498322E+03  0.45576492325E+03 0.  0.
      99925    2    3    3    0    0 -0.10127886664E+03  0.42764134655E+02 -0.21400863777E+03  0.35635707215E+03  0.26287732081E+03 0.  0.
         25    1    4    4    0    0 -0.81927408145E+02  0.13243534026E+02 -0.14708677531E+03  0.21016545617E+03  0.12509000000E+03 0.  0.
         25    1    4    4    0    0 -0.19351458490E+02  0.29520600628E+02 -0.66921862467E+02  0.14619161598E+03  0.12509000000E+03 0.  0.
         25    1    3    3    0    0  0.10127886664E+03 -0.42764134655E+02 -0.19047129685E+03  0.25300791107E+03  0.12509000000E+03 0.  0.
<mgrwt>
<rscale>  2 0.45576492E+03</rscale>
<asrwt>0</asrwt>
<pdfrwt beam="1">  1       21 0.15065077E-01 0.45576492E+03</pdfrwt>
<pdfrwt beam="2">  1       21 0.74547419E-01 0.45576492E+03</pdfrwt>
<totfact> 0.57755738E+04</totfact>
</mgrwt>
</event>
<event>
 7    0  0.4709932E-002  0.4564900E+03  0.7546771E-02  0.1025804E+00
         21   -1    0    0  502  501  0.00000000000E+00  0.00000000000E+00  0.27847996229E+03  0.27847996229E+03  0.00000000000E+00 0.  1.
         21   -1    0    0  501  502 -0.00000000000E+00 -0.00000000000E+00 -0.18707190920E+03  0.18707190920E+03  0.00000000000E+00 0.  1.
      99926    2    1    2    0    0 -0.17763568394E-14  0.00000000000E+00  0.91408053085E+02  0.46555187149E+03  0.45648999209E+03 0.  0.
      99925    2    3    3    0    0 -0.82143656981E+01 -0.10727102669E+03  0.17579197341E+02  0.28479580102E+03  0.26310657751E+03 0.  0.
         25    1    4    4    0    0 -0.20183313860E+02 -0.22560438464E+02 -0.15648210893E+02  0.12964842516E+03  0.12509000000E+03 0.  0.
         25    1    4    4    0    0  0.11968948162E+02 -0.84710588225E+02  0.33227408234E+02  0.15514737586E+03  0.12509000000E+03 0.  0.
         25    1    3    3    0    0  0.82143656981E+01  0.10727102669E+03  0.73828855743E+02  0.18075607047E+03  0.12509000000E+03 0.  0.
<mgrwt>
<rscale>  2 0.45648999E+03</rscale>
<asrwt>0</asrwt>
<pdfrwt beam="1">  1       21 0.40952936E-01 0.45648999E+03</pdfrwt>
<pdfrwt beam="2">  1       21 0.27510575E-01 0.45648999E+03</pdfrwt>
<totfact> 0.66972530E+04</totfact>
</mgrwt>
</event>
<event>
 7    0  0.4709932E-002  0.4532902E+03  0.7546771E-02  0.1026745E+00
         21   -1    0    0  502  501  0.00000000000E+00  0.00000000000E+00  0.18616394948E+03  0.18616394948E+03  0.00000000000E+00 0.  1.
         21   -1    0    0  501  502 -0.00000000000E+00 -0.00000000000E+00 -0.27592879462E+03  0.27592879462E+03  0.00000000000E+00 0.  1.
      99926    2    1    2    0    0  0.00000000000E+00 -0.71054273576E-14 -0.89764845145E+02  0.46209274410E+03  0.45329016835E+03 0.  0.
      99925    2    3    3    0    0  0.63892074231E+02 -0.57735751262E+02  0.15883574573E+02  0.27709352569E+03  0.26289336225E+03 0.  0.
         25    1    4    4    0    0  0.59646331203E+01  0.34250226905E+00 -0.85515109829E+01  0.12552422314E+03  0.12509000000E+03 0.  0.
         25    1    3    3    0    0 -0.63892074231E+02  0.57735751262E+02 -0.10564841972E+03  0.18499921841E+03  0.12509000000E+03 0.  0.
         25    1    4    4    0    0  0.57927441111E+02 -0.58078253531E+02  0.24435085556E+02  0.15156930254E+03  0.12509000000E+03 0.  0.
<mgrwt>
<rscale>  2 0.45329017E+03</rscale>
<asrwt>0</asrwt>
<pdfrwt beam="1">  1       21 0.27377052E-01 0.45329017E+03</pdfrwt>
<pdfrwt beam="2">  1       21 0.40577764E-01 0.45329017E+03</pdfrwt>
<totfact> 0.68959104E+04</totfact>
</mgrwt>
</event>
<event>
 7    0  0.4709932E-002  0.4361823E+03  0.7546771E-02  0.1031925E+00
         21   -1    0    0  502  501  0.00000000000E+00  0.00000000000E+00  0.81120972635E+02  0.81120972635E+02  0.00000000000E+00 0. -1.
         21   -1    0    0  501  502 -0.00000000000E+00 -0.00000000000E+00 -0.58633115789E+03  0.58633115789E+03  0.00000000000E+00 0. -1.
      99926    2    1    2    0    0  0.00000000000E+00 -0.71054273576E-14 -0.50521018525E+03  0.66745213052E+03  0.43618231883E+03 0.  0.
      99925    2    3    3    0    0 -0.52579957212E+02  0.58905748550E+02 -0.40291793004E+03  0.48760288062E+03  0.26301933718E+03 0.  0.
         25    1    4    4    0    0 -0.19751520472E+02  0.35368846678E+02 -0.27182796437E+03  0.30195865312E+03  0.12509000000E+03 0.  0.
         25    1    3    3    0    0  0.52579957212E+02 -0.58905748550E+02 -0.10229225521E+03  0.17984924990E+03  0.12509000000E+03 0.  0.
         25    1    4    4    0    0 -0.32828436740E+02  0.23536901872E+02 -0.13108996567E+03  0.18564422751E+03  0.12509000000E+03 0.  0.
<mgrwt>
<rscale>  2 0.43618232E+03</rscale>
<asrwt>0</asrwt>
<pdfrwt beam="1">  1       21 0.11929555E-01 0.43618232E+03</pdfrwt>
<pdfrwt beam="2">  1       21 0.86225168E-01 0.43618232E+03</pdfrwt>
<totfact> 0.63626372E+04</totfact>
</mgrwt>
</event>
<event>
 7    0  0.4709932E-002  0.4593684E+03  0.7546771E-02  0.1024965E+00
         21   -1    0    0  502  501  0.00000000000E+00  0.00000000000E+00  0.49075724732E+02  0.49075724732E+02  0.00000000000E+00 0.  1.
         21   -1    0    0  501  502 -0.00000000000E+00 -0.00000000000E+00 -0.10749681434E+04  0.10749681434E+04  0.00000000000E+00 0.  1.
      99926    2    1    2    0    0 -0.71054273576E-14  0.00000000000E+00 -0.10258924187E+04  0.11240438681E+04  0.45936843906E+03 0.  0.
      99925    2    3    3    0    0  0.47181747155E+02 -0.10336390733E+03 -0.57254441574E+03  0.64022351463E+03  0.26299966937E+03 0.  0.
         25    1    3    3    0    0 -0.47181747155E+02  0.10336390733E+03 -0.45334800292E+03  0.48382035349E+03  0.12509000000E+03 0.  0.
         25    1    4    4    0    0  0.94353311026E+01 -0.27682693875E+02 -0.33459124657E+03  0.35840503260E+03  0.12509000000E+03 0.  0.
         25    1    4    4    0    0  0.37746416052E+02 -0.75681213452E+02 -0.23795316917E+03  0.28181848202E+03  0.12509000000E+03 0.  0.
<mgrwt>
<rscale>  2 0.45936844E+03</rscale>
<asrwt>0</asrwt>
<pdfrwt beam="1">  1       21 0.72170184E-02 0.45936844E+03</pdfrwt>
<pdfrwt beam="2">  1       21 0.15808355E+00 0.45936844E+03</pdfrwt>
<totfact> 0.33505226E+04</totfact>
</mgrwt>
</event>
<event>
 7    0  0.4709932E-002  0.4713479E+03  0.7546771E-02  0.1021540E+00
         21   -1    0    0  502  501  0.00000000000E+00  0.00000000000E+00  0.36958724295E+02  0.36958724295E+02  0.00000000000E+00 0.  1.
         21   -1    0    0  501  502 -0.00000000000E+00 -0.00000000000E+00 -0.15028174328E+04  0.15028174328E+04  0.00000000000E+00 0.  1.
      99926    2    1    2    0    0  0.00000000000E+00  0.00000000000E+00 -0.14658587085E+04  0.15397761571E+04  0.47134791890E+03 0.  0.
      99925    2    3    3    0    0 -0.33554231326E+02  0.74006698493E+02 -0.12319110287E+04  0.12623200293E+04  0.26314291913E+03 0.  0.
         25    1    4    4    0    0 -0.18696227782E+02  0.76903482698E+02 -0.60213814627E+03  0.62006576254E+03  0.12509000000E+03 0.  0.
         25    1    3    3    0    0  0.33554231326E+02 -0.74006698493E+02 -0.23394767979E+03  0.27745612778E+03  0.12509000000E+03 0.  0.
         25    1    4    4    0    0 -0.14858003543E+02 -0.28967842052E+01 -0.62977288242E+03  0.64225426675E+03  0.12509000000E+03 0.  0.
<mgrwt>
<rscale>  2 0.47134792E+03</rscale>
<asrwt>0</asrwt>
<pdfrwt beam="1">  1       21 0.54351069E-02 0.47134792E+03</pdfrwt>
<pdfrwt beam="2">  1       21 0.22100255E+00 0.47134792E+03</pdfrwt>
<totfact> 0.20139936E+04</totfact>
</mgrwt>
</event>
<event>
 7    0  0.4709932E-002  0.4588384E+03  0.7546771E-02  0.1025119E+00
         21   -1    0    0  502  501  0.00000000000E+00  0.00000000000E+00  0.25809587846E+04  0.25809587846E+04  0.00000000000E+00 0.  1.
         21   -1    0    0  501  502 -0.00000000000E+00 -0.00000000000E+00 -0.20392875300E+02  0.20392875300E+02  0.00000000000E+00 0.  1.
      99926    2    1    2    0    0  0.00000000000E+00  0.00000000000E+00  0.25605659093E+04  0.26013516599E+04  0.45883840575E+03 0.  0.
      99925    2    3    3    0    0  0.56992187884E+02 -0.99389540761E+02  0.17321977444E+04  0.17557940244E+04  0.26301566492E+03 0.  0.
         25    1    4    4    0    0  0.23574627488E+02 -0.29137113529E+02  0.59946886783E+03  0.61352682586E+03  0.12509000000E+03 0.  0.
         25    1    3    3    0    0 -0.56992187884E+02  0.99389540761E+02  0.82836816487E+03  0.84555763551E+03  0.12509000000E+03 0.  0.
         25    1    4    4    0    0  0.33417560396E+02 -0.70252427232E+02  0.11327288766E+04  0.11422671985E+04  0.12509000000E+03 0.  0.
<mgrwt>
<rscale>  2 0.45883841E+03</rscale>
<asrwt>0</asrwt>
<pdfrwt beam="1">  1       21 0.37955254E+00 0.45883841E+03</pdfrwt>
<pdfrwt beam="2">  1       21 0.29989540E-02 0.45883841E+03</pdfrwt>
<totfact> 0.59693147E+03</totfact>
</mgrwt>
</event>
<event>
 7    0  0.4709932E-002  0.4627895E+03  0.7546771E-02  0.1023975E+00
         21   -1    0    0  502  501  0.00000000000E+00  0.00000000000E+00  0.65680309564E+03  0.65680309564E+03  0.00000000000E+00 0.  1.
         21   -1    0    0  501  502 -0.00000000000E+00 -0.00000000000E+00 -0.81521435318E+02  0.81521435318E+02  0.00000000000E+00 0.  1.
      99926    2    1    2    0    0  0.00000000000E+00  0.27339241981E-14  0.57528166033E+03  0.73832453096E+03  0.46278950324E+03 0.  0.
      99925    2    3    3    0    0 -0.51338571181E+02  0.62304568513E-01  0.53308759640E+03  0.59667884658E+03  0.26307338853E+03 0.  0.
         25    1    3    3    0    0  0.51338571181E+02 -0.62304568513E-01  0.42194063928E+02  0.14164568438E+03  0.12509000000E+03 0.  0.
         25    1    4    4    0    0 -0.40271938816E+01 -0.34319167827E+02  0.26903332638E+03  0.29869794505E+03  0.12509000000E+03 0.  0.
         25    1    4    4    0    0 -0.47311377299E+02  0.34381472396E+02  0.26405427001E+03  0.29798090153E+03  0.12509000000E+03 0.  0.
<mgrwt>
<rscale>  2 0.46278950E+03</rscale>
<asrwt>0</asrwt>
<pdfrwt beam="1">  1       21 0.96588688E-01 0.46278950E+03</pdfrwt>
<pdfrwt beam="2">  1       21 0.11988447E-01 0.46278950E+03</pdfrwt>
<totfact> 0.47871363E+04</totfact>
</mgrwt>
</event>
<event>
 7    0  0.4709932E-002  0.4477157E+03  0.7546771E-02  0.1028405E+00
         21   -1    0    0  502  501  0.00000000000E+00  0.00000000000E+00  0.85389161400E+03  0.85389161400E+03  0.00000000000E+00 0. -1.
         21   -1    0    0  501  502 -0.00000000000E+00 -0.00000000000E+00 -0.58687008995E+02  0.58687008995E+02  0.00000000000E+00 0. -1.
      99926    2    1    2    0    0  0.00000000000E+00  0.35527136788E-14  0.79520460500E+03  0.91257862299E+03  0.44771573495E+03 0.  0.
      99925    2    3    3    0    0 -0.15664863883E+02 -0.22317914497E+02  0.71279509737E+03  0.76032123461E+03  0.26318824384E+03 0.  0.
         25    1    3    3    0    0  0.15664863883E+02  0.22317914497E+02  0.82409507630E+02  0.15225738838E+03  0.12509000000E+03 0.  0.
         25    1    4    4    0    0 -0.14287630995E+02 -0.24401479214E+02  0.25083825599E+03  0.28172132925E+03  0.12509000000E+03 0.  0.
         25    1    4    4    0    0 -0.13772328876E+01  0.20835647162E+01  0.46195684138E+03  0.47859990536E+03  0.12509000000E+03 0.  0.
<mgrwt>
<rscale>  2 0.44771573E+03</rscale>
<asrwt>0</asrwt>
<pdfrwt beam="1">  1       21 0.12557229E+00 0.44771573E+03</pdfrwt>
<pdfrwt beam="2">  1       21 0.86304430E-02 0.44771573E+03</pdfrwt>
<totfact> 0.45216729E+04</totfact>
</mgrwt>
</event>
<event>
 7    0  0.4709932E-002  0.4587089E+03  0.7546771E-02  0.1025156E+00
         21   -1    0    0  502  501  0.00000000000E+00  0.00000000000E+00  0.36101647129E+03  0.36101647129E+03  0.00000000000E+00 0. -1.
         21   -1    0    0  501  502 -0.00000000000E+00 -0.00000000000E+00 -0.14570928675E+03  0.14570928675E+03  0.00000000000E+00 0. -1.
      99926    2    1    2    0    0  0.00000000000E+00  0.00000000000E+00  0.21530718454E+03  0.50672575804E+03  0.45870885118E+03 0.  0.
      99925    2    3    3    0    0  0.94251862522E+01  0.10871735076E+03  0.17949567013E+03  0.33690741640E+03  0.26340010467E+03 0.  0.
         25    1    3    3    0    0 -0.94251862522E+01 -0.10871735076E+03  0.35811514408E+02  0.16981834164E+03  0.12509000000E+03 0.  0.
         25    1    4    4    0    0  0.20420243709E+02  0.80570114873E+02  0.61429314666E+02  0.16226397802E+03  0.12509000000E+03 0.  0.
         25    1    4    4    0    0 -0.10995057456E+02  0.28147235886E+02  0.11806635546E+03  0.17464343838E+03  0.12509000000E+03 0.  0.
<mgrwt>
<rscale>  2 0.45870885E+03</rscale>
<asrwt>0</asrwt>
<pdfrwt beam="1">  1       21 0.53090658E-01 0.45870885E+03</pdfrwt>
<pdfrwt beam="2">  1       21 0.21427836E-01 0.45870885E+03</pdfrwt>
<totfact> 0.62927694E+04</totfact>
</mgrwt>
</event>
<event>
 7    0  0.4709932E-002  0.4521687E+03  0.7546771E-02  0.1027077E+00
         21   -1    0    0  502  501  0.00000000000E+00  0.00000000000E+00  0.50034138358E+02  0.50034138358E+02  0.00000000000E+00 0.  1.
         21   -1    0    0  501  502 -0.00000000000E+00 -0.00000000000E+00 -0.10215853500E+04  0.10215853500E+04  0.00000000000E+00 0.  1.
      99926    2    1    2    0    0  0.14210854715E-13 -0.35527136788E-14 -0.97155121169E+03  0.10716194884E+04  0.45216874173E+03 0.  0.
      99925    2    3    3    0    0  0.69559877589E+02 -0.30508308549E+02 -0.80318428471E+03  0.84854043591E+03  0.26295730208E+03 0.  0.
         25    1    4    4    0    0  0.48883806395E+02 -0.97981368806E+01 -0.52712020204E+03  0.54404856908E+03  0.12509000000E+03 0.  0.
         25    1    4    4    0    0  0.20676071194E+02 -0.20710171669E+02 -0.27606408266E+03  0.30449186683E+03  0.12509000000E+03 0.  0.
         25    1    3    3    0    0 -0.69559877589E+02  0.30508308549E+02 -0.16836692699E+03  0.22307905250E+03  0.12509000000E+03 0.  0.
<mgrwt>
<rscale>  2 0.45216874E+03</rscale>
<asrwt>0</asrwt>
<pdfrwt beam="1">  1       21 0.73579612E-02 0.45216874E+03</pdfrwt>
<pdfrwt beam="2">  1       21 0.15023315E+00 0.45216874E+03</pdfrwt>
<totfact> 0.37311527E+04</totfact>
</mgrwt>
</event>
<event>
 7    0  0.4709932E-002  0.4559551E+03  0.7546771E-02  0.1025961E+00
         21   -1    0    0  502  501  0.00000000000E+00  0.00000000000E+00  0.56843218353E+03  0.56843218353E+03  0.00000000000E+00 0.  1.
         21   -1    0    0  501  502 -0.00000000000E+00 -0.00000000000E+00 -0.91433551011E+02  0.91433551011E+02  0.00000000000E+00 0.  1.
      99926    2    1    2    0    0  0.00000000000E+00  0.00000000000E+00  0.47699863252E+03  0.65986573454E+03  0.45595514275E+03 0.  0.
      99925    2    3    3    0    0  0.10560732040E+03 -0.38426299528E+02  0.32684196613E+03  0.43442390351E+03  0.26318998936E+03 0.  0.
         25    1    4    4    0    0  0.10591987509E+02 -0.18764190278E+02  0.16301797029E+03  0.20660748238E+03  0.12509000000E+03 0.  0.
         25    1    4    4    0    0  0.95015332894E+02 -0.19662109250E+02  0.16382399584E+03  0.22781642114E+03  0.12509000000E+03 0.  0.
         25    1    3    3    0    0 -0.10560732040E+03  0.38426299528E+02  0.15015666639E+03  0.22544183103E+03  0.12509000000E+03 0.  0.
<mgrwt>
<rscale>  2 0.45595514E+03</rscale>
<asrwt>0</asrwt>
<pdfrwt beam="1">  1       21 0.83592967E-01 0.45595514E+03</pdfrwt>
<pdfrwt beam="2">  1       21 0.13446111E-01 0.45595514E+03</pdfrwt>
<totfact> 0.54722935E+04</totfact>
</mgrwt>
</event>
<event>
 7    0  0.4709932E-002  0.4544855E+03  0.7546771E-02  0.1026393E+00
         21   -1    0    0  502  501  0.00000000000E+00  0.00000000000E+00  0.10781174532E+03  0.10781174532E+03  0.00000000000E+00 0. -1.
         21   -1    0    0  501  502 -0.00000000000E+00 -0.00000000000E+00 -0.47897623694E+03  0.47897623694E+03  0.00000000000E+00 0. -1.
      99926    2    1    2    0    0  0.00000000000E+00  0.00000000000E+00 -0.37116449162E+03  0.58678798227E+03  0.45448548524E+03 0.  0.
      99925    2    3    3    0    0  0.38246361665E+02 -0.71156425767E+02 -0.13229837984E+03  0.30530876711E+03  0.26302958172E+03 0.  0.
         25    1    3    3    0    0 -0.38246361665E+02  0.71156425767E+02 -0.23886611178E+03  0.28147921515E+03  0.12509000000E+03 0.  0.
         25    1    4    4    0    0  0.36561479175E+01 -0.53698100508E+02 -0.10395969943E+03  0.17132419742E+03  0.12509000000E+03 0.  0.
         25    1    4    4    0    0  0.34590213747E+02 -0.17458325259E+02 -0.28338680406E+02  0.13398456969E+03  0.12509000000E+03 0.  0.
<mgrwt>
<rscale>  2 0.45448549E+03</rscale>
<asrwt>0</asrwt>
<pdfrwt beam="1">  1       21 0.15854669E-01 0.45448549E+03</pdfrwt>
<pdfrwt beam="2">  1       21 0.70437681E-01 0.45448549E+03</pdfrwt>
<totfact> 0.59741548E+04</totfact>
</mgrwt>
</event>
<event>
 7    0  0.4709932E-002  0.4576299E+03  0.7546771E-02  0.1025471E+00
         21   -1    0    0  502  501  0.00000000000E+00  0.00000000000E+00  0.23823107184E+03  0.23823107184E+03  0.00000000000E+00 0.  1.
         21   -1    0    0  501  502 -0.00000000000E+00 -0.00000000000E+00 -0.21977103714E+03  0.21977103714E+03  0.00000000000E+00 0.  1.
      99926    2    1    2    0    0  0.00000000000E+00  0.13322676296E-14  0.18460034706E+02  0.45800210898E+03  0.45762993668E+03 0.  0.
      99925    2    3    3    0    0 -0.61245083642E+02  0.25442502752E+01  0.10964881248E+03  0.29150786051E+03  0.26305234685E+03 0.  0.
         25    1    4    4    0    0 -0.36762261143E+02  0.34707491070E+02  0.31410517017E+02  0.13852870627E+03  0.12509000000E+03 0.  0.
         25    1    4    4    0    0 -0.24482822499E+02 -0.32163240795E+02  0.78238295465E+02  0.15297915424E+03  0.12509000000E+03 0.  0.
         25    1    3    3    0    0  0.61245083642E+02 -0.25442502752E+01 -0.91188777776E+02  0.16649424847E+03  0.12509000000E+03 0.  0.
<mgrwt>
<rscale>  2 0.45762994E+03</rscale>
<asrwt>0</asrwt>
<pdfrwt beam="1">  1       21 0.35033981E-01 0.45762994E+03</pdfrwt>
<pdfrwt beam="2">  1       21 0.32319270E-01 0.45762994E+03</pdfrwt>
<totfact> 0.66911309E+04</totfact>
</mgrwt>
</event>
<event>
 7    0  0.4709932E-002  0.4521696E+03  0.7546771E-02  0.1027077E+00
         21   -1    0    0  502  501  0.00000000000E+00  0.00000000000E+00  0.44762973743E+02  0.44762973743E+02  0.00000000000E+00 0.  1.
         21   -1    0    0  501  502 -0.00000000000E+00 -0.00000000000E+00 -0.11418885769E+04  0.11418885769E+04  0.00000000000E+00 0.  1.
      99926    2    1    2    0    0 -0.35527136788E-14  0.00000000000E+00 -0.10971256031E+04  0.11866515506E+04  0.45216956281E+03 0.  0.
      99925    2    3    3    0    0  0.17042170094E+02 -0.10888461011E+03 -0.66613787672E+03  0.72454309766E+03  0.26282453402E+03 0.  0.
         25    1    4    4    0    0  0.21607289730E+02 -0.25992943246E+02 -0.37878123856E+03  0.40033141627E+03  0.12509000000E+03 0.  0.
         25    1    4    4    0    0 -0.45651196354E+01 -0.82891666863E+02 -0.28735663816E+03  0.32421168139E+03  0.12509000000E+03 0.  0.
         25    1    3    3    0    0 -0.17042170094E+02  0.10888461011E+03 -0.43098772639E+03  0.46210845294E+03  0.12509000000E+03 0.  0.
<mgrwt>
<rscale>  2 0.45216956E+03</rscale>
<asrwt>0</asrwt>
<pdfrwt beam="1">  1       21 0.65827915E-02 0.45216956E+03</pdfrwt>
<pdfrwt beam="2">  1       21 0.16792476E+00 0.45216956E+03</pdfrwt>
<totfact> 0.33310421E+04</totfact>
</mgrwt>
</event>
<event>
 7    0  0.4709932E-002  0.4557521E+03  0.7546771E-02  0.1026020E+00
         21   -1    0    0  502  501  0.00000000000E+00  0.00000000000E+00  0.56113381746E+03  0.56113381746E+03  0.00000000000E+00 0.  1.
         21   -1    0    0  501  502 -0.00000000000E+00 -0.00000000000E+00 -0.92540294369E+02  0.92540294369E+02  0.00000000000E+00 0.  1.
      99926    2    1    2    0    0 -0.35527136788E-14  0.00000000000E+00  0.46859352309E+03  0.65367411183E+03  0.45575207580E+03 0.  0.
      99925    2    3    3    0    0 -0.30020622968E+02  0.10931808957E+03  0.27809717978E+03  0.39913914876E+03  0.26291127051E+03 0.  0.
         25    1    3    3    0    0  0.30020622968E+02 -0.10931808957E+03  0.19049634330E+03  0.25453496306E+03  0.12509000000E+03 0.  0.
         25    1    4    4    0    0  0.20673903682E+02  0.71528502822E+02  0.12901431697E+03  0.19451462437E+03  0.12509000000E+03 0.  0.
         25    1    4    4    0    0 -0.50694526650E+02  0.37789586747E+02  0.14908286281E+03  0.20462452439E+03  0.12509000000E+03 0.  0.
<mgrwt>
<rscale>  2 0.45575208E+03</rscale>
<asrwt>0</asrwt>
<pdfrwt beam="1">  1       21 0.82519678E-01 0.45575208E+03</pdfrwt>
<pdfrwt beam="2">  1       21 0.13608867E-01 0.45575208E+03</pdfrwt>
<totfact> 0.55162349E+04</totfact>
</mgrwt>
</event>
<event>
 7    0  0.4709932E-002  0.4687149E+03  0.7546771E-02  0.1022284E+00
         21   -1    0    0  502  501  0.00000000000E+00  0.00000000000E+00  0.84919524483E+03  0.84919524483E+03  0.00000000000E+00 0.  1.
         21   -1    0    0  501  502 -0.00000000000E+00 -0.00000000000E+00 -0.64677005978E+02  0.64677005978E+02  0.00000000000E+00 0.  1.
      99926    2    1    2    0    0  0.00000000000E+00 -0.71054273576E-14  0.78451823885E+03  0.91387225080E+03  0.46871486397E+03 0.  0.
      99925    2    3    3    0    0  0.70199208925E+02 -0.35341741232E+02  0.67887489741E+03  0.73225454435E+03  0.26296125909E+03 0.  0.
         25    1    4    4    0    0  0.16885748911E+02  0.10790926894E+02  0.38238529186E+03  0.40282451781E+03  0.12509000000E+03 0.  0.
         25    1    3    3    0    0 -0.70199208925E+02  0.35341741232E+02  0.10564334144E+03  0.18161770645E+03  0.12509000000E+03 0.  0.
         25    1    4    4    0    0  0.53313460013E+02 -0.46132668126E+02  0.29648960555E+03  0.32943002654E+03  0.12509000000E+03 0.  0.
<mgrwt>
<rscale>  2 0.46871486E+03</rscale>
<asrwt>0</asrwt>
<pdfrwt beam="1">  1       21 0.12488165E+00 0.46871486E+03</pdfrwt>
<pdfrwt beam="2">  1       21 0.95113249E-02 0.46871486E+03</pdfrwt>
<totfact> 0.38352944E+04</totfact>
</mgrwt>
</event>
<event>
 7    0  0.4709932E-002  0.4506296E+03  0.7546771E-02  0.1027534E+00
         21   -1    0    0  502  501  0.00000000000E+00  0.00000000000E+00  0.10343167957E+03  0.10343167957E+03  0.00000000000E+00 0. -1.
         21   -1    0    0  501  502 -0.00000000000E+00 -0.00000000000E+00 -0.49082407119E+03  0.49082407119E+03  0.00000000000E+00 0. -1.
      99926    2    1    2    0    0  0.00000000000E+00  0.00000000000E+00 -0.38739239163E+03  0.59425575076E+03  0.45062959537E+03 0.  0.
      99925    2    3    3    0    0 -0.29348388927E+02 -0.25426345629E+02 -0.37905887775E+03  0.46301253175E+03  0.26303449349E+03 0.  0.
         25    1    4    4    0    0 -0.14999601716E+02 -0.44834056548E+02 -0.23756710898E+03  0.27261826800E+03  0.12509000000E+03 0.  0.
         25    1    4    4    0    0 -0.14348787210E+02  0.19407710919E+02 -0.14149176877E+03  0.19039426375E+03  0.12509000000E+03 0.  0.
         25    1    3    3    0    0  0.29348388927E+02  0.25426345629E+02 -0.83335138753E+01  0.13124321902E+03  0.12509000000E+03 0.  0.
<mgrwt>
<rscale>  2 0.45062960E+03</rscale>
<asrwt>0</asrwt>
<pdfrwt beam="1">  1       21 0.15210541E-01 0.45062960E+03</pdfrwt>
<pdfrwt beam="2">  1       21 0.72180010E-01 0.45062960E+03</pdfrwt>
<totfact> 0.61116824E+04</totfact>
</mgrwt>
</event>
<event>
 7    0  0.4709932E-002  0.4288057E+03  0.7546771E-02  0.1034238E+00
         21   -1    0    0  502  501  0.00000000000E+00  0.00000000000E+00  0.45548087053E+02  0.45548087053E+02  0.00000000000E+00 0.  1.
         21   -1    0    0  501  502 -0.00000000000E+00 -0.00000000000E+00 -0.10092319487E+04  0.10092319487E+04  0.00000000000E+00 0.  1.
      99926    2    1    2    0    0 -0.35527136788E-14  0.00000000000E+00 -0.96368386160E+03  0.10547800357E+04  0.42880571197E+03 0.  0.
      99925    2    3    3    0    0  0.20238784557E+02  0.83552348740E+02 -0.60263899150E+03  0.66312775408E+03  0.26300962106E+03 0.  0.
         25    1    3    3    0    0 -0.20238784557E+02 -0.83552348740E+02 -0.36104487010E+03  0.39165228163E+03  0.12509000000E+03 0.  0.
         25    1    4    4    0    0  0.35347064113E+02  0.13347399476E+02 -0.24899386756E+03  0.28119925710E+03  0.12509000000E+03 0.  0.
         25    1    4    4    0    0 -0.15108279556E+02  0.70204949264E+02 -0.35364512394E+03  0.38192849697E+03  0.12509000000E+03 0.  0.
<mgrwt>
<rscale>  2 0.42880571E+03</rscale>
<asrwt>0</asrwt>
<pdfrwt beam="1">  1       21 0.66982487E-02 0.42880571E+03</pdfrwt>
<pdfrwt beam="2">  1       21 0.14841645E+00 0.42880571E+03</pdfrwt>
<totfact> 0.45767427E+04</totfact>
</mgrwt>
</event>
<event>
 7    0  0.4709932E-002  0.4292709E+03  0.7546771E-02  0.1034091E+00
         21   -1    0    0  502  501  0.00000000000E+00  0.00000000000E+00  0.36278550342E+03  0.36278550342E+03  0.00000000000E+00 0.  1.
         21   -1    0    0  501  502 -0.00000000000E+00 -0.00000000000E+00 -0.12698518226E+03  0.12698518226E+03  0.00000000000E+00 0.  1.
      99926    2    1    2    0    0 -0.71054273576E-14  0.71054273576E-14  0.23580032116E+03  0.48977068568E+03  0.42927093203E+03 0.  0.
      99925    2    3    3    0    0  0.59559247600E+02 -0.63186765741E+02  0.15533314008E+03  0.31754308432E+03  0.26299306959E+03 0.  0.
         25    1    3    3    0    0 -0.59559247600E+02  0.63186765741E+02  0.80467181082E+02  0.17222760136E+03  0.12509000000E+03 0.  0.
         25    1    4    4    0    0  0.10717586680E+02  0.60388333586E+01  0.64797374103E+02  0.14141266550E+03  0.12509000000E+03 0.  0.
         25    1    4    4    0    0  0.48841660920E+02 -0.69225599100E+02  0.90535765978E+02  0.17613041882E+03  0.12509000000E+03 0.  0.
<mgrwt>
<rscale>  2 0.42927093E+03</rscale>
<asrwt>0</asrwt>
<pdfrwt beam="1">  1       21 0.53350809E-01 0.42927093E+03</pdfrwt>
<pdfrwt beam="2">  1       21 0.18674292E-01 0.42927093E+03</pdfrwt>
<totfact> 0.81388556E+04</totfact>
</mgrwt>
</event>
<event>
 7    0  0.4709932E-002  0.4531603E+03  0.7546771E-02  0.1026784E+00
         21   -1    0    0  502  501  0.00000000000E+00  0.00000000000E+00  0.14396600342E+03  0.14396600342E+03  0.00000000000E+00 0. -1.
         21   -1    0    0  501  502 -0.00000000000E+00 -0.00000000000E+00 -0.35660193216E+03  0.35660193216E+03  0.00000000000E+00 0. -1.
      99926    2    1    2    0    0  0.35527136788E-14  0.00000000000E+00 -0.21263592874E+03  0.50056793557E+03  0.45316025856E+03 0.  0.
      99925    2    3    3    0    0  0.22878896351E+02 -0.64770620812E+02 -0.23058863880E+03  0.35673301243E+03  0.26337927898E+03 0.  0.
         25    1    4    4    0    0  0.77649295123E-02 -0.13536459102E+02 -0.15680094974E+03  0.20104049772E+03  0.12509000000E+03 0.  0.
         25    1    3    3    0    0 -0.22878896351E+02  0.64770620812E+02  0.17952710056E+02  0.14383492315E+03  0.12509000000E+03 0.  0.
         25    1    4    4    0    0  0.22871131421E+02 -0.51234161711E+02 -0.73787689058E+02  0.15569251470E+03  0.12509000000E+03 0.  0.
<mgrwt>
<rscale>  2 0.45316026E+03</rscale>
<asrwt>0</asrwt>
<pdfrwt beam="1">  1       21 0.21171471E-01 0.45316026E+03</pdfrwt>
<pdfrwt beam="2">  1       21 0.52441460E-01 0.45316026E+03</pdfrwt>
<totfact> 0.66192154E+04</totfact>
</mgrwt>
</event>
<event>
 7    0  0.4709932E-002  0.4522179E+03  0.7546771E-02  0.1027063E+00
         21   -1    0    0  502  501  0.00000000000E+00  0.00000000000E+00  0.27281657885E+03  0.27281657885E+03  0.00000000000E+00 0.  1.
         21   -1    0    0  501  502 -0.00000000000E+00 -0.00000000000E+00 -0.18739790190E+03  0.18739790190E+03  0.00000000000E+00 0.  1.
      99926    2    1    2    0    0  0.00000000000E+00  0.00000000000E+00  0.85418676950E+02  0.46021448076E+03  0.45221788767E+03 0.  0.
      99925    2    3    3    0    0 -0.34238072004E+02  0.69147881019E+02  0.13439183779E+03  0.30529658764E+03  0.26304213605E+03 0.  0.
         25    1    4    4    0    0 -0.13468410726E+00 -0.25028936817E+01  0.49433131974E+02  0.13452667116E+03  0.12509000000E+03 0.  0.
         25    1    4    4    0    0 -0.34103387897E+02  0.71650774700E+02  0.84958705821E+02  0.17076991648E+03  0.12509000000E+03 0.  0.
         25    1    3    3    0    0  0.34238072004E+02 -0.69147881019E+02 -0.48973160845E+02  0.15491789311E+03  0.12509000000E+03 0.  0.
<mgrwt>
<rscale>  2 0.45221789E+03</rscale>
<asrwt>0</asrwt>
<pdfrwt beam="1">  1       21 0.40120085E-01 0.45221789E+03</pdfrwt>
<pdfrwt beam="2">  1       21 0.27558515E-01 0.45221789E+03</pdfrwt>
<totfact> 0.69695554E+04</totfact>
</mgrwt>
</event>
<event>
 7    0  0.4709932E-002  0.4527372E+03  0.7546771E-02  0.1026909E+00
         21   -1    0    0  502  501  0.00000000000E+00  0.00000000000E+00  0.75236841986E+03  0.75236841986E+03  0.00000000000E+00 0. -1.
         21   -1    0    0  501  502 -0.00000000000E+00 -0.00000000000E+00 -0.68108586912E+02  0.68108586912E+02  0.00000000000E+00 0. -1.
      99926    2    1    2    0    0  0.00000000000E+00  0.00000000000E+00  0.68425983295E+03  0.82047700677E+03  0.45273723025E+03 0.  0.
      99925    2    3    3    0    0  0.68091261214E+02 -0.24032599669E+02  0.58433127234E+03  0.64484326563E+03  0.26299394613E+03 0.  0.
         25    1    4    4    0    0  0.36494343837E+02 -0.76886572876E+01  0.38780364789E+03  0.40918226990E+03  0.12509000000E+03 0.  0.
         25    1    3    3    0    0 -0.68091261214E+02  0.24032599669E+02  0.99928560612E+02  0.17563374114E+03  0.12509000000E+03 0.  0.
         25    1    4    4    0    0  0.31596917376E+02 -0.16343942381E+02  0.19652762444E+03  0.23566099573E+03  0.12509000000E+03 0.  0.
<mgrwt>
<rscale>  2 0.45273723E+03</rscale>
<asrwt>0</asrwt>
<pdfrwt beam="1">  1       21 0.11064241E+00 0.45273723E+03</pdfrwt>
<pdfrwt beam="2">  1       21 0.10015969E-01 0.45273723E+03</pdfrwt>
<totfact> 0.47630334E+04</totfact>
</mgrwt>
</event>
<event>
 7    0  0.4709932E-002  0.4556887E+03  0.7546771E-02  0.1026039E+00
         21   -1    0    0  502  501  0.00000000000E+00  0.00000000000E+00  0.23143466784E+03  0.23143466784E+03  0.00000000000E+00 0. -1.
         21   -1    0    0  501  502 -0.00000000000E+00 -0.00000000000E+00 -0.22430968831E+03  0.22430968831E+03  0.00000000000E+00 0. -1.
      99926    2    1    2    0    0  0.00000000000E+00  0.00000000000E+00  0.71249795295E+01  0.45574435615E+03  0.45568865778E+03 0.  0.
      99925    2    3    3    0    0  0.56505370871E+02  0.96970573884E+02  0.23957222583E+02  0.28684503217E+03  0.26288776089E+03 0.  0.
         25    1    3    3    0    0 -0.56505370871E+02 -0.96970573884E+02 -0.16832243053E+02  0.16889932399E+03  0.12509000000E+03 0.  0.
         25    1    4    4    0    0  0.64661992781E+02  0.58795284236E+02 -0.48628134451E+01  0.15267355309E+03  0.12509000000E+03 0.  0.
         25    1    4    4    0    0 -0.81566219099E+01  0.38175289648E+02  0.28820036028E+02  0.13417147908E+03  0.12509000000E+03 0.  0.
<mgrwt>
<rscale>  2 0.45568866E+03</rscale>
<asrwt>0</asrwt>
<pdfrwt beam="1">  1       21 0.34034510E-01 0.45568866E+03</pdfrwt>
<pdfrwt beam="2">  1       21 0.32986719E-01 0.45568866E+03</pdfrwt>
<totfact> 0.68116244E+04</totfact>
</mgrwt>
</event>
<event>
 7    0  0.4709932E-002  0.4544442E+03  0.7546771E-02  0.1026405E+00
         21   -1    0    0  502  501  0.00000000000E+00  0.00000000000E+00  0.59123867796E+02  0.59123867796E+02  0.00000000000E+00 0. -1.
         21   -1    0    0  501  502 -0.00000000000E+00 -0.00000000000E+00 -0.87324933545E+03  0.87324933545E+03  0.00000000000E+00 0. -1.
      99926    2    1    2    0    0  0.00000000000E+00  0.71054273576E-14 -0.81412546766E+03  0.93237320325E+03  0.45444418035E+03 0.  0.
      99925    2    3    3    0    0  0.11712514720E+02 -0.44297304314E+02 -0.30135539129E+03  0.40258070284E+03  0.26297664586E+03 0.  0.
         25    1    4    4    0    0  0.23608888300E+02 -0.44278699488E+02 -0.11156333979E+03  0.17496248089E+03  0.12509000000E+03 0.  0.
         25    1    4    4    0    0 -0.11896373580E+02 -0.18604825520E-01 -0.18979205150E+03  0.22761822195E+03  0.12509000000E+03 0.  0.
         25    1    3    3    0    0 -0.11712514720E+02  0.44297304314E+02 -0.51277007637E+03  0.52979250041E+03  0.12509000000E+03 0.  0.
<mgrwt>
<rscale>  2 0.45444418E+03</rscale>
<asrwt>0</asrwt>
<pdfrwt beam="1">  1       21 0.86946864E-02 0.45444418E+03</pdfrwt>
<pdfrwt beam="2">  1       21 0.12841902E+00 0.45444418E+03</pdfrwt>
<totfact> 0.42045430E+04</totfact>
</mgrwt>
</event>
<event>
 7    0  0.4709932E-002  0.4291315E+03  0.7546771E-02  0.1034135E+00
         21   -1    0    0  502  501  0.00000000000E+00  0.00000000000E+00  0.25099788207E+03  0.25099788207E+03  0.00000000000E+00 0.  1.
         21   -1    0    0  501  502 -0.00000000000E+00 -0.00000000000E+00 -0.18342171810E+03  0.18342171810E+03  0.00000000000E+00 0.  1.
      99926    2    1    2    0    0  0.00000000000E+00 -0.71054273576E-14  0.67576163971E+02  0.43441960017E+03  0.42913150790E+03 0.  0.
      99925    2    3    3    0    0 -0.53867571678E+02  0.60439058672E+02  0.74738409979E+02  0.28524386166E+03  0.26310384945E+03 0.  0.
         25    1    4    4    0    0 -0.62428793921E+01  0.52620107494E+02  0.96228600805E+01  0.13619088366E+03  0.12509000000E+03 0.  0.
         25    1    3    3    0    0  0.53867571678E+02 -0.60439058672E+02 -0.71622460076E+01  0.14917573851E+03  0.12509000000E+03 0.  0.
         25    1    4    4    0    0 -0.47624692286E+02  0.78189511779E+01  0.65115549899E+02  0.14905297800E+03  0.12509000000E+03 0.  0.
<mgrwt>
<rscale>  2 0.42913151E+03</rscale>
<asrwt>0</asrwt>
<pdfrwt beam="1">  1       21 0.36911453E-01 0.42913151E+03</pdfrwt>
<pdfrwt beam="2">  1       21 0.26973782E-01 0.42913151E+03</pdfrwt>
<totfact> 0.86622380E+04</totfact>
</mgrwt>
</event>
<event>
 7    0  0.4709932E-002  0.4536292E+03  0.7546771E-02  0.1026645E+00
         21   -1    0    0  502  501  0.00000000000E+00  0.00000000000E+00  0.65410981438E+02  0.65410981438E+02  0.00000000000E+00 0.  1.
         21   -1    0    0  501  502 -0.00000000000E+00 -0.00000000000E+00 -0.78648680762E+03  0.78648680762E+03  0.00000000000E+00 0.  1.
      99926    2    1    2    0    0  0.00000000000E+00  0.17763568394E-14 -0.72107582618E+03  0.85189778906E+03  0.45362924939E+03 0.  0.
      99925    2    3    3    0    0 -0.11125297376E+03 -0.11160235056E+02 -0.44744009538E+03  0.53092147172E+03  0.26300797548E+03 0.  0.
         25    1    3    3    0    0  0.11125297376E+03  0.11160235056E+02 -0.27363573080E+03  0.32097631733E+03  0.12509000000E+03 0.  0.
         25    1    4    4    0    0 -0.56551028447E+02  0.19128850188E+01 -0.14977632019E+03  0.20318004857E+03  0.12509000000E+03 0.  0.
         25    1    4    4    0    0 -0.54701945316E+02 -0.13073120075E+02 -0.29766377519E+03  0.32774142315E+03  0.12509000000E+03 0.  0.
<mgrwt>
<rscale>  2 0.45362925E+03</rscale>
<asrwt>0</asrwt>
<pdfrwt beam="1">  1       21 0.96192621E-02 0.45362925E+03</pdfrwt>
<pdfrwt beam="2">  1       21 0.11565982E+00 0.45362925E+03</pdfrwt>
<totfact> 0.45845576E+04</totfact>
</mgrwt>
</event>
<event>
 7    0  0.4709932E-002  0.4616156E+03  0.7546771E-02  0.1024314E+00
         21   -1    0    0  502  501  0.00000000000E+00  0.00000000000E+00  0.65624963130E+03  0.65624963130E+03  0.00000000000E+00 0. -1.
         21   -1    0    0  501  502 -0.00000000000E+00 -0.00000000000E+00 -0.81176776387E+02  0.81176776387E+02  0.00000000000E+00 0. -1.
      99926    2    1    2    0    0 -0.14210854715E-13  0.14210854715E-13  0.57507285492E+03  0.73742640769E+03  0.46161555249E+03 0.  0.
      99925    2    3    3    0    0  0.65825135930E+02 -0.98787439477E+02  0.34059454869E+03  0.44636027962E+03  0.26294665981E+03 0.  0.
         25    1    3    3    0    0 -0.65825135930E+02  0.98787439477E+02  0.23447830623E+03  0.29106612807E+03  0.12509000000E+03 0.  0.
         25    1    4    4    0    0  0.27650383825E+02 -0.82523108954E+02  0.14389211600E+03  0.20958782499E+03  0.12509000000E+03 0.  0.
         25    1    4    4    0    0  0.38174752105E+02 -0.16264330523E+02  0.19670243269E+03  0.23677245463E+03  0.12509000000E+03 0.  0.
<mgrwt>
<rscale>  2 0.46161555E+03</rscale>
<asrwt>0</asrwt>
<pdfrwt beam="1">  1       21 0.96507296E-01 0.46161555E+03</pdfrwt>
<pdfrwt beam="2">  1       21 0.11937762E-01 0.46161555E+03</pdfrwt>
<totfact> 0.48353155E+04</totfact>
</mgrwt>
</event>
<event>
 7    0  0.4709932E-002  0.4557586E+03  0.7546771E-02  0.1026019E+00
         21   -1    0    0  502  501  0.00000000000E+00  0.00000000000E+00  0.14227581090E+03  0.14227581090E+03  0.00000000000E+00 0. -1.
         21   -1    0    0  501  502 -0.00000000000E+00 -0.00000000000E+00 -0.36498800734E+03  0.36498800734E+03  0.00000000000E+00 0. -1.
      99926    2    1    2    0    0  0.00000000000E+00  0.00000000000E+00 -0.22271219643E+03  0.50726381824E+03  0.45575855324E+03 0.  0.
      99925    2    3    3    0    0  0.21222788034E+02 -0.50165809456E+02 -0.25137950887E+03  0.36784955042E+03  0.26297265845E+03 0.  0.
         25    1    4    4    0    0  0.38406535576E+01 -0.40747771134E+02 -0.77495679798E+02  0.15273578480E+03  0.12509000000E+03 0.  0.
         25    1    4    4    0    0  0.17382134476E+02 -0.94180383217E+01 -0.17388382907E+03  0.21511376561E+03  0.12509000000E+03 0.  0.
         25    1    3    3    0    0 -0.21222788034E+02  0.50165809456E+02  0.28667312435E+02  0.13941426782E+03  0.12509000000E+03 0.  0.
<mgrwt>
<rscale>  2 0.45575855E+03</rscale>
<asrwt>0</asrwt>
<pdfrwt beam="1">  1       21 0.20922914E-01 0.45575855E+03</pdfrwt>
<pdfrwt beam="2">  1       21 0.53674705E-01 0.45575855E+03</pdfrwt>
<totfact> 0.64374862E+04</totfact>
</mgrwt>
</event>
<event>
 7    0  0.4709932E-002  0.4517281E+03  0.7546771E-02  0.1027208E+00
         21   -1    0    0  502  501  0.00000000000E+00  0.00000000000E+00  0.25769162541E+02  0.25769162541E+02  0.00000000000E+00 0.  1.
         21   -1    0    0  501  502 -0.00000000000E+00 -0.00000000000E+00 -0.19796752244E+04  0.19796752244E+04  0.00000000000E+00 0.  1.
      99926    2    1    2    0    0  0.00000000000E+00  0.00000000000E+00 -0.19539060618E+04  0.20054443869E+04  0.45172811573E+03 0.  0.
      99925    2    3    3    0    0  0.64541376465E+02 -0.88262272094E+02 -0.11763824101E+04  0.12103680667E+04  0.26298187011E+03 0.  0.
         25    1    4    4    0    0  0.60576405465E+02 -0.76389498467E+02 -0.62045290901E+03  0.64040157462E+03  0.12509000000E+03 0.  0.
         25    1    4    4    0    0  0.39649710003E+01 -0.11872773627E+02 -0.55592950110E+03  0.56996649203E+03  0.12509000000E+03 0.  0.
         25    1    3    3    0    0 -0.64541376465E+02  0.88262272094E+02 -0.77752365171E+03  0.79507632025E+03  0.12509000000E+03 0.  0.
<mgrwt>
<rscale>  2 0.45172812E+03</rscale>
<asrwt>0</asrwt>
<pdfrwt beam="1">  1       21 0.37895831E-02 0.45172812E+03</pdfrwt>
<pdfrwt beam="2">  1       21 0.29112868E+00 0.45172812E+03</pdfrwt>
<totfact> 0.13972469E+04</totfact>
</mgrwt>
</event>
<event>
 7    0  0.4709932E-002  0.4549627E+03  0.7546771E-02  0.1026252E+00
         21   -1    0    0  502  501  0.00000000000E+00  0.00000000000E+00  0.80794772371E+02  0.80794772371E+02  0.00000000000E+00 0.  1.
         21   -1    0    0  501  502 -0.00000000000E+00 -0.00000000000E+00 -0.64048398105E+03  0.64048398105E+03  0.00000000000E+00 0.  1.
      99926    2    1    2    0    0  0.14210854715E-13  0.00000000000E+00 -0.55968920868E+03  0.72127875342E+03  0.45496266860E+03 0.  0.
      99925    2    3    3    0    0  0.10449256333E+03 -0.13551866080E+02 -0.28701383045E+03  0.40331378859E+03  0.26302609059E+03 0.  0.
         25    1    4    4    0    0  0.14895282347E+02 -0.27164367133E+02 -0.13210566230E+03  0.18455131099E+03  0.12509000000E+03 0.  0.
         25    1    4    4    0    0  0.89597280985E+02  0.13612501053E+02 -0.15490816814E+03  0.21876247759E+03  0.12509000000E+03 0.  0.
         25    1    3    3    0    0 -0.10449256333E+03  0.13551866080E+02 -0.27267537823E+03  0.31796496483E+03  0.12509000000E+03 0.  0.
<mgrwt>
<rscale>  2 0.45496267E+03</rscale>
<asrwt>0</asrwt>
<pdfrwt beam="1">  1       21 0.11881584E-01 0.45496267E+03</pdfrwt>
<pdfrwt beam="2">  1       21 0.94188824E-01 0.45496267E+03</pdfrwt>
<totfact> 0.51778082E+04</totfact>
</mgrwt>
</event>
<event>
 7    0  0.4709932E-002  0.4458635E+03  0.7546771E-02  0.1028963E+00
         21   -1    0    0  502  501  0.00000000000E+00  0.00000000000E+00  0.46523902638E+03  0.46523902638E+03  0.00000000000E+00 0.  1.
         21   -1    0    0  501  502 -0.00000000000E+00 -0.00000000000E+00 -0.10682373671E+03  0.10682373671E+03  0.00000000000E+00 0.  1.
      99926    2    1    2    0    0  0.00000000000E+00  0.00000000000E+00  0.35841528967E+03  0.57206276309E+03  0.44586352739E+03 0.  0.
      99925    2    3    3    0    0  0.41417594762E+02 -0.47525237500E+02  0.12060748603E+03  0.29606615999E+03  0.26293523927E+03 0.  0.
         25    1    4    4    0    0  0.23202668549E+01 -0.58640474262E+02  0.72318870752E+02  0.15595389071E+03  0.12509000000E+03 0.  0.
         25    1    3    3    0    0 -0.41417594762E+02  0.47525237500E+02  0.23780780364E+03  0.27599660311E+03  0.12509000000E+03 0.  0.
         25    1    4    4    0    0  0.39097327907E+02  0.11115236762E+02  0.48288615278E+02  0.14011226928E+03  0.12509000000E+03 0.  0.
<mgrwt>
<rscale>  2 0.44586353E+03</rscale>
<asrwt>0</asrwt>
<pdfrwt beam="1">  1       21 0.68417503E-01 0.44586353E+03</pdfrwt>
<pdfrwt beam="2">  1       21 0.15709373E-01 0.44586353E+03</pdfrwt>
<totfact> 0.65001949E+04</totfact>
</mgrwt>
</event>
<event>
 6    0  0.4709932E-002  0.4551742E+03  0.7546771E-02  0.1026190E+00
         21   -1    0    0  502  501  0.00000000000E+00  0.00000000000E+00  0.58469388085E+03  0.58469388085E+03  0.00000000000E+00 0.  1.
         21   -1    0    0  501  502 -0.00000000000E+00 -0.00000000000E+00 -0.88586336575E+02  0.88586336575E+02  0.00000000000E+00 0.  1.
      99926    2    1    2    0    0 -0.14210854715E-13  0.00000000000E+00  0.49610754428E+03  0.67328021743E+03  0.45517420367E+03 0.  0.
         25    1    3    3    0    0  0.77708121060E+01 -0.29633026339E+02  0.14096477816E+03  0.19093736814E+03  0.12509000000E+03 0.  0.
         25    1    3    3    0    0  0.55290875541E+02  0.20774329805E+02  0.51112962092E+02  0.14747439334E+03  0.12509000000E+03 0.  0.
         25    1    3    3    0    0 -0.63061687647E+02  0.88586965335E+01  0.30402980402E+03  0.33486845594E+03  0.12509000000E+03 0.  0.
<mgrwt>
<rscale>  2 0.45517420E+03</rscale>
<asrwt>0</asrwt>
<pdfrwt beam="1">  1       21 0.85984392E-01 0.45517420E+03</pdfrwt>
<pdfrwt beam="2">  1       21 0.13027403E-01 0.45517420E+03</pdfrwt>
<totfact> 0.54303497E+04</totfact>
</mgrwt>
</event>
<event>
 7    0  0.4709932E-002  0.4562017E+03  0.7546771E-02  0.1025889E+00
         21   -1    0    0  502  501  0.00000000000E+00  0.00000000000E+00  0.35943744604E+03  0.35943744604E+03  0.00000000000E+00 0.  1.
         21   -1    0    0  501  502 -0.00000000000E+00 -0.00000000000E+00 -0.14475396149E+03  0.14475396149E+03  0.00000000000E+00 0.  1.
      99926    2    1    2    0    0  0.71054273576E-14  0.17763568394E-14  0.21468348455E+03  0.50419140753E+03  0.45620168444E+03 0.  0.
      99925    2    3    3    0    0  0.47955223302E+02 -0.95053364640E+01  0.24917699109E+03  0.36552863330E+03  0.26292956092E+03 0.  0.
         25    1    4    4    0    0 -0.34146364812E+01 -0.48855467610E+01  0.78803530610E+02  0.14796294417E+03  0.12509000000E+03 0.  0.
         25    1    3    3    0    0 -0.47955223302E+02  0.95053364640E+01 -0.34493506544E+02  0.13866277423E+03  0.12509000000E+03 0.  0.
         25    1    4    4    0    0  0.51369859784E+02 -0.46197897031E+01  0.17037346048E+03  0.21756568913E+03  0.12509000000E+03 0.  0.
<mgrwt>
<rscale>  2 0.45620168E+03</rscale>
<asrwt>0</asrwt>
<pdfrwt beam="1">  1       21 0.52858448E-01 0.45620168E+03</pdfrwt>
<pdfrwt beam="2">  1       21 0.21287347E-01 0.45620168E+03</pdfrwt>
<totfact> 0.64361098E+04</totfact>
</mgrwt>
</event>
<event>
 7    0  0.4709932E-002  0.4544673E+03  0.7546771E-02  0.1026398E+00
         21   -1    0    0  502  501  0.00000000000E+00  0.00000000000E+00  0.16204841200E+03  0.16204841200E+03  0.00000000000E+00 0. -1.
         21   -1    0    0  501  502 -0.00000000000E+00 -0.00000000000E+00 -0.31864013192E+03  0.31864013192E+03  0.00000000000E+00 0. -1.
      99926    2    1    2    0    0  0.00000000000E+00 -0.14210854715E-13 -0.15659171993E+03  0.48068854392E+03  0.45446728101E+03 0.  0.
      99925    2    3    3    0    0  0.34561895982E+02  0.73361497220E+02 -0.18132632389E+03  0.32957354578E+03  0.26298869256E+03 0.  0.
         25    1    4    4    0    0  0.16891061116E+02  0.10927459211E+00 -0.60208250121E+02  0.13984942391E+03  0.12509000000E+03 0.  0.
         25    1    4    4    0    0  0.17670834866E+02  0.73252222628E+02 -0.12111807377E+03  0.18972412187E+03  0.12509000000E+03 0.  0.
         25    1    3    3    0    0 -0.34561895982E+02 -0.73361497220E+02  0.24734603966E+02  0.15111499814E+03  0.12509000000E+03 0.  0.
<mgrwt>
<rscale>  2 0.45446728E+03</rscale>
<asrwt>0</asrwt>
<pdfrwt beam="1">  1       21 0.23830649E-01 0.45446728E+03</pdfrwt>
<pdfrwt beam="2">  1       21 0.46858843E-01 0.45446728E+03</pdfrwt>
<totfact> 0.66932593E+04</totfact>
</mgrwt>
</event>
<event>
 7    0  0.4709932E-002  0.4403435E+03  0.7546771E-02  0.1030641E+00
         21   -1    0    0  502  501  0.00000000000E+00  0.00000000000E+00  0.34261453925E+02  0.34261453925E+02  0.00000000000E+00 0. -1.
         21   -1    0    0  501  502 -0.00000000000E+00 -0.00000000000E+00 -0.14148724875E+04  0.14148724875E+04  0.00000000000E+00 0. -1.
      99926    2    1    2    0    0  0.71054273576E-14  0.00000000000E+00 -0.13806110335E+04  0.14491339414E+04  0.44034345022E+03 0.  0.
      99925    2    3    3    0    0 -0.48470215469E+02 -0.73520811429E+02 -0.10313938236E+04  0.10678796439E+04  0.26237195562E+03 0.  0.
         25    1    3    3    0    0  0.48470215469E+02  0.73520811429E+02 -0.34921720996E+03  0.38125429747E+03  0.12509000000E+03 0.  0.
         25    1    4    4    0    0 -0.12905676851E+02 -0.72547763821E+02 -0.59961548883E+03  0.61694082137E+03  0.12509000000E+03 0.  0.
         25    1    4    4    0    0 -0.35564538618E+02 -0.97304760861E+00 -0.43177833475E+03  0.45093882256E+03  0.12509000000E+03 0.  0.
<mgrwt>
<rscale>  2 0.44034345E+03</rscale>
<asrwt>0</asrwt>
<pdfrwt beam="1">  1       21 0.50384484E-02 0.44034345E+03</pdfrwt>
<pdfrwt beam="2">  1       21 0.20806951E+00 0.44034345E+03</pdfrwt>
<totfact> 0.28120089E+04</totfact>
</mgrwt>
</event>
<event>
 7    0  0.4709932E-002  0.4573433E+03  0.7546771E-02  0.1025555E+00
         21   -1    0    0  502  501  0.00000000000E+00  0.00000000000E+00  0.23477024185E+03  0.23477024185E+03  0.00000000000E+00 0. -1.
         21   -1    0    0  501  502 -0.00000000000E+00 -0.00000000000E+00 -0.22273147254E+03  0.22273147254E+03  0.00000000000E+00 0. -1.
      99926    2    1    2    0    0  0.00000000000E+00  0.00000000000E+00  0.12038769308E+02  0.45750171439E+03  0.45734329196E+03 0.  0.
      99925    2    3    3    0    0  0.11086568481E+03  0.25500069179E+02 -0.91320761976E+01  0.28709876137E+03  0.26344041142E+03 0.  0.
         25    1    3    3    0    0 -0.11086568481E+03 -0.25500069179E+02  0.21170845506E+02  0.17040295302E+03  0.12509000000E+03 0.  0.
         25    1    4    4    0    0  0.17194478814E+02 -0.57925252400E+00 -0.21886345684E+02  0.12815032525E+03  0.12509000000E+03 0.  0.
         25    1    4    4    0    0  0.93671206000E+02  0.26079321703E+02  0.12754269486E+02  0.15894843612E+03  0.12509000000E+03 0.  0.
<mgrwt>
<rscale>  2 0.45734329E+03</rscale>
<asrwt>0</asrwt>
<pdfrwt beam="1">  1       21 0.34525035E-01 0.45734329E+03</pdfrwt>
<pdfrwt beam="2">  1       21 0.32754628E-01 0.45734329E+03</pdfrwt>
<totfact> 0.67099552E+04</totfact>
</mgrwt>
</event>
<event>
 7    0  0.4709932E-002  0.4562168E+03  0.7546771E-02  0.1025884E+00
         21   -1    0    0  502  501  0.00000000000E+00  0.00000000000E+00  0.32281774017E+02  0.32281774017E+02  0.00000000000E+00 0. -1.
         21   -1    0    0  501  502 -0.00000000000E+00 -0.00000000000E+00 -0.16118517100E+04  0.16118517100E+04  0.00000000000E+00 0. -1.
      99926    2    1    2    0    0  0.00000000000E+00  0.00000000000E+00 -0.15795699360E+04  0.16441334840E+04  0.45621675836E+03 0.  0.
      99925    2    3    3    0    0 -0.62210110857E+02 -0.89956025482E+02 -0.11076705271E+04  0.11438348286E+04  0.26355632052E+03 0.  0.
         25    1    3    3    0    0  0.62210110857E+02  0.89956025482E+02 -0.47189940888E+03  0.50029865542E+03  0.12509000000E+03 0.  0.
         25    1    4    4    0    0 -0.68543760895E+02 -0.62335085780E+02 -0.54993784416E+03  0.57154444325E+03  0.12509000000E+03 0.  0.
         25    1    4    4    0    0  0.63336500385E+01 -0.27620939703E+02 -0.55773268298E+03  0.57229038538E+03  0.12509000000E+03 0.  0.
<mgrwt>
<rscale>  2 0.45621676E+03</rscale>
<asrwt>0</asrwt>
<pdfrwt beam="1">  1       21 0.47473193E-02 0.45621676E+03</pdfrwt>
<pdfrwt beam="2">  1       21 0.23703704E+00 0.45621676E+03</pdfrwt>
<totfact> 0.20258519E+04</totfact>
</mgrwt>
</event>
<event>
 7    0  0.4709932E-002  0.4573493E+03  0.7546771E-02  0.1025553E+00
         21   -1    0    0  502  501  0.00000000000E+00  0.00000000000E+00  0.70567823636E+02  0.70567823636E+02  0.00000000000E+00 0. -1.
         21   -1    0    0  501  502 -0.00000000000E+00 -0.00000000000E+00 -0.74101886242E+03  0.74101886242E+03  0.00000000000E+00 0. -1.
      99926    2    1    2    0    0  0.00000000000E+00  0.00000000000E+00 -0.67045103879E+03  0.81158668606E+03  0.45734926870E+03 0.  0.
      99925    2    3    3    0    0 -0.10665627672E+03  0.37876117649E+02 -0.46035241895E+03  0.54214448482E+03  0.26303256668E+03 0.  0.
         25    1    3    3    0    0  0.10665627672E+03 -0.37876117649E+02 -0.21009861984E+03  0.26944220124E+03  0.12509000000E+03 0.  0.
         25    1    4    4    0    0 -0.59006827405E+02 -0.14158687995E+02 -0.26998146969E+03  0.30367709199E+03  0.12509000000E+03 0.  0.
         25    1    4    4    0    0 -0.47649449314E+02  0.52034805644E+02 -0.19037094926E+03  0.23846739282E+03  0.12509000000E+03 0.  0.
<mgrwt>
<rscale>  2 0.45734927E+03</rscale>
<asrwt>0</asrwt>
<pdfrwt beam="1">  1       21 0.10377621E-01 0.45734927E+03</pdfrwt>
<pdfrwt beam="2">  1       21 0.10897336E+00 0.45734927E+03</pdfrwt>
<totfact> 0.46349104E+04</totfact>
</mgrwt>
</event>
<event>
 7    0  0.4709932E-002  0.4590189E+03  0.7546771E-02  0.1025066E+00
         21   -1    0    0  502  501  0.00000000000E+00  0.00000000000E+00  0.79071877489E+03  0.79071877489E+03  0.00000000000E+00 0. -1.
         21   -1    0    0  501  502 -0.00000000000E+00 -0.00000000000E+00 -0.66616090319E+02  0.66616090319E+02  0.00000000000E+00 0. -1.
      99926    2    1    2    0    0 -0.14210854715E-13  0.00000000000E+00  0.72410268457E+03  0.85733486521E+03  0.45901892477E+03 0.  0.
      99925    2    3    3    0    0  0.91263514597E+02  0.61078651333E+02  0.52933030583E+03  0.60112514961E+03  0.26287115110E+03 0.  0.
         25    1    3    3    0    0 -0.91263514597E+02 -0.61078651333E+02  0.19477237874E+03  0.25620971559E+03  0.12509000000E+03 0.  0.
         25    1    4    4    0    0  0.15614058994E+02  0.57028404095E+02  0.27078973092E+03  0.30408982913E+03  0.12509000000E+03 0.  0.
         25    1    4    4    0    0  0.75649455603E+02  0.40502472382E+01  0.25854057492E+03  0.29703532048E+03  0.12509000000E+03 0.  0.
<mgrwt>
<rscale>  2 0.45901892E+03</rscale>
<asrwt>0</asrwt>
<pdfrwt beam="1">  1       21 0.11628217E+00 0.45901892E+03</pdfrwt>
<pdfrwt beam="2">  1       21 0.97964843E-02 0.45901892E+03</pdfrwt>
<totfact> 0.43718442E+04</totfact>
</mgrwt>
</event>
<event>
 7    0  0.4709932E-002  0.4525324E+03  0.7546771E-02  0.1026970E+00
         21   -1    0    0  502  501  0.00000000000E+00  0.00000000000E+00  0.76888870551E+03  0.76888870551E+03  0.00000000000E+00 0.  1.
         21   -1    0    0  501  502 -0.00000000000E+00 -0.00000000000E+00 -0.66584908223E+02  0.66584908223E+02  0.00000000000E+00 0.  1.
      99926    2    1    2    0    0  0.00000000000E+00  0.00000000000E+00  0.70230379728E+03  0.83547361373E+03  0.45253235858E+03 0.  0.
      99925    2    3    3    0    0 -0.28270909216E+02  0.22854916461E+02  0.63626478996E+03  0.68942482016E+03  0.26296788435E+03 0.  0.
         25    1    4    4    0    0 -0.42303758510E+02  0.40930867365E+02  0.32439141448E+03  0.35262195305E+03  0.12509000000E+03 0.  0.
         25    1    3    3    0    0  0.28270909216E+02 -0.22854916461E+02  0.66039007328E+02  0.14604879357E+03  0.12509000000E+03 0.  0.
         25    1    4    4    0    0  0.14032849294E+02 -0.18075950904E+02  0.31187337548E+03  0.33680286711E+03  0.12509000000E+03 0.  0.
<mgrwt>
<rscale>  2 0.45253236E+03</rscale>
<asrwt>0</asrwt>
<pdfrwt beam="1">  1       21 0.11307186E+00 0.45253236E+03</pdfrwt>
<pdfrwt beam="2">  1       21 0.97918987E-02 0.45253236E+03</pdfrwt>
<totfact> 0.46999694E+04</totfact>
</mgrwt>
</event>
<event>
 7    0  0.4709932E-002  0.4116180E+03  0.7546771E-02  0.1039829E+00
         21   -1    0    0  502  501  0.00000000000E+00  0.00000000000E+00  0.11529811619E+03  0.11529811619E+03  0.00000000000E+00 0. -1.
         21   -1    0    0  501  502 -0.00000000000E+00 -0.00000000000E+00 -0.36737246328E+03  0.36737246328E+03  0.00000000000E+00 0. -1.
      99926    2    1    2    0    0  0.44408920985E-15 -0.71054273576E-14 -0.25207434708E+03  0.48267057947E+03  0.41161804119E+03 0.  0.
      99925    2    3    3    0    0  0.16004989342E+01 -0.63182477420E+02 -0.15428152854E+03  0.31177432291E+03  0.26344990287E+03 0.  0.
         25    1    4    4    0    0  0.15428956700E+02  0.33714329009E+01 -0.93535367864E+02  0.15698978440E+03  0.12509000000E+03 0.  0.
         25    1    4    4    0    0 -0.13828457766E+02 -0.66553910321E+02 -0.60746160680E+02  0.15478453851E+03  0.12509000000E+03 0.  0.
         25    1    3    3    0    0 -0.16004989342E+01  0.63182477420E+02 -0.97792818538E+02  0.17089625656E+03  0.12509000000E+03 0.  0.
<mgrwt>
<rscale>  2 0.41161804E+03</rscale>
<asrwt>0</asrwt>
<pdfrwt beam="1">  1       21 0.16955605E-01 0.41161804E+03</pdfrwt>
<pdfrwt beam="2">  1       21 0.54025362E-01 0.41161804E+03</pdfrwt>
<totfact> 0.95326763E+04</totfact>
</mgrwt>
</event>
<event>
 7    0  0.4709932E-002  0.4516585E+03  0.7546771E-02  0.1027229E+00
         21   -1    0    0  502  501  0.00000000000E+00  0.00000000000E+00  0.25767219193E+03  0.25767219193E+03  0.00000000000E+00 0. -1.
         21   -1    0    0  501  502 -0.00000000000E+00 -0.00000000000E+00 -0.19792140594E+03  0.19792140594E+03  0.00000000000E+00 0. -1.
      99926    2    1    2    0    0  0.00000000000E+00  0.00000000000E+00  0.59750785989E+02  0.45559359787E+03  0.45165846609E+03 0.  0.
      99925    2    3    3    0    0 -0.82074397575E+02 -0.64847421818E+02  0.33974276545E+01  0.28306938522E+03  0.26301205197E+03 0.  0.
         25    1    4    4    0    0 -0.76356683352E+02 -0.18907143596E+02 -0.14563279187E+02  0.14848373774E+03  0.12509000000E+03 0.  0.
         25    1    3    3    0    0  0.82074397575E+02  0.64847421818E+02  0.56353358335E+02  0.17252421265E+03  0.12509000000E+03 0.  0.
         25    1    4    4    0    0 -0.57177142236E+01 -0.45940278222E+02  0.17960706841E+02  0.13458564749E+03  0.12509000000E+03 0.  0.
<mgrwt>
<rscale>  2 0.45165847E+03</rscale>
<asrwt>0</asrwt>
<pdfrwt beam="1">  1       21 0.37892969E-01 0.45165847E+03</pdfrwt>
<pdfrwt beam="2">  1       21 0.29106089E-01 0.45165847E+03</pdfrwt>
<totfact> 0.70359218E+04</totfact>
</mgrwt>
</event>
<event>
 7    0  0.4709932E-002  0.4472688E+03  0.7546771E-02  0.1028540E+00
         21   -1    0    0  502  501  0.00000000000E+00  0.00000000000E+00  0.21782639043E+03  0.21782639043E+03  0.00000000000E+00 0. -1.
         21   -1    0    0  501  502 -0.00000000000E+00 -0.00000000000E+00 -0.22959726559E+03  0.22959726559E+03  0.00000000000E+00 0. -1.
      99926    2    1    2    0    0  0.00000000000E+00  0.00000000000E+00 -0.11770875159E+02  0.44742365601E+03  0.44726879442E+03 0.  0.
      99925    2    3    3    0    0  0.20588882092E+02 -0.14741122481E+02  0.95216432099E+02  0.28088538782E+03  0.26303845611E+03 0.  0.
         25    1    4    4    0    0 -0.20242200626E+01 -0.29459431406E+02  0.81490424447E+02  0.15218460153E+03  0.12509000000E+03 0.  0.
         25    1    4    4    0    0  0.22613102155E+02  0.14718308925E+02  0.13726007652E+02  0.12870078629E+03  0.12509000000E+03 0.  0.
         25    1    3    3    0    0 -0.20588882092E+02  0.14741122481E+02 -0.10698730726E+03  0.16653826819E+03  0.12509000000E+03 0.  0.
<mgrwt>
<rscale>  2 0.44726879E+03</rscale>
<asrwt>0</asrwt>
<pdfrwt beam="1">  1       21 0.32033293E-01 0.44726879E+03</pdfrwt>
<pdfrwt beam="2">  1       21 0.33764304E-01 0.44726879E+03</pdfrwt>
<totfact> 0.73537085E+04</totfact>
</mgrwt>
</event>
<event>
 7    0  0.4709932E-002  0.4629188E+03  0.7546771E-02  0.1023938E+00
         21   -1    0    0  502  501  0.00000000000E+00  0.00000000000E+00  0.33031406222E+03  0.33031406222E+03  0.00000000000E+00 0.  1.
         21   -1    0    0  501  502 -0.00000000000E+00 -0.00000000000E+00 -0.16218942543E+03  0.16218942543E+03  0.00000000000E+00 0.  1.
      99926    2    1    2    0    0  0.48849813084E-14  0.00000000000E+00  0.16812463679E+03  0.49250348765E+03  0.46291877458E+03 0.  0.
      99925    2    3    3    0    0 -0.35957273350E+01  0.12014602139E+03  0.11336115310E+03  0.31058443160E+03  0.26299038463E+03 0.  0.
         25    1    4    4    0    0 -0.38476823798E+02  0.46362797786E+02  0.67226749431E+02  0.15426250007E+03  0.12509000000E+03 0.  0.
         25    1    4    4    0    0  0.34881096463E+02  0.73783223602E+02  0.46134403673E+02  0.15632193153E+03  0.12509000000E+03 0.  0.
         25    1    3    3    0    0  0.35957273350E+01 -0.12014602139E+03  0.54763483687E+02  0.18191905606E+03  0.12509000000E+03 0.  0.
<mgrwt>
<rscale>  2 0.46291877E+03</rscale>
<asrwt>0</asrwt>
<pdfrwt beam="1">  1       21 0.48575597E-01 0.46291877E+03</pdfrwt>
<pdfrwt beam="2">  1       21 0.23851386E-01 0.46291877E+03</pdfrwt>
<totfact> 0.61821876E+04</totfact>
</mgrwt>
</event>
<event>
 7    0  0.4709932E-002  0.4548053E+03  0.7546771E-02  0.1026299E+00
         21   -1    0    0  502  501  0.00000000000E+00  0.00000000000E+00  0.20975103312E+03  0.20975103312E+03  0.00000000000E+00 0.  1.
         21   -1    0    0  501  502 -0.00000000000E+00 -0.00000000000E+00 -0.24653979188E+03  0.24653979188E+03  0.00000000000E+00 0.  1.
      99926    2    1    2    0    0 -0.14210854715E-13  0.00000000000E+00 -0.36788758757E+02  0.45629082500E+03  0.45480534760E+03 0.  0.
      99925    2    3    3    0    0 -0.10440202426E+03  0.22558884419E+02 -0.59859419555E+02  0.29019311452E+03  0.26309733497E+03 0.  0.
         25    1    4    4    0    0 -0.88895957556E+02  0.68544707970E+01 -0.54716494585E+02  0.16306709637E+03  0.12509000000E+03 0.  0.
         25    1    4    4    0    0 -0.15506066707E+02  0.15704413622E+02 -0.51429249705E+01  0.12712601814E+03  0.12509000000E+03 0.  0.
         25    1    3    3    0    0  0.10440202426E+03 -0.22558884419E+02  0.23070660798E+02  0.16609771048E+03  0.12509000000E+03 0.  0.
<mgrwt>
<rscale>  2 0.45480535E+03</rscale>
<asrwt>0</asrwt>
<pdfrwt beam="1">  1       21 0.30845740E-01 0.45480535E+03</pdfrwt>
<pdfrwt beam="2">  1       21 0.36255852E-01 0.45480535E+03</pdfrwt>
<totfact> 0.68557776E+04</totfact>
</mgrwt>
</event>
<event>
 7    0  0.4709932E-002  0.4335437E+03  0.7546771E-02  0.1032746E+00
         21   -1    0    0  502  501  0.00000000000E+00  0.00000000000E+00  0.10187626656E+03  0.10187626656E+03  0.00000000000E+00 0.  1.
         21   -1    0    0  501  502 -0.00000000000E+00 -0.00000000000E+00 -0.46124620229E+03  0.46124620229E+03  0.00000000000E+00 0.  1.
      99926    2    1    2    0    0 -0.35527136788E-14 -0.71054273576E-14 -0.35936993573E+03  0.56312246885E+03  0.43354372816E+03 0.  0.
      99925    2    3    3    0    0 -0.15837005848E+02 -0.56422796852E+02 -0.32269010396E+03  0.42019849985E+03  0.26268523620E+03 0.  0.
         25    1    3    3    0    0  0.15837005848E+02  0.56422796852E+02 -0.36679831764E+02  0.14292396901E+03  0.12509000000E+03 0.  0.
         25    1    4    4    0    0 -0.37462735785E+02 -0.38246243614E+02 -0.12631384129E+03  0.18565808984E+03  0.12509000000E+03 0.  0.
         25    1    4    4    0    0  0.21625729937E+02 -0.18176553238E+02 -0.19637626267E+03  0.23454041000E+03  0.12509000000E+03 0.  0.
<mgrwt>
<rscale>  2 0.43354373E+03</rscale>
<asrwt>0</asrwt>
<pdfrwt beam="1">  1       21 0.14981803E-01 0.43354373E+03</pdfrwt>
<pdfrwt beam="2">  1       21 0.67830326E-01 0.43354373E+03</pdfrwt>
<totfact> 0.72558704E+04</totfact>
</mgrwt>
</event>
<event>
 7    0  0.4709932E-002  0.4594809E+03  0.7546771E-02  0.1024932E+00
         21   -1    0    0  502  501  0.00000000000E+00  0.00000000000E+00  0.17520416407E+03  0.17520416407E+03  0.00000000000E+00 0. -1.
         21   -1    0    0  501  502 -0.00000000000E+00 -0.00000000000E+00 -0.30125237604E+03  0.30125237604E+03  0.00000000000E+00 0. -1.
      99926    2    1    2    0    0  0.00000000000E+00  0.00000000000E+00 -0.12604821197E+03  0.47645654011E+03  0.45948088412E+03 0.  0.
      99925    2    3    3    0    0 -0.57758126257E+02 -0.10080422694E+03 -0.95246108863E+02  0.30298097706E+03  0.26311244344E+03 0.  0.
         25    1    4    4    0    0 -0.46100515886E+02 -0.12422640219E+02 -0.48777914184E+02  0.14250043006E+03  0.12509000000E+03 0.  0.
         25    1    4    4    0    0 -0.11657610372E+02 -0.88381586718E+02 -0.46468194679E+02  0.16048054701E+03  0.12509000000E+03 0.  0.
         25    1    3    3    0    0  0.57758126257E+02  0.10080422694E+03 -0.30802103103E+02  0.17347556304E+03  0.12509000000E+03 0.  0.
<mgrwt>
<rscale>  2 0.45948088E+03</rscale>
<asrwt>0</asrwt>
<pdfrwt beam="1">  1       21 0.25765319E-01 0.45948088E+03</pdfrwt>
<pdfrwt beam="2">  1       21 0.44301819E-01 0.45948088E+03</pdfrwt>
<totfact> 0.64630163E+04</totfact>
</mgrwt>
</event>
<event>
 7    0  0.4709932E-002  0.4554101E+03  0.7546771E-02  0.1026121E+00
         21   -1    0    0  502  501  0.00000000000E+00  0.00000000000E+00  0.13473036706E+03  0.13473036706E+03  0.00000000000E+00 0. -1.
         21   -1    0    0  501  502 -0.00000000000E+00 -0.00000000000E+00 -0.38483958796E+03  0.38483958796E+03  0.00000000000E+00 0. -1.
      99926    2    1    2    0    0 -0.14210854715E-13  0.00000000000E+00 -0.25010922091E+03  0.51956995502E+03  0.45541005235E+03 0.  0.
      99925    2    3    3    0    0 -0.85398180834E+02 -0.18693538733E+02 -0.74584246555E+02  0.28697841949E+03  0.26296673884E+03 0.  0.
         25    1    4    4    0    0 -0.14500360476E+02  0.38145708077E+01 -0.63333108674E+02  0.14100851804E+03  0.12509000000E+03 0.  0.
         25    1    4    4    0    0 -0.70897820358E+02 -0.22508109540E+02 -0.11251137881E+02  0.14596990145E+03  0.12509000000E+03 0.  0.
         25    1    3    3    0    0  0.85398180834E+02  0.18693538733E+02 -0.17552497435E+03  0.23259153553E+03  0.12509000000E+03 0.  0.
<mgrwt>
<rscale>  2 0.45541005E+03</rscale>
<asrwt>0</asrwt>
<pdfrwt beam="1">  1       21 0.19813289E-01 0.45541005E+03</pdfrwt>
<pdfrwt beam="2">  1       21 0.56594058E-01 0.45541005E+03</pdfrwt>
<totfact> 0.63709059E+04</totfact>
</mgrwt>
</event>
<event>
 7    0  0.4709932E-002  0.4587084E+03  0.7546771E-02  0.1025156E+00
         21   -1    0    0  502  501  0.00000000000E+00  0.00000000000E+00  0.16411735150E+03  0.16411735150E+03  0.00000000000E+00 0.  1.
         21   -1    0    0  501  502 -0.00000000000E+00 -0.00000000000E+00 -0.32052271451E+03  0.32052271451E+03  0.00000000000E+00 0.  1.
      99926    2    1    2    0    0  0.00000000000E+00  0.00000000000E+00 -0.15640536301E+03  0.48464006601E+03  0.45870835615E+03 0.  0.
      99925    2    3    3    0    0  0.23180480670E+02  0.11058479054E+03 -0.12863279999E+03  0.31380343662E+03  0.26298264015E+03 0.  0.
         25    1    3    3    0    0 -0.23180480670E+02 -0.11058479054E+03 -0.27772563013E+02  0.17083662938E+03  0.12509000000E+03 0.  0.
         25    1    4    4    0    0 -0.88922480115E+01  0.17503957674E+02 -0.65452167099E+02  0.14253755606E+03  0.12509000000E+03 0.  0.
         25    1    4    4    0    0  0.32072728681E+02  0.93080832867E+02 -0.63180632894E+02  0.17126588056E+03  0.12509000000E+03 0.  0.
<mgrwt>
<rscale>  2 0.45870836E+03</rscale>
<asrwt>0</asrwt>
<pdfrwt beam="1">  1       21 0.24134905E-01 0.45870836E+03</pdfrwt>
<pdfrwt beam="2">  1       21 0.47135693E-01 0.45870836E+03</pdfrwt>
<totfact> 0.64445785E+04</totfact>
</mgrwt>
</event>
<event>
 7    0  0.4709932E-002  0.4543626E+03  0.7546771E-02  0.1026429E+00
         21   -1    0    0  502  501  0.00000000000E+00  0.00000000000E+00  0.24271284295E+03  0.24271284295E+03  0.00000000000E+00 0.  1.
         21   -1    0    0  501  502 -0.00000000000E+00 -0.00000000000E+00 -0.21264364564E+03  0.21264364564E+03  0.00000000000E+00 0.  1.
      99926    2    1    2    0    0  0.00000000000E+00  0.00000000000E+00  0.30069197309E+02  0.45535648859E+03  0.45436260307E+03 0.  0.
      99925    2    3    3    0    0  0.34715851803E+02 -0.64076992136E+02  0.10499863874E+03  0.29234427867E+03  0.26292472658E+03 0.  0.
         25    1    3    3    0    0 -0.34715851803E+02  0.64076992136E+02 -0.74929441431E+02  0.16301220991E+03  0.12509000000E+03 0.  0.
         25    1    4    4    0    0  0.15608619539E+02 -0.44800871217E+02  0.94741066198E+02  0.16393329372E+03  0.12509000000E+03 0.  0.
         25    1    4    4    0    0  0.19107232264E+02 -0.19276120919E+02  0.10257572541E+02  0.12841098495E+03  0.12509000000E+03 0.  0.
<mgrwt>
<rscale>  2 0.45436260E+03</rscale>
<asrwt>0</asrwt>
<pdfrwt beam="1">  1       21 0.35693065E-01 0.45436260E+03</pdfrwt>
<pdfrwt beam="2">  1       21 0.31271124E-01 0.45436260E+03</pdfrwt>
<totfact> 0.68869300E+04</totfact>
</mgrwt>
</event>
<event>
 7    0  0.4709932E-002  0.5281830E+03  0.7546771E-02  0.1006674E+00
         21   -1    0    0  502  501  0.00000000000E+00  0.00000000000E+00  0.70242088763E+03  0.70242088763E+03  0.00000000000E+00 0.  1.
         21   -1    0    0  501  502 -0.00000000000E+00 -0.00000000000E+00 -0.99291340447E+02  0.99291340447E+02  0.00000000000E+00 0.  1.
      99926    2    1    2    0    0  0.00000000000E+00  0.00000000000E+00  0.60312954718E+03  0.80171222807E+03  0.52818296637E+03 0.  0.
      99925    2    3    3    0    0 -0.65107389927E+02  0.34607548109E+02  0.59685751178E+03  0.65637296587E+03  0.26296373582E+03 0.  0.
         25    1    4    4    0    0 -0.39554862807E+02  0.57715482407E+02  0.31804729858E+03  0.34885133842E+03  0.12509000000E+03 0.  0.
         25    1    4    4    0    0 -0.25552527120E+02 -0.23107934298E+02  0.27881021320E+03  0.30752162745E+03  0.12509000000E+03 0.  0.
         25    1    3    3    0    0  0.65107389927E+02 -0.34607548109E+02  0.62720354033E+01  0.14533926220E+03  0.12509000000E+03 0.  0.
<mgrwt>
<rscale>  2 0.52818297E+03</rscale>
<asrwt>0</asrwt>
<pdfrwt beam="1">  1       21 0.10329719E+00 0.52818297E+03</pdfrwt>
<pdfrwt beam="2">  1       21 0.14601668E-01 0.52818297E+03</pdfrwt>
<totfact> 0.27876216E+04</totfact>
</mgrwt>
</event>
<event>
 7    0  0.4709932E-002  0.4121647E+03  0.7546771E-02  0.1039647E+00
         21   -1    0    0  502  501  0.00000000000E+00  0.00000000000E+00  0.82886826651E+02  0.82886826651E+02  0.00000000000E+00 0.  1.
         21   -1    0    0  501  502 -0.00000000000E+00 -0.00000000000E+00 -0.51238459997E+03  0.51238459997E+03  0.00000000000E+00 0.  1.
      99926    2    1    2    0    0  0.11102230246E-14  0.00000000000E+00 -0.42949777332E+03  0.59527142662E+03  0.41216469289E+03 0.  0.
      99925    2    3    3    0    0 -0.13489191258E+01  0.65175587927E+02 -0.27458754220E+03  0.38576160669E+03  0.26299053598E+03 0.  0.
         25    1    4    4    0    0 -0.33973770237E+02  0.88394194369E+01 -0.13337787336E+03  0.18619752308E+03  0.12509000000E+03 0.  0.
         25    1    4    4    0    0  0.32624851111E+02  0.56336168490E+02 -0.14120966884E+03  0.19956408361E+03  0.12509000000E+03 0.  0.
         25    1    3    3    0    0  0.13489191258E+01 -0.65175587927E+02 -0.15491023111E+03  0.20950981993E+03  0.12509000000E+03 0.  0.
<mgrwt>
<rscale>  2 0.41216469E+03</rscale>
<asrwt>0</asrwt>
<pdfrwt beam="1">  1       21 0.12189240E-01 0.41216469E+03</pdfrwt>
<pdfrwt beam="2">  1       21 0.75350674E-01 0.41216469E+03</pdfrwt>
<totfact> 0.83979127E+04</totfact>
</mgrwt>
</event>
<event>
 7    0  0.4709932E-002  0.4552476E+03  0.7546771E-02  0.1026169E+00
         21   -1    0    0  502  501  0.00000000000E+00  0.00000000000E+00  0.25387037423E+04  0.25387037423E+04  0.00000000000E+00 0.  1.
         21   -1    0    0  501  502 -0.00000000000E+00 -0.00000000000E+00 -0.20409071613E+02  0.20409071613E+02  0.00000000000E+00 0.  1.
      99926    2    1    2    0    0  0.17763568394E-14  0.00000000000E+00  0.25182946707E+04  0.25591128140E+04  0.45524756554E+03 0.  0.
      99925    2    3    3    0    0 -0.15604771696E+02 -0.11229628727E+03  0.15717965711E+04  0.15976763232E+04  0.26300419729E+03 0.  0.
         25    1    4    4    0    0 -0.18682205153E+02 -0.97334021652E+02  0.93653168964E+03  0.95003265752E+03  0.12509000000E+03 0.  0.
         25    1    3    3    0    0  0.15604771696E+02  0.11229628727E+03  0.94649809959E+03  0.96143649071E+03  0.12509000000E+03 0.  0.
         25    1    4    4    0    0  0.30774334562E+01 -0.14962265614E+02  0.63526488150E+03  0.64764366572E+03  0.12509000000E+03 0.  0.
<mgrwt>
<rscale>  2 0.45524757E+03</rscale>
<asrwt>0</asrwt>
<pdfrwt beam="1">  1       21 0.37333857E+00 0.45524757E+03</pdfrwt>
<pdfrwt beam="2">  1       21 0.30013358E-02 0.45524757E+03</pdfrwt>
<totfact> 0.65331930E+03</totfact>
</mgrwt>
</event>
<event>
 7    0  0.4709932E-002  0.4414785E+03  0.7546771E-02  0.1030294E+00
         21   -1    0    0  502  501  0.00000000000E+00  0.00000000000E+00  0.41679254769E+03  0.41679254769E+03  0.00000000000E+00 0.  1.
         21   -1    0    0  501  502 -0.00000000000E+00 -0.00000000000E+00 -0.11690662834E+03  0.11690662834E+03  0.00000000000E+00 0.  1.
      99926    2    1    2    0    0  0.00000000000E+00  0.00000000000E+00  0.29988591935E+03  0.53369917603E+03  0.44147847724E+03 0.  0.
      99925    2    3    3    0    0  0.71102323385E+02 -0.18232615642E+02  0.10931573562E+03  0.29421541522E+03  0.26310608476E+03 0.  0.
         25    1    4    4    0    0  0.61470871646E+02 -0.39352063740E+02  0.71335048633E+02  0.16144178593E+03  0.12509000000E+03 0.  0.
         25    1    4    4    0    0  0.96314517392E+01  0.21119448098E+02  0.37980686985E+02  0.13277362929E+03  0.12509000000E+03 0.  0.
         25    1    3    3    0    0 -0.71102323385E+02  0.18232615642E+02  0.19057018373E+03  0.23948376081E+03  0.12509000000E+03 0.  0.
<mgrwt>
<rscale>  2 0.44147848E+03</rscale>
<asrwt>0</asrwt>
<pdfrwt beam="1">  1       21 0.61293021E-01 0.44147848E+03</pdfrwt>
<pdfrwt beam="2">  1       21 0.17192151E-01 0.44147848E+03</pdfrwt>
<totfact> 0.70170429E+04</totfact>
</mgrwt>
</event>
<event>
 7    0  0.4709932E-002  0.4527916E+03  0.7546771E-02  0.1026893E+00
         21   -1    0    0  502  501  0.00000000000E+00  0.00000000000E+00  0.19794465971E+03  0.19794465971E+03  0.00000000000E+00 0.  1.
         21   -1    0    0  501  502 -0.00000000000E+00 -0.00000000000E+00 -0.25893635172E+03  0.25893635172E+03  0.00000000000E+00 0.  1.
      99926    2    1    2    0    0  0.00000000000E+00  0.00000000000E+00 -0.60991692014E+02  0.45688101143E+03  0.45279164315E+03 0.  0.
      99925    2    3    3    0    0 -0.69532648475E+02 -0.73040769831E+02  0.93902914460E+01  0.28146472097E+03  0.26261086862E+03 0.  0.
         25    1    4    4    0    0 -0.67391703597E+01 -0.59780117055E+02 -0.11710101469E+02  0.13929721242E+03  0.12509000000E+03 0.  0.
         25    1    4    4    0    0 -0.62793478115E+02 -0.13260652776E+02  0.21100392915E+02  0.14216750855E+03  0.12509000000E+03 0.  0.
         25    1    3    3    0    0  0.69532648475E+02  0.73040769831E+02 -0.70381983460E+02  0.17541629046E+03  0.12509000000E+03 0.  0.
<mgrwt>
<rscale>  2 0.45279164E+03</rscale>
<asrwt>0</asrwt>
<pdfrwt beam="1">  1       21 0.29109509E-01 0.45279164E+03</pdfrwt>
<pdfrwt beam="2">  1       21 0.38078875E-01 0.45279164E+03</pdfrwt>
<totfact> 0.69626623E+04</totfact>
</mgrwt>
</event>
<event>
 7    0  0.4709932E-002  0.4586735E+03  0.7546771E-02  0.1025167E+00
         21   -1    0    0  502  501  0.00000000000E+00  0.00000000000E+00  0.41892231174E+03  0.41892231174E+03  0.00000000000E+00 0. -1.
         21   -1    0    0  501  502 -0.00000000000E+00 -0.00000000000E+00 -0.12554917725E+03  0.12554917725E+03  0.00000000000E+00 0. -1.
      99926    2    1    2    0    0  0.00000000000E+00  0.00000000000E+00  0.29337313449E+03  0.54447148898E+03  0.45867352908E+03 0.  0.
      99925    2    3    3    0    0  0.98835408885E+02 -0.17322363361E+02  0.11356923461E+03  0.30354524958E+03  0.26300807054E+03 0.  0.
         25    1    4    4    0    0  0.19171220858E+02 -0.27819014634E+02  0.75927963127E+02  0.15017988204E+03  0.12509000000E+03 0.  0.
         25    1    4    4    0    0  0.79664188027E+02  0.10496651273E+02  0.37641271481E+02  0.15336536754E+03  0.12509000000E+03 0.  0.
         25    1    3    3    0    0 -0.98835408885E+02  0.17322363361E+02  0.17980389988E+03  0.24092623941E+03  0.12509000000E+03 0.  0.
<mgrwt>
<rscale>  2 0.45867353E+03</rscale>
<asrwt>0</asrwt>
<pdfrwt beam="1">  1       21 0.61606222E-01 0.45867353E+03</pdfrwt>
<pdfrwt beam="2">  1       21 0.18463114E-01 0.45867353E+03</pdfrwt>
<totfact> 0.60456652E+04</totfact>
</mgrwt>
</event>
<event>
 7    0  0.4709932E-002  0.4594803E+03  0.7546771E-02  0.1024932E+00
         21   -1    0    0  502  501  0.00000000000E+00  0.00000000000E+00  0.72604077463E+03  0.72604077463E+03  0.00000000000E+00 0.  1.
         21   -1    0    0  501  502 -0.00000000000E+00 -0.00000000000E+00 -0.72696368656E+02  0.72696368656E+02  0.00000000000E+00 0.  1.
      99926    2    1    2    0    0  0.14210854715E-13  0.00000000000E+00  0.65334440597E+03  0.79873714329E+03  0.45948026209E+03 0.  0.
      99925    2    3    3    0    0  0.11072159622E+03 -0.16455554177E+02  0.34811236770E+03  0.45039225324E+03  0.26294658032E+03 0.  0.
         25    1    4    4    0    0  0.27394653314E+02  0.30723621089E+01  0.20627855739E+03  0.24281321582E+03  0.12509000000E+03 0.  0.
         25    1    4    4    0    0  0.83326942905E+02 -0.19527916286E+02  0.14183381031E+03  0.20757903742E+03  0.12509000000E+03 0.  0.
         25    1    3    3    0    0 -0.11072159622E+03  0.16455554177E+02  0.30523203827E+03  0.34834489004E+03  0.12509000000E+03 0.  0.
<mgrwt>
<rscale>  2 0.45948026E+03</rscale>
<asrwt>0</asrwt>
<pdfrwt beam="1">  1       21 0.10677070E+00 0.45948026E+03</pdfrwt>
<pdfrwt beam="2">  1       21 0.10690643E-01 0.45948026E+03</pdfrwt>
<totfact> 0.46180685E+04</totfact>
</mgrwt>
</event>
<event>
 7    0  0.4709932E-002  0.4534510E+03  0.7546771E-02  0.1026698E+00
         21   -1    0    0  502  501  0.00000000000E+00  0.00000000000E+00  0.53649755183E+03  0.53649755183E+03  0.00000000000E+00 0.  1.
         21   -1    0    0  501  502 -0.00000000000E+00 -0.00000000000E+00 -0.95814905605E+02  0.95814905605E+02  0.00000000000E+00 0.  1.
      99926    2    1    2    0    0  0.00000000000E+00  0.14210854715E-13  0.44068264622E+03  0.63231245743E+03  0.45345104382E+03 0.  0.
      99925    2    3    3    0    0 -0.28546636934E+02  0.65505263646E+02  0.15800229620E+03  0.31504043151E+03  0.26302071750E+03 0.  0.
         25    1    3    3    0    0  0.28546636934E+02 -0.65505263646E+02  0.28268035002E+03  0.31727202592E+03  0.12509000000E+03 0.  0.
         25    1    4    4    0    0 -0.41582816732E+02  0.58241952088E+02  0.63127045634E+02  0.15733336461E+03  0.12509000000E+03 0.  0.
         25    1    4    4    0    0  0.13036179798E+02  0.72633115577E+01  0.94875250568E+02  0.15770706690E+03  0.12509000000E+03 0.  0.
<mgrwt>
<rscale>  2 0.45345104E+03</rscale>
<asrwt>0</asrwt>
<pdfrwt beam="1">  1       21 0.78896698E-01 0.45345104E+03</pdfrwt>
<pdfrwt beam="2">  1       21 0.14090428E-01 0.45345104E+03</pdfrwt>
<totfact> 0.57431121E+04</totfact>
</mgrwt>
</event>
<event>
 7    0  0.4709932E-002  0.4536089E+03  0.7546771E-02  0.1026651E+00
         21   -1    0    0  502  501  0.00000000000E+00  0.00000000000E+00  0.27331464836E+03  0.27331464836E+03  0.00000000000E+00 0. -1.
         21   -1    0    0  501  502 -0.00000000000E+00 -0.00000000000E+00 -0.18820890667E+03  0.18820890667E+03  0.00000000000E+00 0. -1.
      99926    2    1    2    0    0  0.00000000000E+00 -0.71054273576E-14  0.85105741687E+02  0.46152355503E+03  0.45360886740E+03 0.  0.
      99925    2    3    3    0    0  0.40911029724E+01 -0.59622624466E+02  0.14983974631E+03  0.30852161411E+03  0.26298677216E+03 0.  0.
         25    1    4    4    0    0 -0.44418453336E+01 -0.30493669749E+00  0.10307019253E+03  0.16214436674E+03  0.12509000000E+03 0.  0.
         25    1    3    3    0    0 -0.40911029724E+01  0.59622624466E+02 -0.64734004620E+02  0.15300194092E+03  0.12509000000E+03 0.  0.
         25    1    4    4    0    0  0.85329483060E+01 -0.59317687768E+02  0.46769553778E+02  0.14637724738E+03  0.12509000000E+03 0.  0.
<mgrwt>
<rscale>  2 0.45360887E+03</rscale>
<asrwt>0</asrwt>
<pdfrwt beam="1">  1       21 0.40193331E-01 0.45360887E+03</pdfrwt>
<pdfrwt beam="2">  1       21 0.27677780E-01 0.45360887E+03</pdfrwt>
<totfact> 0.68826983E+04</totfact>
</mgrwt>
</event>
<event>
 7    0  0.4709932E-002  0.4573506E+03  0.7546771E-02  0.1025552E+00
         21   -1    0    0  502  501  0.00000000000E+00  0.00000000000E+00  0.74444767747E+02  0.74444767747E+02  0.00000000000E+00 0.  1.
         21   -1    0    0  501  502 -0.00000000000E+00 -0.00000000000E+00 -0.70243221323E+03  0.70243221323E+03  0.00000000000E+00 0.  1.
      99926    2    1    2    0    0 -0.19984014443E-14  0.00000000000E+00 -0.62798744548E+03  0.77687698097E+03  0.45735064435E+03 0.  0.
      99925    2    3    3    0    0 -0.13717199415E+01 -0.78334174144E+02 -0.53790120393E+03  0.60395745209E+03  0.26322760928E+03 0.  0.
         25    1    4    4    0    0 -0.24551313151E+02 -0.59266188902E+02 -0.22077669391E+03  0.26173479860E+03  0.12509000000E+03 0.  0.
         25    1    3    3    0    0  0.13717199415E+01  0.78334174144E+02 -0.90086241548E+02  0.17291952889E+03  0.12509000000E+03 0.  0.
         25    1    4    4    0    0  0.23179593209E+02 -0.19067985242E+02 -0.31712451002E+03  0.34222265349E+03  0.12509000000E+03 0.  0.
<mgrwt>
<rscale>  2 0.45735064E+03</rscale>
<asrwt>0</asrwt>
<pdfrwt beam="1">  1       21 0.10947759E-01 0.45735064E+03</pdfrwt>
<pdfrwt beam="2">  1       21 0.10329886E+00 0.45735064E+03</pdfrwt>
<totfact> 0.48011584E+04</totfact>
</mgrwt>
</event>
<event>
 7    0  0.4709932E-002  0.4485509E+03  0.7546771E-02  0.1028155E+00
         21   -1    0    0  502  501  0.00000000000E+00  0.00000000000E+00  0.27321182906E+04  0.27321182906E+04  0.00000000000E+00 0. -1.
         21   -1    0    0  501  502 -0.00000000000E+00 -0.00000000000E+00 -0.18410434957E+02  0.18410434957E+02  0.00000000000E+00 0. -1.
      99926    2    1    2    0    0  0.00000000000E+00  0.00000000000E+00  0.27137078556E+04  0.27505287255E+04  0.44855093839E+03 0.  0.
      99925    2    3    3    0    0  0.28292146454E+02 -0.46094523876E+02  0.11513970206E+04  0.11822851845E+04  0.26297910136E+03 0.  0.
         25    1    3    3    0    0 -0.28292146454E+02  0.46094523876E+02  0.15623108350E+04  0.15682435410E+04  0.12509000000E+03 0.  0.
         25    1    4    4    0    0  0.28397236868E+02  0.14638837362E+02  0.58338187697E+03  0.59749696326E+03  0.12509000000E+03 0.  0.
         25    1    4    4    0    0 -0.10509041380E+00 -0.60733361238E+02  0.56801514366E+03  0.58478822127E+03  0.12509000000E+03 0.  0.
<mgrwt>
<rscale>  2 0.44855094E+03</rscale>
<asrwt>0</asrwt>
<pdfrwt beam="1">  1       21 0.40178182E+00 0.44855094E+03</pdfrwt>
<pdfrwt beam="2">  1       21 0.27074188E-02 0.44855094E+03</pdfrwt>
<totfact> 0.51465774E+03</totfact>
</mgrwt>
</event>
<event>
 7    0  0.4709932E-002  0.4486503E+03  0.7546771E-02  0.1028125E+00
         21   -1    0    0  502  501  0.00000000000E+00  0.00000000000E+00  0.84643386740E+03  0.84643386740E+03  0.00000000000E+00 0.  1.
         21   -1    0    0  501  502 -0.00000000000E+00 -0.00000000000E+00 -0.59451521842E+02  0.59451521842E+02  0.00000000000E+00 0.  1.
      99926    2    1    2    0    0  0.00000000000E+00  0.00000000000E+00  0.78698234555E+03  0.90588538924E+03  0.44865033848E+03 0.  0.
      99925    2    3    3    0    0 -0.65185657339E+02  0.42286562150E+02  0.34958016112E+03  0.44436019782E+03  0.26308244544E+03 0.  0.
         25    1    3    3    0    0  0.65185657339E+02 -0.42286562150E+02  0.43740218444E+03  0.46152519142E+03  0.12509000000E+03 0.  0.
         25    1    4    4    0    0 -0.27742786812E+01  0.28744429560E+02  0.21142711033E+03  0.24735171302E+03  0.12509000000E+03 0.  0.
         25    1    4    4    0    0 -0.62411378658E+02  0.13542132590E+02  0.13815305078E+03  0.19700848480E+03  0.12509000000E+03 0.  0.
<mgrwt>
<rscale>  2 0.44865034E+03</rscale>
<asrwt>0</asrwt>
<pdfrwt beam="1">  1       21 0.12447556E+00 0.44865034E+03</pdfrwt>
<pdfrwt beam="2">  1       21 0.87428713E-02 0.44865034E+03</pdfrwt>
<totfact> 0.45183987E+04</totfact>
</mgrwt>
</event>
<event>
 7    0  0.4709932E-002  0.4597490E+03  0.7546771E-02  0.1024854E+00
         21   -1    0    0  502  501  0.00000000000E+00  0.00000000000E+00  0.82790839774E+03  0.82790839774E+03  0.00000000000E+00 0. -1.
         21   -1    0    0  501  502 -0.00000000000E+00 -0.00000000000E+00 -0.63826236414E+02  0.63826236414E+02  0.00000000000E+00 0. -1.
      99926    2    1    2    0    0  0.00000000000E+00  0.00000000000E+00  0.76408216132E+03  0.89173463415E+03  0.45974896247E+03 0.  0.
      99925    2    3    3    0    0 -0.10231475932E+03 -0.36420884266E+02  0.39358832665E+03  0.48589232436E+03  0.26340992619E+03 0.  0.
         25    1    3    3    0    0  0.10231475932E+03  0.36420884266E+02  0.37049383468E+03  0.40584230979E+03  0.12509000000E+03 0.  0.
         25    1    4    4    0    0 -0.54533220878E+02 -0.23176255267E+02  0.26895379183E+03  0.30248084439E+03  0.12509000000E+03 0.  0.
         25    1    4    4    0    0 -0.47781538439E+02 -0.13244628999E+02  0.12463453482E+03  0.18341147997E+03  0.12509000000E+03 0.  0.
<mgrwt>
<rscale>  2 0.45974896E+03</rscale>
<asrwt>0</asrwt>
<pdfrwt beam="1">  1       21 0.12175123E+00 0.45974896E+03</pdfrwt>
<pdfrwt beam="2">  1       21 0.93862117E-02 0.45974896E+03</pdfrwt>
<totfact> 0.42008891E+04</totfact>
</mgrwt>
</event>
<event>
 7    0  0.4709932E-002  0.4473291E+03  0.7546771E-02  0.1028522E+00
         21   -1    0    0  502  501  0.00000000000E+00  0.00000000000E+00  0.26865126485E+02  0.26865126485E+02  0.00000000000E+00 0. -1.
         21   -1    0    0  501  502 -0.00000000000E+00 -0.00000000000E+00 -0.18621106040E+04  0.18621106040E+04  0.00000000000E+00 0. -1.
      99926    2    1    2    0    0  0.00000000000E+00  0.00000000000E+00 -0.18352454775E+04  0.18889757304E+04  0.44732912673E+03 0.  0.
      99925    2    3    3    0    0  0.49123792971E+02 -0.25308790296E+02 -0.78247085227E+03  0.82735640061E+03  0.26306709615E+03 0.  0.
         25    1    4    4    0    0  0.52236839782E+02  0.16071229335E+02 -0.42347244809E+03  0.44493077466E+03  0.12509000000E+03 0.  0.
         25    1    4    4    0    0 -0.31130468107E+01 -0.41380019631E+02 -0.35899840417E+03  0.38242562595E+03  0.12509000000E+03 0.  0.
         25    1    3    3    0    0 -0.49123792971E+02  0.25308790296E+02 -0.10527746252E+04  0.10616193298E+04  0.12509000000E+03 0.  0.
<mgrwt>
<rscale>  2 0.44732913E+03</rscale>
<asrwt>0</asrwt>
<pdfrwt beam="1">  1       21 0.39507537E-02 0.44732913E+03</pdfrwt>
<pdfrwt beam="2">  1       21 0.27383981E+00 0.44732913E+03</pdfrwt>
<totfact> 0.16573161E+04</totfact>
</mgrwt>
</event>
<event>
 7    0  0.4709932E-002  0.4682373E+03  0.7546771E-02  0.1022419E+00
         21   -1    0    0  502  501  0.00000000000E+00  0.00000000000E+00  0.69080559242E+02  0.69080559242E+02  0.00000000000E+00 0. -1.
         21   -1    0    0  501  502 -0.00000000000E+00 -0.00000000000E+00 -0.79344377683E+03  0.79344377683E+03  0.00000000000E+00 0. -1.
      99926    2    1    2    0    0  0.00000000000E+00  0.00000000000E+00 -0.72436321758E+03  0.86252433607E+03  0.46823728955E+03 0.  0.
      99925    2    3    3    0    0 -0.38787822239E+02 -0.11717437562E+03 -0.48832763191E+03  0.56825467188E+03  0.26308775451E+03 0.  0.
         25    1    3    3    0    0  0.38787822239E+02  0.11717437562E+03 -0.23603558567E+03  0.29426966418E+03  0.12509000000E+03 0.  0.
         25    1    4    4    0    0 -0.53217293422E+02 -0.82129354011E+02 -0.24341708413E+03  0.29064875030E+03  0.12509000000E+03 0.  0.
         25    1    4    4    0    0  0.14429471183E+02 -0.35045021610E+02 -0.24491054779E+03  0.27760592158E+03  0.12509000000E+03 0.  0.
<mgrwt>
<rscale>  2 0.46823729E+03</rscale>
<asrwt>0</asrwt>
<pdfrwt beam="1">  1       21 0.10158906E-01 0.46823729E+03</pdfrwt>
<pdfrwt beam="2">  1       21 0.11668290E+00 0.46823729E+03</pdfrwt>
<totfact> 0.40511258E+04</totfact>
</mgrwt>
</event>
<event>
 7    0  0.4709932E-002  0.4522064E+03  0.7546771E-02  0.1027066E+00
         21   -1    0    0  502  501  0.00000000000E+00  0.00000000000E+00  0.74279218512E+03  0.74279218512E+03  0.00000000000E+00 0. -1.
         21   -1    0    0  501  502 -0.00000000000E+00 -0.00000000000E+00 -0.68824977386E+02  0.68824977386E+02  0.00000000000E+00 0. -1.
      99926    2    1    2    0    0 -0.26645352591E-14  0.71054273576E-14  0.67396720774E+03  0.81161716251E+03  0.45220639245E+03 0.  0.
      99925    2    3    3    0    0  0.50742017295E+01 -0.41718717689E+02  0.24161768597E+03  0.35957754477E+03  0.26296521748E+03 0.  0.
         25    1    3    3    0    0 -0.50742017295E+01  0.41718717689E+02  0.43234952177E+03  0.45203961774E+03  0.12509000000E+03 0.  0.
         25    1    4    4    0    0  0.23536261411E+02 -0.54512485976E+02  0.13937962829E+03  0.19646820509E+03  0.12509000000E+03 0.  0.
         25    1    4    4    0    0 -0.18462059681E+02  0.12793768287E+02  0.10223805768E+03  0.16310933968E+03  0.12509000000E+03 0.  0.
<mgrwt>
<rscale>  2 0.45220639E+03</rscale>
<asrwt>0</asrwt>
<pdfrwt beam="1">  1       21 0.10923414E+00 0.45220639E+03</pdfrwt>
<pdfrwt beam="2">  1       21 0.10121321E-01 0.45220639E+03</pdfrwt>
<totfact> 0.48257254E+04</totfact>
</mgrwt>
</event>
<event>
 7    0  0.4709932E-002  0.4623309E+03  0.7546771E-02  0.1024107E+00
         21   -1    0    0  502  501  0.00000000000E+00  0.00000000000E+00  0.12332443800E+03  0.12332443800E+03  0.00000000000E+00 0.  1.
         21   -1    0    0  501  502 -0.00000000000E+00 -0.00000000000E+00 -0.43330798377E+03  0.43330798377E+03  0.00000000000E+00 0.  1.
      99926    2    1    2    0    0  0.00000000000E+00  0.00000000000E+00 -0.30998354577E+03  0.55663242176E+03  0.46233089266E+03 0.  0.
      99925    2    3    3    0    0 -0.42900974172E+02 -0.99522831598E+02 -0.13192784571E+03  0.31353444148E+03  0.26297072447E+03 0.  0.
         25    1    4    4    0    0 -0.30613781574E+02 -0.90101174465E+02 -0.87516155095E+02  0.17989444340E+03  0.12509000000E+03 0.  0.
         25    1    4    4    0    0 -0.12287192597E+02 -0.94216571331E+01 -0.44411690619E+02  0.13363999809E+03  0.12509000000E+03 0.  0.
         25    1    3    3    0    0  0.42900974172E+02  0.99522831598E+02 -0.17805570006E+03  0.24309798028E+03  0.12509000000E+03 0.  0.
<mgrwt>
<rscale>  2 0.46233089E+03</rscale>
<asrwt>0</asrwt>
<pdfrwt beam="1">  1       21 0.18135947E-01 0.46233089E+03</pdfrwt>
<pdfrwt beam="2">  1       21 0.63721762E-01 0.46233089E+03</pdfrwt>
<totfact> 0.57993280E+04</totfact>
</mgrwt>
</event>
<event>
 7    0  0.4709932E-002  0.4526840E+03  0.7546771E-02  0.1026925E+00
         21   -1    0    0  502  501  0.00000000000E+00  0.00000000000E+00  0.37127188820E+02  0.37127188820E+02  0.00000000000E+00 0. -1.
         21   -1    0    0  501  502 -0.00000000000E+00 -0.00000000000E+00 -0.13798703041E+04  0.13798703041E+04  0.00000000000E+00 0. -1.
      99926    2    1    2    0    0 -0.35527136788E-14  0.00000000000E+00 -0.13427431153E+04  0.14169974929E+04  0.45268401928E+03 0.  0.
      99925    2    3    3    0    0 -0.30474334195E+02  0.94203017840E+02 -0.10035928195E+04  0.10421997810E+04  0.26301890161E+03 0.  0.
         25    1    3    3    0    0  0.30474334195E+02 -0.94203017840E+02 -0.33915029581E+03  0.37479771192E+03  0.12509000000E+03 0.  0.
         25    1    4    4    0    0  0.23941328341E+01  0.21360648324E+02 -0.36026441942E+03  0.38196854474E+03  0.12509000000E+03 0.  0.
         25    1    4    4    0    0 -0.32868467029E+02  0.72842369516E+02 -0.64332840005E+03  0.66023123626E+03  0.12509000000E+03 0.  0.
<mgrwt>
<rscale>  2 0.45268402E+03</rscale>
<asrwt>0</asrwt>
<pdfrwt beam="1">  1       21 0.54598798E-02 0.45268402E+03</pdfrwt>
<pdfrwt beam="2">  1       21 0.20292214E+00 0.45268402E+03</pdfrwt>
<totfact> 0.26353649E+04</totfact>
</mgrwt>
</event>
<event>
 7    0  0.4709932E-002  0.4491773E+03  0.7546771E-02  0.1027968E+00
         21   -1    0    0  502  501  0.00000000000E+00  0.00000000000E+00  0.11187918867E+04  0.11187918867E+04  0.00000000000E+00 0.  1.
         21   -1    0    0  501  502 -0.00000000000E+00 -0.00000000000E+00 -0.45084397498E+02  0.45084397498E+02  0.00000000000E+00 0.  1.
      99926    2    1    2    0    0  0.35527136788E-14 -0.35527136788E-14  0.10737074892E+04  0.11638762842E+04  0.44917728411E+03 0.  0.
      99925    2    3    3    0    0  0.27911338406E+02 -0.18084909849E+02  0.41415580565E+03  0.49174382839E+03  0.26302253635E+03 0.  0.
         25    1    4    4    0    0  0.10669773634E+02 -0.45996174251E+02  0.17965740549E+03  0.22395040425E+03  0.12509000000E+03 0.  0.
         25    1    4    4    0    0  0.17241564771E+02  0.27911264403E+02  0.23449840016E+03  0.26779342414E+03  0.12509000000E+03 0.  0.
         25    1    3    3    0    0 -0.27911338406E+02  0.18084909849E+02  0.65955168358E+03  0.67213245584E+03  0.12509000000E+03 0.  0.
<mgrwt>
<rscale>  2 0.44917728E+03</rscale>
<asrwt>0</asrwt>
<pdfrwt beam="1">  1       21 0.16452820E+00 0.44917728E+03</pdfrwt>
<pdfrwt beam="2">  1       21 0.66300592E-02 0.44917728E+03</pdfrwt>
<totfact> 0.34878334E+04</totfact>
</mgrwt>
</event>
<event>
 7    0  0.4709932E-002  0.4560905E+03  0.7546771E-02  0.1025921E+00
         21   -1    0    0  502  501  0.00000000000E+00  0.00000000000E+00  0.33442261389E+02  0.33442261389E+02  0.00000000000E+00 0. -1.
         21   -1    0    0  501  502 -0.00000000000E+00 -0.00000000000E+00 -0.15550575847E+04  0.15550575847E+04  0.00000000000E+00 0. -1.
      99926    2    1    2    0    0  0.35527136788E-14  0.00000000000E+00 -0.15216153233E+04  0.15884998461E+04  0.45609052708E+03 0.  0.
      99925    2    3    3    0    0  0.20393951529E+02 -0.97505520857E+02 -0.76300015027E+03  0.81321426727E+03  0.26310639544E+03 0.  0.
         25    1    3    3    0    0 -0.20393951529E+02  0.97505520857E+02 -0.75861517302E+03  0.77528557879E+03  0.12509000000E+03 0.  0.
         25    1    4    4    0    0 -0.22038857035E+02 -0.55594614054E+02 -0.45077307813E+03  0.47161461852E+03  0.12509000000E+03 0.  0.
         25    1    4    4    0    0  0.42432808564E+02 -0.41910906803E+02 -0.31222707214E+03  0.34159964875E+03  0.12509000000E+03 0.  0.
<mgrwt>
<rscale>  2 0.45609053E+03</rscale>
<asrwt>0</asrwt>
<pdfrwt beam="1">  1       21 0.49179800E-02 0.45609053E+03</pdfrwt>
<pdfrwt beam="2">  1       21 0.22868492E+00 0.45609053E+03</pdfrwt>
<totfact> 0.21508181E+04</totfact>
</mgrwt>
</event>
<event>
 7    0  0.4709932E-002  0.4421405E+03  0.7546771E-02  0.1030092E+00
         21   -1    0    0  502  501  0.00000000000E+00  0.00000000000E+00  0.68746281839E+03  0.68746281839E+03  0.00000000000E+00 0. -1.
         21   -1    0    0  501  502 -0.00000000000E+00 -0.00000000000E+00 -0.71090466101E+02  0.71090466101E+02  0.00000000000E+00 0. -1.
      99926    2    1    2    0    0  0.00000000000E+00 -0.71054273576E-14  0.61637235229E+03  0.75855328449E+03  0.44214048530E+03 0.  0.
      99925    2    3    3    0    0  0.24040227029E+01 -0.53234726279E+02  0.53903903120E+03  0.60213184715E+03  0.26298282985E+03 0.  0.
         25    1    4    4    0    0 -0.32218075184E+01 -0.67701813675E+02  0.28383869206E+03  0.31749933359E+03  0.12509000000E+03 0.  0.
         25    1    4    4    0    0  0.56258302214E+01  0.14467087397E+02  0.25520033913E+03  0.28463251356E+03  0.12509000000E+03 0.  0.
         25    1    3    3    0    0 -0.24040227029E+01  0.53234726279E+02  0.77333321092E+02  0.15642143734E+03  0.12509000000E+03 0.  0.
<mgrwt>
<rscale>  2 0.44214049E+03</rscale>
<asrwt>0</asrwt>
<pdfrwt beam="1">  1       21 0.10109747E+00 0.44214049E+03</pdfrwt>
<pdfrwt beam="2">  1       21 0.10454481E-01 0.44214049E+03</pdfrwt>
<totfact> 0.55200364E+04</totfact>
</mgrwt>
</event>
<event>
 7    0  0.4709932E-002  0.4508078E+03  0.7546771E-02  0.1027481E+00
         21   -1    0    0  502  501  0.00000000000E+00  0.00000000000E+00  0.22922095890E+03  0.22922095890E+03  0.00000000000E+00 0.  1.
         21   -1    0    0  501  502 -0.00000000000E+00 -0.00000000000E+00 -0.22165038169E+03  0.22165038169E+03  0.00000000000E+00 0.  1.
      99926    2    1    2    0    0  0.00000000000E+00  0.00000000000E+00  0.75705772084E+01  0.45087134060E+03  0.45080777736E+03 0.  0.
      99925    2    3    3    0    0  0.84520181078E+02  0.28709466446E+02 -0.58072396599E+02  0.28376537845E+03  0.26302564949E+03 0.  0.
         25    1    3    3    0    0 -0.84520181078E+02 -0.28709466446E+02  0.65642973807E+02  0.16710596214E+03  0.12509000000E+03 0.  0.
         25    1    4    4    0    0  0.63625977927E+02  0.38383448255E+02 -0.39825183311E+01  0.14555041298E+03  0.12509000000E+03 0.  0.
         25    1    4    4    0    0  0.20894203151E+02 -0.96739818086E+01 -0.54089878268E+02  0.13821496547E+03  0.12509000000E+03 0.  0.
<mgrwt>
<rscale>  2 0.45080778E+03</rscale>
<asrwt>0</asrwt>
<pdfrwt beam="1">  1       21 0.33708965E-01 0.45080778E+03</pdfrwt>
<pdfrwt beam="2">  1       21 0.32595644E-01 0.45080778E+03</pdfrwt>
<totfact> 0.71201332E+04</totfact>
</mgrwt>
</event>
<event>
 7    0  0.4709932E-002  0.4559614E+03  0.7546771E-02  0.1025959E+00
         21   -1    0    0  502  501  0.00000000000E+00  0.00000000000E+00  0.75211077824E+03  0.75211077824E+03  0.00000000000E+00 0.  1.
         21   -1    0    0  501  502 -0.00000000000E+00 -0.00000000000E+00 -0.69105774219E+02  0.69105774219E+02  0.00000000000E+00 0.  1.
      99926    2    1    2    0    0 -0.14210854715E-13  0.71054273576E-14  0.68300500402E+03  0.82121655245E+03  0.45596139147E+03 0.  0.
      99925    2    3    3    0    0 -0.10435871328E+03  0.32802085005E+02  0.48758546367E+03  0.56469555396E+03  0.26301096264E+03 0.  0.
         25    1    3    3    0    0  0.10435871328E+03 -0.32802085005E+02  0.19541954035E+03  0.25652099849E+03  0.12509000000E+03 0.  0.
         25    1    4    4    0    0 -0.13367850259E+02  0.32460659917E+02  0.21090040933E+03  0.24770725589E+03  0.12509000000E+03 0.  0.
         25    1    4    4    0    0 -0.90990863017E+02  0.34142508822E+00  0.27668505433E+03  0.31698829807E+03  0.12509000000E+03 0.  0.
<mgrwt>
<rscale>  2 0.45596139E+03</rscale>
<asrwt>0</asrwt>
<pdfrwt beam="1">  1       21 0.11060452E+00 0.45596139E+03</pdfrwt>
<pdfrwt beam="2">  1       21 0.10162614E-01 0.45596139E+03</pdfrwt>
<totfact> 0.46404608E+04</totfact>
</mgrwt>
</event>
<event>
 7    0  0.4709932E-002  0.4534373E+03  0.7546771E-02  0.1026702E+00
         21   -1    0    0  502  501  0.00000000000E+00  0.00000000000E+00  0.11116685485E+03  0.11116685485E+03  0.00000000000E+00 0. -1.
         21   -1    0    0  501  502 -0.00000000000E+00 -0.00000000000E+00 -0.46238013393E+03  0.46238013393E+03  0.00000000000E+00 0. -1.
      99926    2    1    2    0    0 -0.17763568394E-14  0.00000000000E+00 -0.35121327908E+03  0.57354698878E+03  0.45343729548E+03 0.  0.
      99925    2    3    3    0    0 -0.13331620429E+02  0.33177319011E+02 -0.87413199692E+02  0.27941018968E+03  0.26296486460E+03 0.  0.
         25    1    3    3    0    0  0.13331620429E+02 -0.33177319011E+02 -0.26380007939E+03  0.29413679910E+03  0.12509000000E+03 0.  0.
         25    1    4    4    0    0  0.21868850450E+02 -0.20084729841E+01 -0.65873372820E+02  0.14307022727E+03  0.12509000000E+03 0.  0.
         25    1    4    4    0    0 -0.35200470879E+02  0.35185791995E+02 -0.21539826872E+02  0.13633996241E+03  0.12509000000E+03 0.  0.
<mgrwt>
<rscale>  2 0.45343730E+03</rscale>
<asrwt>0</asrwt>
<pdfrwt beam="1">  1       21 0.16348067E-01 0.45343730E+03</pdfrwt>
<pdfrwt beam="2">  1       21 0.67997079E-01 0.45343730E+03</pdfrwt>
<totfact> 0.61088134E+04</totfact>
</mgrwt>
</event>
<event>
 7    0  0.4709932E-002  0.4562438E+03  0.7546771E-02  0.1025876E+00
         21   -1    0    0  502  501  0.00000000000E+00  0.00000000000E+00  0.11219341980E+03  0.11219341980E+03  0.00000000000E+00 0.  1.
         21   -1    0    0  501  502 -0.00000000000E+00 -0.00000000000E+00 -0.46383830232E+03  0.46383830232E+03  0.00000000000E+00 0.  1.
      99926    2    1    2    0    0  0.00000000000E+00  0.00000000000E+00 -0.35164488251E+03  0.57603172212E+03  0.45624381803E+03 0.  0.
      99925    2    3    3    0    0 -0.10213935612E+03  0.38717410946E+02 -0.17831358757E+03  0.33598436870E+03  0.26297960856E+03 0.  0.
         25    1    4    4    0    0 -0.72723795302E+02  0.12870082308E+02 -0.13397143505E+03  0.19761134313E+03  0.12509000000E+03 0.  0.
         25    1    4    4    0    0 -0.29415560816E+02  0.25847328638E+02 -0.44342152516E+02  0.13837302557E+03  0.12509000000E+03 0.  0.
         25    1    3    3    0    0  0.10213935612E+03 -0.38717410946E+02 -0.17333129494E+03  0.24004735342E+03  0.12509000000E+03 0.  0.
<mgrwt>
<rscale>  2 0.45624382E+03</rscale>
<asrwt>0</asrwt>
<pdfrwt beam="1">  1       21 0.16499032E-01 0.45624382E+03</pdfrwt>
<pdfrwt beam="2">  1       21 0.68211516E-01 0.45624382E+03</pdfrwt>
<totfact> 0.59590180E+04</totfact>
</mgrwt>
</event>
<event>
 7    0  0.4709932E-002  0.4547419E+03  0.7546771E-02  0.1026317E+00
         21   -1    0    0  502  501  0.00000000000E+00  0.00000000000E+00  0.32897669945E+03  0.32897669945E+03  0.00000000000E+00 0.  1.
         21   -1    0    0  501  502 -0.00000000000E+00 -0.00000000000E+00 -0.15714653178E+03  0.15714653178E+03  0.00000000000E+00 0.  1.
      99926    2    1    2    0    0  0.00000000000E+00  0.88817841970E-15  0.17183016767E+03  0.48612323123E+03  0.45474189319E+03 0.  0.
      99925    2    3    3    0    0  0.11289567352E+03  0.37228574092E+01  0.10648847452E+03  0.30535725620E+03  0.26295240242E+03 0.  0.
         25    1    3    3    0    0 -0.11289567352E+03 -0.37228574092E+01  0.65341693152E+02  0.18076597504E+03  0.12509000000E+03 0.  0.
         25    1    4    4    0    0  0.36550706009E+02  0.23748220291E+02  0.19861405037E+02  0.13394743591E+03  0.12509000000E+03 0.  0.
         25    1    4    4    0    0  0.76344967514E+02 -0.20025362882E+02  0.86627069483E+02  0.17140982029E+03  0.12509000000E+03 0.  0.
<mgrwt>
<rscale>  2 0.45474189E+03</rscale>
<asrwt>0</asrwt>
<pdfrwt beam="1">  1       21 0.48378926E-01 0.45474189E+03</pdfrwt>
<pdfrwt beam="2">  1       21 0.23109784E-01 0.45474189E+03</pdfrwt>
<totfact> 0.66392940E+04</totfact>
</mgrwt>
</event>
<event>
 7    0  0.4709932E-002  0.4626664E+03  0.7546771E-02  0.1024011E+00
         21   -1    0    0  502  501  0.00000000000E+00  0.00000000000E+00  0.43068349259E+03  0.43068349259E+03  0.00000000000E+00 0. -1.
         21   -1    0    0  501  502 -0.00000000000E+00 -0.00000000000E+00 -0.12425611376E+03  0.12425611376E+03  0.00000000000E+00 0. -1.
      99926    2    1    2    0    0  0.00000000000E+00  0.17763568394E-14  0.30642737884E+03  0.55493960635E+03  0.46266643297E+03 0.  0.
      99925    2    3    3    0    0 -0.96047070212E+02 -0.34332800229E+01  0.10498796454E+03  0.29908384065E+03  0.26304342595E+03 0.  0.
         25    1    4    4    0    0 -0.37739263039E+02  0.37324729449E+02  0.44539798002E+02  0.14299891297E+03  0.12509000000E+03 0.  0.
         25    1    3    3    0    0  0.96047070212E+02  0.34332800229E+01  0.20143941430E+03  0.25585576570E+03  0.12509000000E+03 0.  0.
         25    1    4    4    0    0 -0.58307807173E+02 -0.40758009472E+02  0.60448166534E+02  0.15608492769E+03  0.12509000000E+03 0.  0.
<mgrwt>
<rscale>  2 0.46266643E+03</rscale>
<asrwt>0</asrwt>
<pdfrwt beam="1">  1       21 0.63335807E-01 0.46266643E+03</pdfrwt>
<pdfrwt beam="2">  1       21 0.18272958E-01 0.46266643E+03</pdfrwt>
<totfact> 0.57946077E+04</totfact>
</mgrwt>
</event>
<event>
 7    0  0.4709932E-002  0.4537082E+03  0.7546771E-02  0.1026622E+00
         21   -1    0    0  502  501  0.00000000000E+00  0.00000000000E+00  0.15255530281E+03  0.15255530281E+03  0.00000000000E+00 0.  1.
         21   -1    0    0  501  502 -0.00000000000E+00 -0.00000000000E+00 -0.33733852458E+03  0.33733852458E+03  0.00000000000E+00 0.  1.
      99926    2    1    2    0    0  0.00000000000E+00  0.00000000000E+00 -0.18478322177E+03  0.48989382739E+03  0.45370819154E+03 0.  0.
      99925    2    3    3    0    0 -0.10990883237E+03 -0.17078667044E+02 -0.13055690030E+03  0.31394032688E+03  0.26294826930E+03 0.  0.
         25    1    4    4    0    0 -0.82715685111E+02 -0.15084539994E+01 -0.10338377351E+03  0.18215343181E+03  0.12509000000E+03 0.  0.
         25    1    4    4    0    0 -0.27193147262E+02 -0.15570213044E+02 -0.27173126787E+02  0.13178689507E+03  0.12509000000E+03 0.  0.
         25    1    3    3    0    0  0.10990883237E+03  0.17078667044E+02 -0.54226321477E+02  0.17595350051E+03  0.12509000000E+03 0.  0.
<mgrwt>
<rscale>  2 0.45370819E+03</rscale>
<asrwt>0</asrwt>
<pdfrwt beam="1">  1       21 0.22434603E-01 0.45370819E+03</pdfrwt>
<pdfrwt beam="2">  1       21 0.49608607E-01 0.45370819E+03</pdfrwt>
<totfact> 0.66667723E+04</totfact>
</mgrwt>
</event>
<event>
 7    0  0.4709932E-002  0.4524513E+03  0.7546771E-02  0.1026994E+00
         21   -1    0    0  502  501  0.00000000000E+00  0.00000000000E+00  0.14391522744E+04  0.14391522744E+04  0.00000000000E+00 0. -1.
         21   -1    0    0  501  502 -0.00000000000E+00 -0.00000000000E+00 -0.35561243333E+02  0.35561243333E+02  0.00000000000E+00 0. -1.
      99926    2    1    2    0    0  0.14210854715E-13  0.00000000000E+00  0.14035910310E+04  0.14747135177E+04  0.45245129781E+03 0.  0.
      99925    2    3    3    0    0 -0.90947688385E+02  0.27875423023E+02  0.10700850267E+04  0.11060371227E+04  0.26303541797E+03 0.  0.
         25    1    4    4    0    0 -0.53491313479E+02 -0.70160775895E+01  0.67090821741E+03  0.68459907263E+03  0.12509000000E+03 0.  0.
         25    1    4    4    0    0 -0.37456374905E+02  0.34891500613E+02  0.39917680931E+03  0.42143805004E+03  0.12509000000E+03 0.  0.
         25    1    3    3    0    0  0.90947688385E+02 -0.27875423023E+02  0.33350600431E+03  0.36867639502E+03  0.12509000000E+03 0.  0.
<mgrwt>
<rscale>  2 0.45245130E+03</rscale>
<asrwt>0</asrwt>
<pdfrwt beam="1">  1       21 0.21164000E+00 0.45245130E+03</pdfrwt>
<pdfrwt beam="2">  1       21 0.52295956E-02 0.45245130E+03</pdfrwt>
<totfact> 0.24894957E+04</totfact>
</mgrwt>
</event>
<event>
 7    0  0.4709932E-002  0.4555708E+03  0.7546771E-02  0.1026074E+00
         21   -1    0    0  502  501  0.00000000000E+00  0.00000000000E+00  0.10288483850E+04  0.10288483850E+04  0.00000000000E+00 0.  1.
         21   -1    0    0  501  502 -0.00000000000E+00 -0.00000000000E+00 -0.50431336280E+02  0.50431336280E+02  0.00000000000E+00 0.  1.
      99926    2    1    2    0    0  0.00000000000E+00  0.00000000000E+00  0.97841704874E+03  0.10792797213E+04  0.45557084580E+03 0.  0.
      99925    2    3    3    0    0 -0.68835244082E+02 -0.81892291768E+02  0.70662847347E+03  0.76153583697E+03  0.26299884638E+03 0.  0.
         25    1    4    4    0    0 -0.59175872945E+02 -0.25888190879E+02  0.28121943066E+03  0.31448983870E+03  0.12509000000E+03 0.  0.
         25    1    4    4    0    0 -0.96593711377E+01 -0.56004100889E+02  0.42540904281E+03  0.44704599827E+03  0.12509000000E+03 0.  0.
         25    1    3    3    0    0  0.68835244082E+02  0.81892291768E+02  0.27178857527E+03  0.31774388433E+03  0.12509000000E+03 0.  0.
<mgrwt>
<rscale>  2 0.45557085E+03</rscale>
<asrwt>0</asrwt>
<pdfrwt beam="1">  1       21 0.15130122E+00 0.45557085E+03</pdfrwt>
<pdfrwt beam="2">  1       21 0.74163737E-02 0.45557085E+03</pdfrwt>
<totfact> 0.36060141E+04</totfact>
</mgrwt>
</event>
<event>
 7    0  0.4709932E-002  0.4409273E+03  0.7546771E-02  0.1030463E+00
         21   -1    0    0  502  501  0.00000000000E+00  0.00000000000E+00  0.19578529241E+03  0.19578529241E+03  0.00000000000E+00 0.  1.
         21   -1    0    0  501  502 -0.00000000000E+00 -0.00000000000E+00 -0.24825271079E+03  0.24825271079E+03  0.00000000000E+00 0.  1.
      99926    2    1    2    0    0  0.71054273576E-14 -0.71054273576E-14 -0.52467418377E+02  0.44403800319E+03  0.44092733901E+03 0.  0.
      99925    2    3    3    0    0 -0.62593940974E+02  0.56101528264E+02  0.19721925582E+02  0.27693266994E+03  0.26312994207E+03 0.  0.
         25    1    4    4    0    0 -0.24293691514E+02  0.50044216240E+02  0.43877329159E+02  0.14376138265E+03  0.12509000000E+03 0.  0.
         25    1    3    3    0    0  0.62593940974E+02 -0.56101528264E+02 -0.72189343959E+02  0.16710533325E+03  0.12509000000E+03 0.  0.
         25    1    4    4    0    0 -0.38300249460E+02  0.60573120240E+01 -0.24155403577E+02  0.13317128729E+03  0.12509000000E+03 0.  0.
<mgrwt>
<rscale>  2 0.44092734E+03</rscale>
<asrwt>0</asrwt>
<pdfrwt beam="1">  1       21 0.28791955E-01 0.44092734E+03</pdfrwt>
<pdfrwt beam="2">  1       21 0.36507752E-01 0.44092734E+03</pdfrwt>
<totfact> 0.77723074E+04</totfact>
</mgrwt>
</event>
<event>
 7    0  0.4709932E-002  0.4545845E+03  0.7546771E-02  0.1026364E+00
         21   -1    0    0  502  501  0.00000000000E+00  0.00000000000E+00  0.62951828628E+03  0.62951828628E+03  0.00000000000E+00 0.  1.
         21   -1    0    0  501  502 -0.00000000000E+00 -0.00000000000E+00 -0.82065549068E+02  0.82065549068E+02  0.00000000000E+00 0.  1.
      99926    2    1    2    0    0  0.66613381478E-15 -0.14210854715E-13  0.54745273722E+03  0.71158383535E+03  0.45458448637E+03 0.  0.
      99925    2    3    3    0    0  0.16593269130E+01  0.11177453582E+03  0.32202306143E+03  0.43058143848E+03  0.26306885571E+03 0.  0.
         25    1    3    3    0    0 -0.16593269130E+01 -0.11177453582E+03  0.22542967578E+03  0.28100239687E+03  0.12509000000E+03 0.  0.
         25    1    4    4    0    0 -0.15186107728E+02  0.89432409594E+02  0.14402721350E+03  0.21123475113E+03  0.12509000000E+03 0.  0.
         25    1    4    4    0    0  0.16845434641E+02  0.22342126231E+02  0.17799584793E+03  0.21934668735E+03  0.12509000000E+03 0.  0.
<mgrwt>
<rscale>  2 0.45458449E+03</rscale>
<asrwt>0</asrwt>
<pdfrwt beam="1">  1       21 0.92576216E-01 0.45458449E+03</pdfrwt>
<pdfrwt beam="2">  1       21 0.12068463E-01 0.45458449E+03</pdfrwt>
<totfact> 0.52449803E+04</totfact>
</mgrwt>
</event>
<event>
 7    0  0.4709932E-002  0.4546148E+03  0.7546771E-02  0.1026355E+00
         21   -1    0    0  502  501  0.00000000000E+00  0.00000000000E+00  0.11762470750E+03  0.11762470750E+03  0.00000000000E+00 0. -1.
         21   -1    0    0  501  502 -0.00000000000E+00 -0.00000000000E+00 -0.43926710412E+03  0.43926710412E+03  0.00000000000E+00 0. -1.
      99926    2    1    2    0    0 -0.17763568394E-14 -0.14210854715E-13 -0.32164239662E+03  0.55689181162E+03  0.45461484637E+03 0.  0.
      99925    2    3    3    0    0 -0.86058445607E+01 -0.91815924144E+02 -0.28203086778E+03  0.39651473781E+03  0.26301768464E+03 0.  0.
         25    1    4    4    0    0 -0.90681476760E+01 -0.16689716614E+02 -0.89692530986E+02  0.15509041285E+03  0.12509000000E+03 0.  0.
         25    1    3    3    0    0  0.86058445607E+01  0.91815924144E+02 -0.39611528845E+02  0.16037707381E+03  0.12509000000E+03 0.  0.
         25    1    4    4    0    0  0.46230311534E+00 -0.75126207531E+02 -0.19233833679E+03  0.24142432496E+03  0.12509000000E+03 0.  0.
<mgrwt>
<rscale>  2 0.45461485E+03</rscale>
<asrwt>0</asrwt>
<pdfrwt beam="1">  1       21 0.17297751E-01 0.45461485E+03</pdfrwt>
<pdfrwt beam="2">  1       21 0.64598103E-01 0.45461485E+03</pdfrwt>
<totfact> 0.61600849E+04</totfact>
</mgrwt>
</event>
<event>
 7    0  0.4709932E-002  0.4181066E+03  0.7546771E-02  0.1037684E+00
         21   -1    0    0  502  501  0.00000000000E+00  0.00000000000E+00  0.55526334692E+03  0.55526334692E+03  0.00000000000E+00 0.  1.
         21   -1    0    0  501  502 -0.00000000000E+00 -0.00000000000E+00 -0.78707303336E+02  0.78707303336E+02  0.00000000000E+00 0.  1.
      99926    2    1    2    0    0  0.35527136788E-14  0.00000000000E+00  0.47655604359E+03  0.63397065026E+03  0.41810659252E+03 0.  0.
      99925    2    3    3    0    0 -0.16690855027E+02  0.70108640628E+02  0.28978435253E+03  0.39790926245E+03  0.26298860059E+03 0.  0.
         25    1    4    4    0    0  0.25606855471E+02  0.35853463789E+02  0.17531378824E+03  0.21982632772E+03  0.12509000000E+03 0.  0.
         25    1    3    3    0    0  0.16690855027E+02 -0.70108640628E+02  0.18677169105E+03  0.23606138780E+03  0.12509000000E+03 0.  0.
         25    1    4    4    0    0 -0.42297710498E+02  0.34255176838E+02  0.11447056430E+03  0.17808293473E+03  0.12509000000E+03 0.  0.
<mgrwt>
<rscale>  2 0.41810659E+03</rscale>
<asrwt>0</asrwt>
<pdfrwt beam="1">  1       21 0.81656373E-01 0.41810659E+03</pdfrwt>
<pdfrwt beam="2">  1       21 0.11574604E-01 0.41810659E+03</pdfrwt>
<totfact> 0.76611979E+04</totfact>
</mgrwt>
</event>
<event>
 7    0  0.4709932E-002  0.4564799E+03  0.7546771E-02  0.1025807E+00
         21   -1    0    0  502  501  0.00000000000E+00  0.00000000000E+00  0.31779499072E+03  0.31779499072E+03  0.00000000000E+00 0. -1.
         21   -1    0    0  501  502 -0.00000000000E+00 -0.00000000000E+00 -0.16392162127E+03  0.16392162127E+03  0.00000000000E+00 0. -1.
      99926    2    1    2    0    0 -0.17763568394E-14  0.00000000000E+00  0.15387336944E+03  0.48171661199E+03  0.45647987956E+03 0.  0.
      99925    2    3    3    0    0  0.13069571527E+02  0.95229927250E+02  0.16242401080E+03  0.32372871907E+03  0.26301933678E+03 0.  0.
         25    1    4    4    0    0 -0.17752889871E+02  0.77156359860E+02  0.67593341036E+02  0.16274101148E+03  0.12509000000E+03 0.  0.
         25    1    4    4    0    0  0.30822461398E+02  0.18073567390E+02  0.94830669767E+02  0.16098770758E+03  0.12509000000E+03 0.  0.
         25    1    3    3    0    0 -0.13069571527E+02 -0.95229927250E+02 -0.85506413584E+01  0.15798789293E+03  0.12509000000E+03 0.  0.
<mgrwt>
<rscale>  2 0.45647988E+03</rscale>
<asrwt>0</asrwt>
<pdfrwt beam="1">  1       21 0.46734557E-01 0.45647988E+03</pdfrwt>
<pdfrwt beam="2">  1       21 0.24106121E-01 0.45647988E+03</pdfrwt>
<totfact> 0.65799024E+04</totfact>
</mgrwt>
</event>
<event>
 7    0  0.4709932E-002  0.4532963E+03  0.7546771E-02  0.1026744E+00
         21   -1    0    0  502  501  0.00000000000E+00  0.00000000000E+00  0.67211067892E+03  0.67211067892E+03  0.00000000000E+00 0.  1.
         21   -1    0    0  501  502 -0.00000000000E+00 -0.00000000000E+00 -0.76429934183E+02  0.76429934183E+02  0.00000000000E+00 0.  1.
      99926    2    1    2    0    0 -0.88817841970E-15 -0.14210854715E-13  0.59568074474E+03  0.74854061310E+03  0.45329626054E+03 0.  0.
      99925    2    3    3    0    0  0.65250945401E+01 -0.80940134797E+02  0.50154464035E+03  0.57218019655E+03  0.26315255798E+03 0.  0.
         25    1    4    4    0    0  0.35950324321E+02 -0.56697643734E+02  0.30049251144E+03  0.33234064776E+03  0.12509000000E+03 0.  0.
         25    1    3    3    0    0 -0.65250945401E+01  0.80940134797E+02  0.94136104386E+02  0.17636041656E+03  0.12509000000E+03 0.  0.
         25    1    4    4    0    0 -0.29425229781E+02 -0.24242491063E+02  0.20105212891E+03  0.23983954879E+03  0.12509000000E+03 0.  0.
<mgrwt>
<rscale>  2 0.45329626E+03</rscale>
<asrwt>0</asrwt>
<pdfrwt beam="1">  1       21 0.98839802E-01 0.45329626E+03</pdfrwt>
<pdfrwt beam="2">  1       21 0.11239697E-01 0.45329626E+03</pdfrwt>
<totfact> 0.51025335E+04</totfact>
</mgrwt>
</event>
<event>
 7    0  0.4709932E-002  0.4420927E+03  0.7546771E-02  0.1030107E+00
         21   -1    0    0  502  501  0.00000000000E+00  0.00000000000E+00  0.14165115818E+03  0.14165115818E+03  0.00000000000E+00 0. -1.
         21   -1    0    0  501  502 -0.00000000000E+00 -0.00000000000E+00 -0.34494234589E+03  0.34494234589E+03  0.00000000000E+00 0. -1.
      99926    2    1    2    0    0  0.00000000000E+00  0.71054273576E-14 -0.20329118771E+03  0.48659350407E+03  0.44209267264E+03 0.  0.
      99925    2    3    3    0    0  0.61776835014E+02  0.44631891780E+02 -0.57257471928E+02  0.27975603804E+03  0.26301452360E+03 0.  0.
         25    1    4    4    0    0  0.10290724823E+02 -0.10052888481E+02 -0.43437199995E+02  0.13319631387E+03  0.12509000000E+03 0.  0.
         25    1    4    4    0    0  0.51486110191E+02  0.54684780261E+02 -0.13820271933E+02  0.14655972418E+03  0.12509000000E+03 0.  0.
         25    1    3    3    0    0 -0.61776835014E+02 -0.44631891780E+02 -0.14603371578E+03  0.20683746603E+03  0.12509000000E+03 0.  0.
<mgrwt>
<rscale>  2 0.44209267E+03</rscale>
<asrwt>0</asrwt>
<pdfrwt beam="1">  1       21 0.20831053E-01 0.44209267E+03</pdfrwt>
<pdfrwt beam="2">  1       21 0.50726815E-01 0.44209267E+03</pdfrwt>
<totfact> 0.73467345E+04</totfact>
</mgrwt>
</event>
<event>
 7    0  0.4709932E-002  0.4551341E+03  0.7546771E-02  0.1026202E+00
         21   -1    0    0  502  501  0.00000000000E+00  0.00000000000E+00  0.87321141995E+03  0.87321141995E+03  0.00000000000E+00 0. -1.
         21   -1    0    0  501  502 -0.00000000000E+00 -0.00000000000E+00 -0.59306088462E+02  0.59306088462E+02  0.00000000000E+00 0. -1.
      99926    2    1    2    0    0  0.00000000000E+00  0.35527136788E-14  0.81390533149E+03  0.93251750842E+03  0.45513406253E+03 0.  0.
      99925    2    3    3    0    0 -0.11042091225E+03 -0.17045234544E+02  0.47360916344E+03  0.55313339176E+03  0.26299732223E+03 0.  0.
         25    1    4    4    0    0 -0.57412543604E+02  0.11248840090E+02  0.30466475177E+03  0.33450090529E+03  0.12509000000E+03 0.  0.
         25    1    4    4    0    0 -0.53008368644E+02 -0.28294074634E+02  0.16894441167E+03  0.21863248647E+03  0.12509000000E+03 0.  0.
         25    1    3    3    0    0  0.11042091225E+03  0.17045234544E+02  0.34029616805E+03  0.37938411666E+03  0.12509000000E+03 0.  0.
<mgrwt>
<rscale>  2 0.45513406E+03</rscale>
<asrwt>0</asrwt>
<pdfrwt beam="1">  1       21 0.12841344E+00 0.45513406E+03</pdfrwt>
<pdfrwt beam="2">  1       21 0.87214841E-02 0.45513406E+03</pdfrwt>
<totfact> 0.41813107E+04</totfact>
</mgrwt>
</event>
<event>
 7    0  0.4709932E-002  0.4547193E+03  0.7546771E-02  0.1026324E+00
         21   -1    0    0  502  501  0.00000000000E+00  0.00000000000E+00  0.90614582851E+02  0.90614582851E+02  0.00000000000E+00 0.  1.
         21   -1    0    0  501  502 -0.00000000000E+00 -0.00000000000E+00 -0.57046446906E+03  0.57046446906E+03  0.00000000000E+00 0.  1.
      99926    2    1    2    0    0  0.00000000000E+00  0.00000000000E+00 -0.47984988621E+03  0.66107905191E+03  0.45471925358E+03 0.  0.
      99925    2    3    3    0    0  0.10353555495E+03  0.42734183805E+02 -0.28041983061E+03  0.40037677578E+03  0.26290770164E+03 0.  0.
         25    1    4    4    0    0  0.54049852417E+02  0.34088131897E+02 -0.19665937094E+03  0.24167292683E+03  0.12509000000E+03 0.  0.
         25    1    4    4    0    0  0.49485702530E+02  0.86460519077E+01 -0.83760459672E+02  0.15870384895E+03  0.12509000000E+03 0.  0.
         25    1    3    3    0    0 -0.10353555495E+03 -0.42734183805E+02 -0.19943005560E+03  0.26070227613E+03  0.12509000000E+03 0.  0.
<mgrwt>
<rscale>  2 0.45471925E+03</rscale>
<asrwt>0</asrwt>
<pdfrwt beam="1">  1       21 0.13325674E-01 0.45471925E+03</pdfrwt>
<pdfrwt beam="2">  1       21 0.83891833E-01 0.45471925E+03</pdfrwt>
<totfact> 0.55189232E+04</totfact>
</mgrwt>
</event>
<event>
 7    0  0.4709932E-002  0.4532140E+03  0.7546771E-02  0.1026768E+00
         21   -1    0    0  502  501  0.00000000000E+00  0.00000000000E+00  0.22706731553E+03  0.22706731553E+03  0.00000000000E+00 0. -1.
         21   -1    0    0  501  502 -0.00000000000E+00 -0.00000000000E+00 -0.22614764815E+03  0.22614764815E+03  0.00000000000E+00 0. -1.
      99926    2    1    2    0    0  0.00000000000E+00  0.00000000000E+00  0.91966738710E+00  0.45321496368E+03  0.45321403058E+03 0.  0.
      99925    2    3    3    0    0  0.92914046274E+02 -0.58454128476E+02 -0.18154909181E+02  0.28570003090E+03  0.26314445045E+03 0.  0.
         25    1    3    3    0    0 -0.92914046274E+02  0.58454128476E+02  0.19074576568E+02  0.16751493277E+03  0.12509000000E+03 0.  0.
         25    1    4    4    0    0  0.22147659701E+02 -0.79292817592E+01 -0.36103697260E+02  0.13230410952E+03  0.12509000000E+03 0.  0.
         25    1    4    4    0    0  0.70766386574E+02 -0.50524846716E+02  0.17948788079E+02  0.15339592139E+03  0.12509000000E+03 0.  0.
<mgrwt>
<rscale>  2 0.45321403E+03</rscale>
<asrwt>0</asrwt>
<pdfrwt beam="1">  1       21 0.33392253E-01 0.45321403E+03</pdfrwt>
<pdfrwt beam="2">  1       21 0.33257007E-01 0.45321403E+03</pdfrwt>
<totfact> 0.69664205E+04</totfact>
</mgrwt>
</event>
<event>
 7    0  0.4709932E-002  0.4473759E+03  0.7546771E-02  0.1028507E+00
         21   -1    0    0  502  501  0.00000000000E+00  0.00000000000E+00  0.32086489454E+02  0.32086489454E+02  0.00000000000E+00 0. -1.
         21   -1    0    0  501  502 -0.00000000000E+00 -0.00000000000E+00 -0.15594198261E+04  0.15594198261E+04  0.00000000000E+00 0. -1.
      99926    2    1    2    0    0 -0.35527136788E-14  0.00000000000E+00 -0.15273333367E+04  0.15915063156E+04  0.44737593948E+03 0.  0.
      99925    2    3    3    0    0  0.28218926049E+02 -0.73802290354E+02 -0.71725069811E+03  0.76802317960E+03  0.26299801256E+03 0.  0.
         25    1    4    4    0    0 -0.23486635132E+02 -0.24821731226E+02 -0.30748187216E+03  0.33370698251E+03  0.12509000000E+03 0.  0.
         25    1    4    4    0    0  0.51705561181E+02 -0.48980559128E+02 -0.40976882595E+03  0.43431619709E+03  0.12509000000E+03 0.  0.
         25    1    3    3    0    0 -0.28218926049E+02  0.73802290354E+02 -0.81008263857E+03  0.82348313599E+03  0.12509000000E+03 0.  0.
<mgrwt>
<rscale>  2 0.44737594E+03</rscale>
<asrwt>0</asrwt>
<pdfrwt beam="1">  1       21 0.47185990E-02 0.44737594E+03</pdfrwt>
<pdfrwt beam="2">  1       21 0.22932656E+00 0.44737594E+03</pdfrwt>
<totfact> 0.22951372E+04</totfact>
</mgrwt>
</event>
<event>
 7    0  0.4709932E-002  0.4566451E+03  0.7546771E-02  0.1025759E+00
         21   -1    0    0  502  501  0.00000000000E+00  0.00000000000E+00  0.30326925719E+02  0.30326925719E+02  0.00000000000E+00 0. -1.
         21   -1    0    0  501  502 -0.00000000000E+00 -0.00000000000E+00 -0.17189740060E+04  0.17189740060E+04  0.00000000000E+00 0. -1.
      99926    2    1    2    0    0 -0.35527136788E-14 -0.14210854715E-13 -0.16886470803E+04  0.17493009317E+04  0.45664514448E+03 0.  0.
      99925    2    3    3    0    0  0.25868205111E+02  0.11156955103E+03 -0.10830328825E+04  0.11203867934E+04  0.26303880597E+03 0.  0.
         25    1    3    3    0    0 -0.25868205111E+02 -0.11156955103E+03 -0.60561419777E+03  0.62891413833E+03  0.12509000000E+03 0.  0.
         25    1    4    4    0    0 -0.23014174472E+02  0.70863315613E+02 -0.59714052498E+03  0.61463450635E+03  0.12509000000E+03 0.  0.
         25    1    4    4    0    0  0.48882379583E+02  0.40706235415E+02 -0.48589235754E+03  0.50575228705E+03  0.12509000000E+03 0.  0.
<mgrwt>
<rscale>  2 0.45664514E+03</rscale>
<asrwt>0</asrwt>
<pdfrwt beam="1">  1       21 0.44598415E-02 0.45664514E+03</pdfrwt>
<pdfrwt beam="2">  1       21 0.25279033E+00 0.45664514E+03</pdfrwt>
<totfact> 0.18022996E+04</totfact>
</mgrwt>
</event>
<event>
 7    0  0.4709932E-002  0.4649150E+03  0.7546771E-02  0.1023365E+00
         21   -1    0    0  502  501  0.00000000000E+00  0.00000000000E+00  0.23641607807E+04  0.23641607807E+04  0.00000000000E+00 0.  1.
         21   -1    0    0  501  502 -0.00000000000E+00 -0.00000000000E+00 -0.22856525292E+02  0.22856525292E+02  0.00000000000E+00 0.  1.
      99926    2    1    2    0    0 -0.17763568394E-14 -0.88817841970E-15  0.23413042554E+04  0.23870173060E+04  0.46491504892E+03 0.  0.
      99925    2    3    3    0    0 -0.13147877692E+02  0.58138659979E+01  0.83724175948E+03  0.87769356091E+03  0.26299345108E+03 0.  0.
         25    1    3    3    0    0  0.13147877692E+02 -0.58138659979E+01  0.15040624959E+04  0.15093237451E+04  0.12509000000E+03 0.  0.
         25    1    4    4    0    0 -0.34473408089E+02 -0.14726566503E+02  0.34326571220E+03  0.36726576876E+03  0.12509000000E+03 0.  0.
         25    1    4    4    0    0  0.21325530397E+02  0.20540432501E+02  0.49397604728E+03  0.51042779215E+03  0.12509000000E+03 0.  0.
<mgrwt>
<rscale>  2 0.46491505E+03</rscale>
<asrwt>0</asrwt>
<pdfrwt beam="1">  1       21 0.34767053E+00 0.46491505E+03</pdfrwt>
<pdfrwt beam="2">  1       21 0.33612554E-02 0.46491505E+03</pdfrwt>
<totfact> 0.77437888E+03</totfact>
</mgrwt>
</event>
<event>
 7    0  0.4709932E-002  0.4519365E+03  0.7546771E-02  0.1027146E+00
         21   -1    0    0  502  501  0.00000000000E+00  0.00000000000E+00  0.40739756810E+03  0.40739756810E+03  0.00000000000E+00 0. -1.
         21   -1    0    0  501  502 -0.00000000000E+00 -0.00000000000E+00 -0.12533615584E+03  0.12533615584E+03  0.00000000000E+00 0. -1.
      99926    2    1    2    0    0  0.00000000000E+00 -0.55511151231E-15  0.28206141226E+03  0.53273372394E+03  0.45193647820E+03 0.  0.
      99925    2    3    3    0    0 -0.10419122177E+03 -0.80900913823E+00  0.22042626992E+03  0.35865654547E+03  0.26304051389E+03 0.  0.
         25    1    4    4    0    0 -0.57442027089E+02 -0.15555728557E+02  0.64417140089E+02  0.15276990281E+03  0.12509000000E+03 0.  0.
         25    1    4    4    0    0 -0.46749194684E+02  0.14746719418E+02  0.15600912983E+03  0.20588664266E+03  0.12509000000E+03 0.  0.
         25    1    3    3    0    0  0.10419122177E+03  0.80900913823E+00  0.61635142344E+02  0.17407717846E+03  0.12509000000E+03 0.  0.
<mgrwt>
<rscale>  2 0.45193648E+03</rscale>
<asrwt>0</asrwt>
<pdfrwt beam="1">  1       21 0.59911407E-01 0.45193648E+03</pdfrwt>
<pdfrwt beam="2">  1       21 0.18431788E-01 0.45193648E+03</pdfrwt>
<totfact> 0.64573753E+04</totfact>
</mgrwt>
</event>
<event>
 7    0  0.4709932E-002  0.4495621E+03  0.7546771E-02  0.1027853E+00
         21   -1    0    0  502  501  0.00000000000E+00  0.00000000000E+00  0.53933187474E+03  0.53933187474E+03  0.00000000000E+00 0. -1.
         21   -1    0    0  501  502 -0.00000000000E+00 -0.00000000000E+00 -0.93683560394E+02  0.93683560394E+02  0.00000000000E+00 0. -1.
      99926    2    1    2    0    0 -0.14210854715E-13  0.00000000000E+00  0.44564831435E+03  0.63301543514E+03  0.44956214369E+03 0.  0.
      99925    2    3    3    0    0 -0.67436921924E+02  0.35718628800E+02  0.17384966774E+03  0.32423465322E+03  0.26283235055E+03 0.  0.
         25    1    4    4    0    0  0.57344045143E+01  0.24605606492E+02  0.93085961827E+02  0.15795829720E+03  0.12509000000E+03 0.  0.
         25    1    4    4    0    0 -0.73171326439E+02  0.11113022308E+02  0.80763705909E+02  0.16627635602E+03  0.12509000000E+03 0.  0.
         25    1    3    3    0    0  0.67436921924E+02 -0.35718628800E+02  0.27179864661E+03  0.30878078192E+03  0.12509000000E+03 0.  0.
<mgrwt>
<rscale>  2 0.44956214E+03</rscale>
<asrwt>0</asrwt>
<pdfrwt beam="1">  1       21 0.79313509E-01 0.44956214E+03</pdfrwt>
<pdfrwt beam="2">  1       21 0.13776994E-01 0.44956214E+03</pdfrwt>
<totfact> 0.59190637E+04</totfact>
</mgrwt>
</event>
<event>
 7    0  0.4709932E-002  0.4538781E+03  0.7546771E-02  0.1026572E+00
         21   -1    0    0  502  501  0.00000000000E+00  0.00000000000E+00  0.10764232233E+04  0.10764232233E+04  0.00000000000E+00 0. -1.
         21   -1    0    0  501  502 -0.00000000000E+00 -0.00000000000E+00 -0.47844879260E+02  0.47844879260E+02  0.00000000000E+00 0. -1.
      99926    2    1    2    0    0 -0.71054273576E-14  0.00000000000E+00  0.10285783441E+04  0.11242681026E+04  0.45387812968E+03 0.  0.
      99925    2    3    3    0    0 -0.44386569935E+02  0.10172266990E+03  0.60852822081E+03  0.67215386557E+03  0.26299535037E+03 0.  0.
         25    1    4    4    0    0  0.13136032261E+02  0.51440351540E+02  0.24453065396E+03  0.27975241543E+03  0.12509000000E+03 0.  0.
         25    1    4    4    0    0 -0.57522602196E+02  0.50282318364E+02  0.36399756685E+03  0.39240145015E+03  0.12509000000E+03 0.  0.
         25    1    3    3    0    0  0.44386569935E+02 -0.10172266990E+03  0.42005012324E+03  0.45211423700E+03  0.12509000000E+03 0.  0.
<mgrwt>
<rscale>  2 0.45387813E+03</rscale>
<asrwt>0</asrwt>
<pdfrwt beam="1">  1       21 0.15829752E+00 0.45387813E+03</pdfrwt>
<pdfrwt beam="2">  1       21 0.70360123E-02 0.45387813E+03</pdfrwt>
<totfact> 0.34957942E+04</totfact>
</mgrwt>
</event>
<event>
 7    0  0.4709932E-002  0.4420541E+03  0.7546771E-02  0.1030118E+00
         21   -1    0    0  502  501  0.00000000000E+00  0.00000000000E+00  0.39651784491E+02  0.39651784491E+02  0.00000000000E+00 0. -1.
         21   -1    0    0  501  502 -0.00000000000E+00 -0.00000000000E+00 -0.12320493784E+04  0.12320493784E+04  0.00000000000E+00 0. -1.
      99926    2    1    2    0    0 -0.17763568394E-14 -0.35527136788E-14 -0.11923975939E+04  0.12717011629E+04  0.44205409820E+03 0.  0.
      99925    2    3    3    0    0  0.11171643926E+02  0.87872538157E+01 -0.47316549250E+03  0.54153382231E+03  0.26300432687E+03 0.  0.
         25    1    3    3    0    0 -0.11171643926E+02 -0.87872538157E+01 -0.71923210141E+03  0.73016734058E+03  0.12509000000E+03 0.  0.
         25    1    4    4    0    0  0.30561358632E+02 -0.25520339407E+02 -0.25983509236E+03  0.29111349623E+03  0.12509000000E+03 0.  0.
         25    1    4    4    0    0 -0.19389714706E+02  0.34307593223E+02 -0.21333040014E+03  0.25042032608E+03  0.12509000000E+03 0.  0.
<mgrwt>
<rscale>  2 0.44205410E+03</rscale>
<asrwt>0</asrwt>
<pdfrwt beam="1">  1       21 0.58311456E-02 0.44205410E+03</pdfrwt>
<pdfrwt beam="2">  1       21 0.18118371E+00 0.44205410E+03</pdfrwt>
<totfact> 0.33164057E+04</totfact>
</mgrwt>
</event>
<event>
 7    0  0.4709932E-002  0.4549590E+03  0.7546771E-02  0.1026253E+00
         21   -1    0    0  502  501  0.00000000000E+00  0.00000000000E+00  0.59447649109E+03  0.59447649109E+03  0.00000000000E+00 0.  1.
         21   -1    0    0  501  502 -0.00000000000E+00 -0.00000000000E+00 -0.87046208117E+02  0.87046208117E+02  0.00000000000E+00 0.  1.
      99926    2    1    2    0    0  0.00000000000E+00  0.00000000000E+00  0.50743028297E+03  0.68152269920E+03  0.45495900634E+03 0.  0.
      99925    2    3    3    0    0  0.47681946438E+02 -0.32539486453E+02  0.46496349944E+03  0.53735848035E+03  0.26311726358E+03 0.  0.
         25    1    4    4    0    0  0.39968998456E+02  0.52288450783E+01  0.17183386090E+03  0.21633133271E+03  0.12509000000E+03 0.  0.
         25    1    4    4    0    0  0.77129479826E+01 -0.37768331532E+02  0.29312963854E+03  0.32102714764E+03  0.12509000000E+03 0.  0.
         25    1    3    3    0    0 -0.47681946438E+02  0.32539486453E+02  0.42466783531E+02  0.14416421886E+03  0.12509000000E+03 0.  0.
<mgrwt>
<rscale>  2 0.45495901E+03</rscale>
<asrwt>0</asrwt>
<pdfrwt beam="1">  1       21 0.87423012E-01 0.45495901E+03</pdfrwt>
<pdfrwt beam="2">  1       21 0.12800913E-01 0.45495901E+03</pdfrwt>
<totfact> 0.53935447E+04</totfact>
</mgrwt>
</event>
<event>
 7    0  0.4709932E-002  0.4561514E+03  0.7546771E-02  0.1025903E+00
         21   -1    0    0  502  501  0.00000000000E+00  0.00000000000E+00  0.47251838287E+02  0.47251838287E+02  0.00000000000E+00 0. -1.
         21   -1    0    0  501  502 -0.00000000000E+00 -0.00000000000E+00 -0.11008780964E+04  0.11008780964E+04  0.00000000000E+00 0. -1.
      99926    2    1    2    0    0  0.35527136788E-14 -0.14210854715E-13 -0.10536262582E+04  0.11481299347E+04  0.45615135114E+03 0.  0.
      99925    2    3    3    0    0 -0.25346924854E+02 -0.10631968525E+03 -0.57738518414E+03  0.64374971035E+03  0.26285679872E+03 0.  0.
         25    1    3    3    0    0  0.25346924854E+02  0.10631968525E+03 -0.47624107401E+03  0.50438022438E+03  0.12509000000E+03 0.  0.
         25    1    4    4    0    0  0.23140518031E+02 -0.69862464992E+02 -0.27547757667E+03  0.31137060063E+03  0.12509000000E+03 0.  0.
         25    1    4    4    0    0 -0.48487442885E+02 -0.36457220255E+02 -0.30190760747E+03  0.33237910972E+03  0.12509000000E+03 0.  0.
<mgrwt>
<rscale>  2 0.45615135E+03</rscale>
<asrwt>0</asrwt>
<pdfrwt beam="1">  1       21 0.69487998E-02 0.45615135E+03</pdfrwt>
<pdfrwt beam="2">  1       21 0.16189384E+00 0.45615135E+03</pdfrwt>
<totfact> 0.33542857E+04</totfact>
</mgrwt>
</event>
<event>
 7    0  0.4709932E-002  0.4529753E+03  0.7546771E-02  0.1026838E+00
         21   -1    0    0  502  501  0.00000000000E+00  0.00000000000E+00  0.41120608608E+03  0.41120608608E+03  0.00000000000E+00 0. -1.
         21   -1    0    0  501  502 -0.00000000000E+00 -0.00000000000E+00 -0.12474681246E+03  0.12474681246E+03  0.00000000000E+00 0. -1.
      99926    2    1    2    0    0 -0.44408920985E-15  0.00000000000E+00  0.28645927362E+03  0.53595289854E+03  0.45297526865E+03 0.  0.
      99925    2    3    3    0    0  0.97376817181E+00 -0.81978359513E+02  0.26962465824E+03  0.38544604810E+03  0.26296349560E+03 0.  0.
         25    1    4    4    0    0 -0.32019521558E+02 -0.22889263343E+02  0.10576429669E+03  0.16847184540E+03  0.12509000000E+03 0.  0.
         25    1    3    3    0    0 -0.97376817181E+00  0.81978359513E+02  0.16834615376E+02  0.15050685043E+03  0.12509000000E+03 0.  0.
         25    1    4    4    0    0  0.32993289730E+02 -0.59089096171E+02  0.16386036155E+03  0.21697420271E+03  0.12509000000E+03 0.  0.
<mgrwt>
<rscale>  2 0.45297527E+03</rscale>
<asrwt>0</asrwt>
<pdfrwt beam="1">  1       21 0.60471483E-01 0.45297527E+03</pdfrwt>
<pdfrwt beam="2">  1       21 0.18345120E-01 0.45297527E+03</pdfrwt>
<totfact> 0.63821018E+04</totfact>
</mgrwt>
</event>
<event>
 7    0  0.4709932E-002  0.4648182E+03  0.7546771E-02  0.1023393E+00
         21   -1    0    0  502  501  0.00000000000E+00  0.00000000000E+00  0.91808337675E+03  0.91808337675E+03  0.00000000000E+00 0.  1.
         21   -1    0    0  501  502 -0.00000000000E+00 -0.00000000000E+00 -0.58833426181E+02  0.58833426181E+02  0.00000000000E+00 0.  1.
      99926    2    1    2    0    0 -0.71054273576E-14 -0.14210854715E-13  0.85924995057E+03  0.97691680293E+03  0.46481820349E+03 0.  0.
      99925    2    3    3    0    0 -0.36273152900E+02  0.10297879847E+03  0.42093290615E+03  0.50820610956E+03  0.26299917064E+03 0.  0.
         25    1    3    3    0    0  0.36273152900E+02 -0.10297879847E+03  0.43831704442E+03  0.46871069337E+03  0.12509000000E+03 0.  0.
         25    1    4    4    0    0  0.86906115190E+01  0.72764843392E+02  0.17725930244E+03  0.22899479811E+03  0.12509000000E+03 0.  0.
         25    1    4    4    0    0 -0.44963764419E+02  0.30213955075E+02  0.24367360372E+03  0.27921131145E+03  0.12509000000E+03 0.  0.
<mgrwt>
<rscale>  2 0.46481820E+03</rscale>
<asrwt>0</asrwt>
<pdfrwt beam="1">  1       21 0.13501225E+00 0.46481820E+03</pdfrwt>
<pdfrwt beam="2">  1       21 0.86519750E-02 0.46481820E+03</pdfrwt>
<totfact> 0.37136268E+04</totfact>
</mgrwt>
</event>
<event>
 7    0  0.4709932E-002  0.4581511E+03  0.7546771E-02  0.1025319E+00
         21   -1    0    0  502  501  0.00000000000E+00  0.00000000000E+00  0.10587032482E+03  0.10587032482E+03  0.00000000000E+00 0.  1.
         21   -1    0    0  501  502 -0.00000000000E+00 -0.00000000000E+00 -0.49565926787E+03  0.49565926787E+03  0.00000000000E+00 0.  1.
      99926    2    1    2    0    0  0.00000000000E+00  0.00000000000E+00 -0.38978894306E+03  0.60152959269E+03  0.45815110035E+03 0.  0.
      99925    2    3    3    0    0  0.74287463300E+02 -0.40557679281E+02 -0.34820695520E+03  0.44487672049E+03  0.26363546847E+03 0.  0.
         25    1    4    4    0    0  0.44958741880E+02  0.12686119228E+02 -0.20963190918E+03  0.24854631669E+03  0.12509000000E+03 0.  0.
         25    1    3    3    0    0 -0.74287463300E+02  0.40557679281E+02 -0.41581987857E+02  0.15665287219E+03  0.12509000000E+03 0.  0.
         25    1    4    4    0    0  0.29328721420E+02 -0.53243798509E+02 -0.13857504602E+03  0.19633040381E+03  0.12509000000E+03 0.  0.
<mgrwt>
<rscale>  2 0.45815110E+03</rscale>
<asrwt>0</asrwt>
<pdfrwt beam="1">  1       21 0.15569165E-01 0.45815110E+03</pdfrwt>
<pdfrwt beam="2">  1       21 0.72891070E-01 0.45815110E+03</pdfrwt>
<totfact> 0.57148058E+04</totfact>
</mgrwt>
</event>
<event>
 7    0  0.4709932E-002  0.4593706E+03  0.7546771E-02  0.1024964E+00
         21   -1    0    0  502  501  0.00000000000E+00  0.00000000000E+00  0.45262492004E+03  0.45262492004E+03  0.00000000000E+00 0.  1.
         21   -1    0    0  501  502 -0.00000000000E+00 -0.00000000000E+00 -0.11655419267E+03  0.11655419267E+03  0.00000000000E+00 0.  1.
      99926    2    1    2    0    0 -0.14210854715E-13  0.35527136788E-14  0.33607072737E+03  0.56917911271E+03  0.45937057868E+03 0.  0.
      99925    2    3    3    0    0 -0.10432640735E+03  0.76908709964E+01  0.14979418884E+03  0.32161173669E+03  0.26467463308E+03 0.  0.
         25    1    3    3    0    0  0.10432640735E+03 -0.76908709964E+01  0.18627653853E+03  0.24756737603E+03  0.12509000000E+03 0.  0.
         25    1    4    4    0    0 -0.63663570202E+02  0.42425204014E+02  0.59005089013E+02  0.15805713124E+03  0.12509000000E+03 0.  0.
         25    1    4    4    0    0 -0.40662837151E+02 -0.34734333017E+02  0.90789099825E+02  0.16355460545E+03  0.12509000000E+03 0.  0.
<mgrwt>
<rscale>  2 0.45937058E+03</rscale>
<asrwt>0</asrwt>
<pdfrwt beam="1">  1       21 0.66562488E-01 0.45937058E+03</pdfrwt>
<pdfrwt beam="2">  1       21 0.17140323E-01 0.45937058E+03</pdfrwt>
<totfact> 0.58566034E+04</totfact>
</mgrwt>
</event>
<event>
 7    0  0.4709932E-002  0.4088074E+03  0.7546771E-02  0.1040772E+00
         21   -1    0    0  502  501  0.00000000000E+00  0.00000000000E+00  0.70607489439E+03  0.70607489439E+03  0.00000000000E+00 0.  1.
         21   -1    0    0  501  502 -0.00000000000E+00 -0.00000000000E+00 -0.59173420324E+02  0.59173420324E+02  0.00000000000E+00 0.  1.
      99926    2    1    2    0    0  0.71054273576E-14  0.44408920985E-15  0.64690147407E+03  0.76524831471E+03  0.40880737032E+03 0.  0.
      99925    2    3    3    0    0  0.51166314133E+02  0.28189568618E+01  0.36656685992E+03  0.45402340857E+03  0.26294496480E+03 0.  0.
         25    1    4    4    0    0  0.51205643400E+02 -0.21126252403E+02  0.22735538719E+03  0.26534188633E+03  0.12509000000E+03 0.  0.
         25    1    3    3    0    0 -0.51166314133E+02 -0.28189568618E+01  0.28033461414E+03  0.31122490615E+03  0.12509000000E+03 0.  0.
         25    1    4    4    0    0 -0.39329266806E-01  0.23945209264E+02  0.13921147273E+03  0.18868152224E+03  0.12509000000E+03 0.  0.
<mgrwt>
<rscale>  2 0.40880737E+03</rscale>
<asrwt>0</asrwt>
<pdfrwt beam="1">  1       21 0.10383454E+00 0.40880737E+03</pdfrwt>
<pdfrwt beam="2">  1       21 0.87019739E-02 0.40880737E+03</pdfrwt>
<totfact> 0.72385145E+04</totfact>
</mgrwt>
</event>
<event>
 7    0  0.4709932E-002  0.4544295E+03  0.7546771E-02  0.1026409E+00
         21   -1    0    0  502  501  0.00000000000E+00  0.00000000000E+00  0.38015445006E+03  0.38015445006E+03  0.00000000000E+00 0.  1.
         21   -1    0    0  501  502 -0.00000000000E+00 -0.00000000000E+00 -0.13580411882E+03  0.13580411882E+03  0.00000000000E+00 0.  1.
      99926    2    1    2    0    0  0.00000000000E+00  0.00000000000E+00  0.24435033125E+03  0.51595856888E+03  0.45442948894E+03 0.  0.
      99925    2    3    3    0    0  0.24655549802E+02  0.62454708356E+02  0.25649278187E+03  0.37346845014E+03  0.26302404712E+03 0.  0.
         25    1    4    4    0    0  0.30592376764E+01  0.13125911143E+02  0.17233973986E+03  0.21337793352E+03  0.12509000000E+03 0.  0.
         25    1    4    4    0    0  0.21596312125E+02  0.49328797213E+02  0.84153042016E+02  0.16009051662E+03  0.12509000000E+03 0.  0.
         25    1    3    3    0    0 -0.24655549802E+02 -0.62454708356E+02 -0.12142450626E+02  0.14249011874E+03  0.12509000000E+03 0.  0.
<mgrwt>
<rscale>  2 0.45442949E+03</rscale>
<asrwt>0</asrwt>
<pdfrwt beam="1">  1       21 0.55905066E-01 0.45442949E+03</pdfrwt>
<pdfrwt beam="2">  1       21 0.19971194E-01 0.45442949E+03</pdfrwt>
<totfact> 0.64454738E+04</totfact>
</mgrwt>
</event>
<event>
 7    0  0.4709932E-002  0.4632761E+03  0.7546771E-02  0.1023835E+00
         21   -1    0    0  502  501  0.00000000000E+00  0.00000000000E+00  0.33864295110E+03  0.33864295110E+03  0.00000000000E+00 0.  1.
         21   -1    0    0  501  502 -0.00000000000E+00 -0.00000000000E+00 -0.15844472828E+03  0.15844472828E+03  0.00000000000E+00 0.  1.
      99926    2    1    2    0    0  0.14210854715E-13 -0.14210854715E-13  0.18019822282E+03  0.49708767939E+03  0.46327611798E+03 0.  0.
      99925    2    3    3    0    0  0.92674582022E+02 -0.74887115607E+02  0.91995170762E+02  0.30311875216E+03  0.26309923647E+03 0.  0.
         25    1    3    3    0    0 -0.92674582022E+02  0.74887115607E+02  0.88203052058E+02  0.19396892723E+03  0.12509000000E+03 0.  0.
         25    1    4    4    0    0  0.25252941109E+02 -0.13438199017E+01  0.27174075798E+02  0.13048162852E+03  0.12509000000E+03 0.  0.
         25    1    4    4    0    0  0.67421640913E+02 -0.73543295705E+02  0.64821094965E+02  0.17263712364E+03  0.12509000000E+03 0.  0.
<mgrwt>
<rscale>  2 0.46327612E+03</rscale>
<asrwt>0</asrwt>
<pdfrwt beam="1">  1       21 0.49800434E-01 0.46327612E+03</pdfrwt>
<pdfrwt beam="2">  1       21 0.23300695E-01 0.46327612E+03</pdfrwt>
<totfact> 0.61345158E+04</totfact>
</mgrwt>
</event>
<event>
 7    0  0.4709932E-002  0.4693809E+03  0.7546771E-02  0.1022095E+00
         21   -1    0    0  502  501  0.00000000000E+00  0.00000000000E+00  0.83609548339E+02  0.83609548339E+02  0.00000000000E+00 0. -1.
         21   -1    0    0  501  502 -0.00000000000E+00 -0.00000000000E+00 -0.65877178444E+03  0.65877178444E+03  0.00000000000E+00 0. -1.
      99926    2    1    2    0    0  0.14210854715E-13  0.00000000000E+00 -0.57516223610E+03  0.74238133278E+03  0.46938091719E+03 0.  0.
      99925    2    3    3    0    0 -0.10949509428E+03  0.45349906056E+02 -0.42592671814E+03  0.51442401754E+03  0.26300705494E+03 0.  0.
         25    1    3    3    0    0  0.10949509428E+03 -0.45349906056E+02 -0.14923551796E+03  0.22795731524E+03  0.12509000000E+03 0.  0.
         25    1    4    4    0    0 -0.58086094644E+02  0.60746842823E+02 -0.19618076811E+03  0.24738345777E+03  0.12509000000E+03 0.  0.
         25    1    4    4    0    0 -0.51408999632E+02 -0.15396936767E+02 -0.22974595003E+03  0.26704055977E+03  0.12509000000E+03 0.  0.
<mgrwt>
<rscale>  2 0.46938092E+03</rscale>
<asrwt>0</asrwt>
<pdfrwt beam="1">  1       21 0.12295521E-01 0.46938092E+03</pdfrwt>
<pdfrwt beam="2">  1       21 0.96878206E-01 0.46938092E+03</pdfrwt>
<totfact> 0.45316939E+04</totfact>
</mgrwt>
</event>
<event>
 7    0  0.4709932E-002  0.4527241E+03  0.7546771E-02  0.1026913E+00
         21   -1    0    0  502  501  0.00000000000E+00  0.00000000000E+00  0.68306114584E+02  0.68306114584E+02  0.00000000000E+00 0.  1.
         21   -1    0    0  501  502 -0.00000000000E+00 -0.00000000000E+00 -0.75014927873E+03  0.75014927873E+03  0.00000000000E+00 0.  1.
      99926    2    1    2    0    0  0.00000000000E+00  0.35527136788E-14 -0.68184316414E+03  0.81845539331E+03  0.45272412168E+03 0.  0.
      99925    2    3    3    0    0  0.43944455088E+02 -0.13119670020E+02 -0.61271881454E+03  0.66835900867E+03  0.26301364586E+03 0.  0.
         25    1    4    4    0    0  0.74198882774E+01 -0.40586480141E+02 -0.26299928397E+03  0.29414018525E+03  0.12509000000E+03 0.  0.
         25    1    4    4    0    0  0.36524566811E+02  0.27466810121E+02 -0.34971953057E+03  0.37421882342E+03  0.12509000000E+03 0.  0.
         25    1    3    3    0    0 -0.43944455088E+02  0.13119670020E+02 -0.69124349609E+02  0.15009638464E+03  0.12509000000E+03 0.  0.
<mgrwt>
<rscale>  2 0.45272412E+03</rscale>
<asrwt>0</asrwt>
<pdfrwt beam="1">  1       21 0.10045017E-01 0.45272412E+03</pdfrwt>
<pdfrwt beam="2">  1       21 0.11031607E+00 0.45272412E+03</pdfrwt>
<totfact> 0.47731786E+04</totfact>
</mgrwt>
</event>
<event>
 7    0  0.4709932E-002  0.4677208E+03  0.7546771E-02  0.1022565E+00
         21   -1    0    0  502  501  0.00000000000E+00  0.00000000000E+00  0.29890573368E+02  0.29890573368E+02  0.00000000000E+00 0. -1.
         21   -1    0    0  501  502 -0.00000000000E+00 -0.00000000000E+00 -0.18296968749E+04  0.18296968749E+04  0.00000000000E+00 0. -1.
      99926    2    1    2    0    0  0.00000000000E+00  0.00000000000E+00 -0.17998063015E+04  0.18595874482E+04  0.46772080851E+03 0.  0.
      99925    2    3    3    0    0 -0.64101673339E+02  0.10439432057E+03 -0.10276450519E+04  0.10678250456E+04  0.26303759559E+03 0.  0.
         25    1    3    3    0    0  0.64101673339E+02 -0.10439432057E+03 -0.77216124964E+03  0.79176240264E+03  0.12509000000E+03 0.  0.
         25    1    4    4    0    0 -0.37192349027E+00  0.22646548451E+02 -0.41771532273E+03  0.43663096939E+03  0.12509000000E+03 0.  0.
         25    1    4    4    0    0 -0.63729749849E+02  0.81747772119E+02 -0.60992972914E+03  0.63119407621E+03  0.12509000000E+03 0.  0.
<mgrwt>
<rscale>  2 0.46772081E+03</rscale>
<asrwt>0</asrwt>
<pdfrwt beam="1">  1       21 0.43956731E-02 0.46772081E+03</pdfrwt>
<pdfrwt beam="2">  1       21 0.26907304E+00 0.46772081E+03</pdfrwt>
<totfact> 0.14640910E+04</totfact>
</mgrwt>
</event>
<event>
 7    0  0.4709932E-002  0.4491265E+03  0.7546771E-02  0.1027983E+00
         21   -1    0    0  502  501  0.00000000000E+00  0.00000000000E+00  0.20923652905E+03  0.20923652905E+03  0.00000000000E+00 0.  1.
         21   -1    0    0  501  502 -0.00000000000E+00 -0.00000000000E+00 -0.24101266079E+03  0.24101266079E+03  0.00000000000E+00 0.  1.
      99926    2    1    2    0    0 -0.35527136788E-14  0.00000000000E+00 -0.31776131739E+02  0.45024918984E+03  0.44912649710E+03 0.  0.
      99925    2    3    3    0    0  0.23099284495E+02 -0.99359379424E+02 -0.55079712983E+02  0.28716507589E+03  0.26272446175E+03 0.  0.
         25    1    4    4    0    0 -0.44900026313E+01 -0.10064370621E+02 -0.20556382395E+02  0.12724592189E+03  0.12509000000E+03 0.  0.
         25    1    4    4    0    0  0.27589287126E+02 -0.89295008803E+02 -0.34523330588E+02  0.15991915400E+03  0.12509000000E+03 0.  0.
         25    1    3    3    0    0 -0.23099284495E+02  0.99359379424E+02  0.23303581244E+02  0.16308411395E+03  0.12509000000E+03 0.  0.
<mgrwt>
<rscale>  2 0.44912650E+03</rscale>
<asrwt>0</asrwt>
<pdfrwt beam="1">  1       21 0.30770078E-01 0.44912650E+03</pdfrwt>
<pdfrwt beam="2">  1       21 0.35443038E-01 0.44912650E+03</pdfrwt>
<totfact> 0.72220907E+04</totfact>
</mgrwt>
</event>
<event>
 7    0  0.4709932E-002  0.4700652E+03  0.7546771E-02  0.1021902E+00
         21   -1    0    0  502  501  0.00000000000E+00  0.00000000000E+00  0.15523835445E+03  0.15523835445E+03  0.00000000000E+00 0.  1.
         21   -1    0    0  501  502 -0.00000000000E+00 -0.00000000000E+00 -0.35584197355E+03  0.35584197355E+03  0.00000000000E+00 0.  1.
      99926    2    1    2    0    0  0.00000000000E+00  0.00000000000E+00 -0.20060361910E+03  0.51108032800E+03  0.47006519725E+03 0.  0.
      99925    2    3    3    0    0 -0.11842544329E+03 -0.32948686148E+02 -0.15879414379E+03  0.33078683987E+03  0.26285766450E+03 0.  0.
         25    1    4    4    0    0 -0.84342786889E+02 -0.53497321056E+01 -0.11948330437E+03  0.19252556572E+03  0.12509000000E+03 0.  0.
         25    1    4    4    0    0 -0.34082656403E+02 -0.27598954042E+02 -0.39310839426E+02  0.13826127414E+03  0.12509000000E+03 0.  0.
         25    1    3    3    0    0  0.11842544329E+03  0.32948686148E+02 -0.41809475311E+02  0.18029348813E+03  0.12509000000E+03 0.  0.
<mgrwt>
<rscale>  2 0.47006520E+03</rscale>
<asrwt>0</asrwt>
<pdfrwt beam="1">  1       21 0.22829170E-01 0.47006520E+03</pdfrwt>
<pdfrwt beam="2">  1       21 0.52329701E-01 0.47006520E+03</pdfrwt>
<totfact> 0.57330468E+04</totfact>
</mgrwt>
</event>
<event>
 7    0  0.4709932E-002  0.4226234E+03  0.7546771E-02  0.1036216E+00
         21   -1    0    0  502  501  0.00000000000E+00  0.00000000000E+00  0.60862572354E+02  0.60862572354E+02  0.00000000000E+00 0.  1.
         21   -1    0    0  501  502 -0.00000000000E+00 -0.00000000000E+00 -0.73366315911E+03  0.73366315911E+03  0.00000000000E+00 0.  1.
      99926    2    1    2    0    0  0.00000000000E+00 -0.71054273576E-14 -0.67280058675E+03  0.79452573146E+03  0.42262336474E+03 0.  0.
      99925    2    3    3    0    0 -0.20619868912E+02  0.45244813334E+02 -0.32338466030E+03  0.42007777796E+03  0.26346807944E+03 0.  0.
         25    1    4    4    0    0  0.39521226014E+01 -0.13920043747E+02 -0.12967464872E+03  0.18075510923E+03  0.12509000000E+03 0.  0.
         25    1    4    4    0    0 -0.24571991514E+02  0.59164857081E+02 -0.19371001158E+03  0.23932266873E+03  0.12509000000E+03 0.  0.
         25    1    3    3    0    0  0.20619868912E+02 -0.45244813334E+02 -0.34941592645E+03  0.37444795351E+03  0.12509000000E+03 0.  0.
<mgrwt>
<rscale>  2 0.42262336E+03</rscale>
<asrwt>0</asrwt>
<pdfrwt beam="1">  1       21 0.89503789E-02 0.42262336E+03</pdfrwt>
<pdfrwt beam="2">  1       21 0.10789163E+00 0.42262336E+03</pdfrwt>
<totfact> 0.62451380E+04</totfact>
</mgrwt>
</event>
<event>
 7    0  0.4709932E-002  0.4522847E+03  0.7546771E-02  0.1027043E+00
         21   -1    0    0  502  501  0.00000000000E+00  0.00000000000E+00  0.25789140965E+02  0.25789140965E+02  0.00000000000E+00 0. -1.
         21   -1    0    0  501  502 -0.00000000000E+00 -0.00000000000E+00 -0.19830190777E+04  0.19830190777E+04  0.00000000000E+00 0. -1.
      99926    2    1    2    0    0  0.71054273576E-14  0.00000000000E+00 -0.19572299367E+04  0.20088082186E+04  0.45228468261E+03 0.  0.
      99925    2    3    3    0    0 -0.36938876686E+02  0.10394776385E+03 -0.11991008918E+04  0.12325500303E+04  0.26299621692E+03 0.  0.
         25    1    3    3    0    0  0.36938876686E+02 -0.10394776385E+03 -0.75812904489E+03  0.77625818838E+03  0.12509000000E+03 0.  0.
         25    1    4    4    0    0 -0.23575583766E+02  0.11392022346E+02 -0.48363752806E+03  0.50023829619E+03  0.12509000000E+03 0.  0.
         25    1    4    4    0    0 -0.13363292920E+02  0.92555741500E+02 -0.71546336376E+03  0.73231173408E+03  0.12509000000E+03 0.  0.
<mgrwt>
<rscale>  2 0.45228468E+03</rscale>
<asrwt>0</asrwt>
<pdfrwt beam="1">  1       21 0.37925203E-02 0.45228468E+03</pdfrwt>
<pdfrwt beam="2">  1       21 0.29162048E+00 0.45228468E+03</pdfrwt>
<totfact> 0.13856114E+04</totfact>
</mgrwt>
</event>
<event>
 7    0  0.4709932E-002  0.4429775E+03  0.7546771E-02  0.1029837E+00
         21   -1    0    0  502  501  0.00000000000E+00  0.00000000000E+00  0.24475507729E+03  0.24475507729E+03  0.00000000000E+00 0.  1.
         21   -1    0    0  501  502 -0.00000000000E+00 -0.00000000000E+00 -0.20043413605E+03  0.20043413605E+03  0.00000000000E+00 0.  1.
      99926    2    1    2    0    0  0.71054273576E-14  0.00000000000E+00  0.44320941238E+02  0.44518921334E+03  0.44297752747E+03 0.  0.
      99925    2    3    3    0    0  0.44490212165E+02 -0.82480546264E+02 -0.10813900394E+02  0.27944912057E+03  0.26304457997E+03 0.  0.
         25    1    3    3    0    0 -0.44490212165E+02  0.82480546264E+02  0.55134841632E+02  0.16574009277E+03  0.12509000000E+03 0.  0.
         25    1    4    4    0    0  0.56224983250E+02 -0.33413667474E+02 -0.26622253995E+02  0.14364530770E+03  0.12509000000E+03 0.  0.
         25    1    4    4    0    0 -0.11734771085E+02 -0.49066878791E+02  0.15808353601E+02  0.13580381287E+03  0.12509000000E+03 0.  0.
<mgrwt>
<rscale>  2 0.44297753E+03</rscale>
<asrwt>0</asrwt>
<pdfrwt beam="1">  1       21 0.35993394E-01 0.44297753E+03</pdfrwt>
<pdfrwt beam="2">  1       21 0.29475608E-01 0.44297753E+03</pdfrwt>
<totfact> 0.76334081E+04</totfact>
</mgrwt>
</event>
<event>
 7    0  0.4709932E-002  0.4573852E+03  0.7546771E-02  0.1025542E+00
         21   -1    0    0  502  501  0.00000000000E+00  0.00000000000E+00  0.21285019110E+03  0.21285019110E+03  0.00000000000E+00 0.  1.
         21   -1    0    0  501  502 -0.00000000000E+00 -0.00000000000E+00 -0.24571417026E+03  0.24571417026E+03  0.00000000000E+00 0.  1.
      99926    2    1    2    0    0  0.00000000000E+00  0.00000000000E+00 -0.32863979157E+02  0.45856436136E+03  0.45738521225E+03 0.  0.
      99925    2    3    3    0    0 -0.98465927582E+02 -0.16777523548E+02  0.37426782276E+02  0.28373494898E+03  0.26292153402E+03 0.  0.
         25    1    4    4    0    0 -0.47239658863E+02 -0.43082408106E+02  0.39783131572E+02  0.14600645505E+03  0.12509000000E+03 0.  0.
         25    1    4    4    0    0 -0.51226268719E+02  0.26304884557E+02 -0.23563492965E+01  0.13772849393E+03  0.12509000000E+03 0.  0.
         25    1    3    3    0    0  0.98465927582E+02  0.16777523548E+02 -0.70290761433E+02  0.17482941238E+03  0.12509000000E+03 0.  0.
<mgrwt>
<rscale>  2 0.45738521E+03</rscale>
<asrwt>0</asrwt>
<pdfrwt beam="1">  1       21 0.31301499E-01 0.45738521E+03</pdfrwt>
<pdfrwt beam="2">  1       21 0.36134437E-01 0.45738521E+03</pdfrwt>
<totfact> 0.67001281E+04</totfact>
</mgrwt>
</event>
<event>
 7    0  0.4709932E-002  0.4727242E+03  0.7546771E-02  0.1021154E+00
         21   -1    0    0  502  501  0.00000000000E+00  0.00000000000E+00  0.48314918837E+03  0.48314918837E+03  0.00000000000E+00 0. -1.
         21   -1    0    0  501  502 -0.00000000000E+00 -0.00000000000E+00 -0.11563102140E+03  0.11563102140E+03  0.00000000000E+00 0. -1.
      99926    2    1    2    0    0  0.00000000000E+00  0.00000000000E+00  0.36751816698E+03  0.59878020977E+03  0.47272416540E+03 0.  0.
      99925    2    3    3    0    0  0.86307484060E+02 -0.88889585225E+02  0.18200926752E+03  0.34302368484E+03  0.26303523477E+03 0.  0.
         25    1    3    3    0    0 -0.86307484060E+02  0.88889585225E+02  0.18550889946E+03  0.25575652493E+03  0.12509000000E+03 0.  0.
         25    1    4    4    0    0  0.26673441851E+02 -0.32884440494E+02  0.42945649289E+02  0.13886934802E+03  0.12509000000E+03 0.  0.
         25    1    4    4    0    0  0.59634042209E+02 -0.56005144731E+02  0.13906361823E+03  0.20415433682E+03  0.12509000000E+03 0.  0.
<mgrwt>
<rscale>  2 0.47272417E+03</rscale>
<asrwt>0</asrwt>
<pdfrwt beam="1">  1       21 0.71051351E-01 0.47272417E+03</pdfrwt>
<pdfrwt beam="2">  1       21 0.17004562E-01 0.47272417E+03</pdfrwt>
<totfact> 0.51197003E+04</totfact>
</mgrwt>
</event>
<event>
 7    0  0.4709932E-002  0.4514971E+03  0.7546771E-02  0.1027277E+00
         21   -1    0    0  502  501  0.00000000000E+00  0.00000000000E+00  0.52731691709E+03  0.52731691709E+03  0.00000000000E+00 0. -1.
         21   -1    0    0  501  502 -0.00000000000E+00 -0.00000000000E+00 -0.96644736312E+02  0.96644736312E+02  0.00000000000E+00 0. -1.
      99926    2    1    2    0    0  0.00000000000E+00  0.00000000000E+00  0.43067218078E+03  0.62396165340E+03  0.45149708484E+03 0.  0.
      99925    2    3    3    0    0 -0.10491165906E+03 -0.11493516118E+02  0.31386313109E+03  0.42288848436E+03  0.26303240869E+03 0.  0.
         25    1    4    4    0    0 -0.48915465475E+02  0.18784138496E+02  0.10625892692E+03  0.17229055189E+03  0.12509000000E+03 0.  0.
         25    1    3    3    0    0  0.10491165906E+03  0.11493516118E+02  0.11680904968E+03  0.20107316904E+03  0.12509000000E+03 0.  0.
         25    1    4    4    0    0 -0.55996193588E+02 -0.30277654614E+02  0.20760420418E+03  0.25059793247E+03  0.12509000000E+03 0.  0.
<mgrwt>
<rscale>  2 0.45149708E+03</rscale>
<asrwt>0</asrwt>
<pdfrwt beam="1">  1       21 0.77546604E-01 0.45149708E+03</pdfrwt>
<pdfrwt beam="2">  1       21 0.14212462E-01 0.45149708E+03</pdfrwt>
<totfact> 0.58837537E+04</totfact>
</mgrwt>
</event>
<event>
 7    0  0.4709932E-002  0.4526633E+03  0.7546771E-02  0.1026931E+00
         21   -1    0    0  502  501  0.00000000000E+00  0.00000000000E+00  0.43523768560E+03  0.43523768560E+03  0.00000000000E+00 0.  1.
         21   -1    0    0  501  502 -0.00000000000E+00 -0.00000000000E+00 -0.11769666171E+03  0.11769666171E+03  0.00000000000E+00 0.  1.
      99926    2    1    2    0    0  0.00000000000E+00  0.00000000000E+00  0.31754102389E+03  0.55293434732E+03  0.45266333029E+03 0.  0.
      99925    2    3    3    0    0  0.95040305433E+02  0.49695165574E+02  0.16367796144E+03  0.32749340333E+03  0.26260080926E+03 0.  0.
         25    1    4    4    0    0  0.64251871650E+02 -0.62136401586E+01  0.10345795197E+03  0.17469392737E+03  0.12509000000E+03 0.  0.
         25    1    3    3    0    0 -0.95040305433E+02 -0.49695165574E+02  0.15386306245E+03  0.22544094398E+03  0.12509000000E+03 0.  0.
         25    1    4    4    0    0  0.30788433783E+02  0.55908805733E+02  0.60220009478E+02  0.15279947596E+03  0.12509000000E+03 0.  0.
<mgrwt>
<rscale>  2 0.45266333E+03</rscale>
<asrwt>0</asrwt>
<pdfrwt beam="1">  1       21 0.64005541E-01 0.45266333E+03</pdfrwt>
<pdfrwt beam="2">  1       21 0.17308333E-01 0.45266333E+03</pdfrwt>
<totfact> 0.62826405E+04</totfact>
</mgrwt>
</event>
<event>
 7    0  0.4709932E-002  0.4612311E+03  0.7546771E-02  0.1024425E+00
         21   -1    0    0  502  501  0.00000000000E+00  0.00000000000E+00  0.90628658273E+03  0.90628658273E+03  0.00000000000E+00 0. -1.
         21   -1    0    0  501  502 -0.00000000000E+00 -0.00000000000E+00 -0.58682903757E+02  0.58682903757E+02  0.00000000000E+00 0. -1.
      99926    2    1    2    0    0  0.00000000000E+00 -0.25535129566E-14  0.84760367897E+03  0.96496948648E+03  0.46123108443E+03 0.  0.
      99925    2    3    3    0    0  0.43084484975E+02 -0.39619671038E+00  0.29870554876E+03  0.40035183243E+03  0.26305922347E+03 0.  0.
         25    1    4    4    0    0  0.11372463690E+02  0.31209150570E+02  0.11174157571E+03  0.17098839683E+03  0.12509000000E+03 0.  0.
         25    1    4    4    0    0  0.31712021285E+02 -0.31605347280E+02  0.18696397305E+03  0.22936343560E+03  0.12509000000E+03 0.  0.
         25    1    3    3    0    0 -0.43084484975E+02  0.39619671038E+00  0.54889813022E+03  0.56461765406E+03  0.12509000000E+03 0.  0.
<mgrwt>
<rscale>  2 0.46123108E+03</rscale>
<asrwt>0</asrwt>
<pdfrwt beam="1">  1       21 0.13327743E+00 0.46123108E+03</pdfrwt>
<pdfrwt beam="2">  1       21 0.86298394E-02 0.46123108E+03</pdfrwt>
<totfact> 0.38624240E+04</totfact>
</mgrwt>
</event>
<event>
 7    0  0.4709932E-002  0.4590348E+03  0.7546771E-02  0.1025062E+00
         21   -1    0    0  502  501  0.00000000000E+00  0.00000000000E+00  0.24575725576E+03  0.24575725576E+03  0.00000000000E+00 0.  1.
         21   -1    0    0  501  502 -0.00000000000E+00 -0.00000000000E+00 -0.21435069374E+03  0.21435069374E+03  0.00000000000E+00 0.  1.
      99926    2    1    2    0    0  0.53290705182E-14  0.00000000000E+00  0.31406562022E+02  0.46010794950E+03  0.45903480593E+03 0.  0.
      99925    2    3    3    0    0 -0.12311262988E+02 -0.67022766494E+02  0.11483000654E+03  0.29503039917E+03  0.26308437356E+03 0.  0.
         25    1    4    4    0    0  0.32199538679E+02 -0.21873055516E+02  0.46352864304E+02  0.13896523658E+03  0.12509000000E+03 0.  0.
         25    1    4    4    0    0 -0.44510801667E+02 -0.45149710977E+02  0.68477142236E+02  0.15606516259E+03  0.12509000000E+03 0.  0.
         25    1    3    3    0    0  0.12311262988E+02  0.67022766494E+02 -0.83423444519E+02  0.16507755032E+03  0.12509000000E+03 0.  0.
<mgrwt>
<rscale>  2 0.45903481E+03</rscale>
<asrwt>0</asrwt>
<pdfrwt beam="1">  1       21 0.36140773E-01 0.45903481E+03</pdfrwt>
<pdfrwt beam="2">  1       21 0.31522161E-01 0.45903481E+03</pdfrwt>
<totfact> 0.66022061E+04</totfact>
</mgrwt>
</event>
<event>
 7    0  0.4709932E-002  0.4577367E+03  0.7546771E-02  0.1025440E+00
         21   -1    0    0  502  501  0.00000000000E+00  0.00000000000E+00  0.28953976937E+03  0.28953976937E+03  0.00000000000E+00 0. -1.
         21   -1    0    0  501  502 -0.00000000000E+00 -0.00000000000E+00 -0.18091026069E+03  0.18091026069E+03  0.00000000000E+00 0. -1.
      99926    2    1    2    0    0  0.00000000000E+00 -0.35527136788E-14  0.10862950868E+03  0.47045003006E+03  0.45773667171E+03 0.  0.
      99925    2    3    3    0    0  0.91994672372E+02 -0.17505185490E+02 -0.12974004579E+01  0.27939798293E+03  0.26323392325E+03 0.  0.
         25    1    4    4    0    0  0.74514226933E+02 -0.40214233183E+02  0.53785558830E+00  0.15105413584E+03  0.12509000000E+03 0.  0.
         25    1    4    4    0    0  0.17480445439E+02  0.22709047693E+02 -0.18352560462E+01  0.12834384709E+03  0.12509000000E+03 0.  0.
         25    1    3    3    0    0 -0.91994672372E+02  0.17505185490E+02  0.10992690913E+03  0.19105204714E+03  0.12509000000E+03 0.  0.
<mgrwt>
<rscale>  2 0.45773667E+03</rscale>
<asrwt>0</asrwt>
<pdfrwt beam="1">  1       21 0.42579378E-01 0.45773667E+03</pdfrwt>
<pdfrwt beam="2">  1       21 0.26604450E-01 0.45773667E+03</pdfrwt>
<totfact> 0.65958813E+04</totfact>
</mgrwt>
</event>
<event>
 7    0  0.4709932E-002  0.5139888E+03  0.7546771E-02  0.1010191E+00
         21   -1    0    0  502  501  0.00000000000E+00  0.00000000000E+00  0.11775054420E+03  0.11775054420E+03  0.00000000000E+00 0. -1.
         21   -1    0    0  501  502 -0.00000000000E+00 -0.00000000000E+00 -0.56089865465E+03  0.56089865465E+03  0.00000000000E+00 0. -1.
      99926    2    1    2    0    0 -0.71054273576E-14  0.00000000000E+00 -0.44314811045E+03  0.67864919885E+03  0.51398880075E+03 0.  0.
      99925    2    3    3    0    0  0.57906387152E+02 -0.44089085140E+02 -0.45805735990E+03  0.53316108621E+03  0.26295855527E+03 0.  0.
         25    1    4    4    0    0  0.33557030202E+01 -0.45247139830E+02 -0.26758750957E+03  0.29884636150E+03  0.12509000000E+03 0.  0.
         25    1    4    4    0    0  0.54550684132E+02  0.11580546899E+01 -0.19046985033E+03  0.23431472471E+03  0.12509000000E+03 0.  0.
         25    1    3    3    0    0 -0.57906387152E+02  0.44089085140E+02  0.14909249442E+02  0.14548811264E+03  0.12509000000E+03 0.  0.
<mgrwt>
<rscale>  2 0.51398880E+03</rscale>
<asrwt>0</asrwt>
<pdfrwt beam="1">  1       21 0.17316256E-01 0.51398880E+03</pdfrwt>
<pdfrwt beam="2">  1       21 0.82485097E-01 0.51398880E+03</pdfrwt>
<totfact> 0.34827826E+04</totfact>
</mgrwt>
</event>
<event>
 7    0  0.4709932E-002  0.4417606E+03  0.7546771E-02  0.1030208E+00
         21   -1    0    0  502  501  0.00000000000E+00  0.00000000000E+00  0.23597227053E+04  0.23597227053E+04  0.00000000000E+00 0. -1.
         21   -1    0    0  501  502 -0.00000000000E+00 -0.00000000000E+00 -0.20675360051E+02  0.20675360051E+02  0.00000000000E+00 0. -1.
      99926    2    1    2    0    0  0.14210854715E-13 -0.53290705182E-14  0.23390473453E+04  0.23803980654E+04  0.44176064358E+03 0.  0.
      99925    2    3    3    0    0 -0.67512386752E+02  0.12686146807E+02  0.10972060864E+04  0.11303836331E+04  0.26303441057E+03 0.  0.
         25    1    3    3    0    0  0.67512386752E+02 -0.12686146807E+02  0.12418412589E+04  0.12500144323E+04  0.12509000000E+03 0.  0.
         25    1    4    4    0    0 -0.74500295388E+01  0.37357660165E+02  0.54722786225E+03  0.56263392987E+03  0.12509000000E+03 0.  0.
         25    1    4    4    0    0 -0.60062357213E+02 -0.24671513358E+02  0.54997822415E+03  0.56774970318E+03  0.12509000000E+03 0.  0.
<mgrwt>
<rscale>  2 0.44176064E+03</rscale>
<asrwt>0</asrwt>
<pdfrwt beam="1">  1       21 0.34701786E+00 0.44176064E+03</pdfrwt>
<pdfrwt beam="2">  1       21 0.30404957E-02 0.44176064E+03</pdfrwt>
<totfact> 0.93609287E+03</totfact>
</mgrwt>
</event>
<event>
 7    0  0.4709932E-002  0.4219147E+03  0.7546771E-02  0.1036445E+00
         21   -1    0    0  502  501  0.00000000000E+00  0.00000000000E+00  0.16316041776E+04  0.16316041776E+04  0.00000000000E+00 0.  1.
         21   -1    0    0  501  502 -0.00000000000E+00 -0.00000000000E+00 -0.27275609733E+02  0.27275609733E+02  0.00000000000E+00 0.  1.
      99926    2    1    2    0    0  0.00000000000E+00  0.71054273576E-14  0.16043285679E+04  0.16588797873E+04  0.42191467757E+03 0.  0.
      99925    2    3    3    0    0  0.46831724185E+02 -0.58255842928E+02  0.95310573645E+03  0.99155255285E+03  0.26301894720E+03 0.  0.
         25    1    4    4    0    0  0.27914636022E+02 -0.70170090137E+02  0.48886640461E+03  0.51023615915E+03  0.12509000000E+03 0.  0.
         25    1    4    4    0    0  0.18917088163E+02  0.11914247208E+02  0.46423933184E+03  0.48131639369E+03  0.12509000000E+03 0.  0.
         25    1    3    3    0    0 -0.46831724185E+02  0.58255842928E+02  0.65122283143E+03  0.66732723449E+03  0.12509000000E+03 0.  0.
<mgrwt>
<rscale>  2 0.42191468E+03</rscale>
<asrwt>0</asrwt>
<pdfrwt beam="1">  1       21 0.23994173E+00 0.42191468E+03</pdfrwt>
<pdfrwt beam="2">  1       21 0.40111202E-02 0.42191468E+03</pdfrwt>
<totfact> 0.26255334E+04</totfact>
</mgrwt>
</event>
<event>
 7    0  0.4709932E-002  0.4530120E+03  0.7546771E-02  0.1026828E+00
         21   -1    0    0  502  501  0.00000000000E+00  0.00000000000E+00  0.18061577018E+03  0.18061577018E+03  0.00000000000E+00 0. -1.
         21   -1    0    0  501  502 -0.00000000000E+00 -0.00000000000E+00 -0.28405583061E+03  0.28405583061E+03  0.00000000000E+00 0. -1.
      99926    2    1    2    0    0  0.00000000000E+00 -0.17763568394E-14 -0.10344006043E+03  0.46467160079E+03  0.45301197609E+03 0.  0.
      99925    2    3    3    0    0  0.10854909768E+03 -0.98588719307E+01 -0.87060516131E+02  0.29795057172E+03  0.26327724124E+03 0.  0.
         25    1    4    4    0    0  0.44774083296E+02  0.11615331723E+02 -0.40474672826E+01  0.13342984883E+03  0.12509000000E+03 0.  0.
         25    1    4    4    0    0  0.63775014386E+02 -0.21474203654E+02 -0.83013048848E+02  0.16452072289E+03  0.12509000000E+03 0.  0.
         25    1    3    3    0    0 -0.10854909768E+03  0.98588719307E+01 -0.16379544297E+02  0.16672102907E+03  0.12509000000E+03 0.  0.
<mgrwt>
<rscale>  2 0.45301198E+03</rscale>
<asrwt>0</asrwt>
<pdfrwt beam="1">  1       21 0.26561143E-01 0.45301198E+03</pdfrwt>
<pdfrwt beam="2">  1       21 0.41772916E-01 0.45301198E+03</pdfrwt>
<totfact> 0.68914741E+04</totfact>
</mgrwt>
</event>
<event>
 7    0  0.4709932E-002  0.4563166E+03  0.7546771E-02  0.1025855E+00
         21   -1    0    0  502  501  0.00000000000E+00  0.00000000000E+00  0.55937986859E+02  0.55937986859E+02  0.00000000000E+00 0.  1.
         21   -1    0    0  501  502 -0.00000000000E+00 -0.00000000000E+00 -0.93060569373E+03  0.93060569373E+03  0.00000000000E+00 0.  1.
      99926    2    1    2    0    0  0.35527136788E-14  0.00000000000E+00 -0.87466770688E+03  0.98654368059E+03  0.45631659653E+03 0.  0.
      99925    2    3    3    0    0  0.16821053972E+02 -0.69040539280E+02 -0.74365440156E+03  0.79196326485E+03  0.26293421229E+03 0.  0.
         25    1    4    4    0    0 -0.31944942810E+02 -0.37353383141E+02 -0.37171570905E+03  0.39526678466E+03  0.12509000000E+03 0.  0.
         25    1    3    3    0    0 -0.16821053972E+02  0.69040539280E+02 -0.13101330531E+03  0.19458041574E+03  0.12509000000E+03 0.  0.
         25    1    4    4    0    0  0.48765996782E+02 -0.31687156139E+02 -0.37193869252E+03  0.39669648019E+03  0.12509000000E+03 0.  0.
<mgrwt>
<rscale>  2 0.45631660E+03</rscale>
<asrwt>0</asrwt>
<pdfrwt beam="1">  1       21 0.82261745E-02 0.45631660E+03</pdfrwt>
<pdfrwt beam="2">  1       21 0.13685378E+00 0.45631660E+03</pdfrwt>
<totfact> 0.39288563E+04</totfact>
</mgrwt>
</event>
<event>
 7    0  0.4709932E-002  0.4567228E+03  0.7546771E-02  0.1025736E+00
         21   -1    0    0  502  501  0.00000000000E+00  0.00000000000E+00  0.84776752611E+03  0.84776752611E+03  0.00000000000E+00 0.  1.
         21   -1    0    0  501  502 -0.00000000000E+00 -0.00000000000E+00 -0.61513245347E+02  0.61513245347E+02  0.00000000000E+00 0.  1.
      99926    2    1    2    0    0  0.00000000000E+00  0.00000000000E+00  0.78625428076E+03  0.90928077146E+03  0.45672281235E+03 0.  0.
      99925    2    3    3    0    0 -0.80951617562E+02 -0.74813069052E+02  0.42957273586E+03  0.51555575033E+03  0.26289700762E+03 0.  0.
         25    1    3    3    0    0  0.80951617562E+02  0.74813069052E+02  0.35668154490E+03  0.39372502113E+03  0.12509000000E+03 0.  0.
         25    1    4    4    0    0 -0.69564743469E+02 -0.27617969921E+02  0.27194498928E+03  0.30855079175E+03  0.12509000000E+03 0.  0.
         25    1    4    4    0    0 -0.11386874093E+02 -0.47195099131E+02  0.15762774658E+03  0.20700495858E+03  0.12509000000E+03 0.  0.
<mgrwt>
<rscale>  2 0.45672281E+03</rscale>
<asrwt>0</asrwt>
<pdfrwt beam="1">  1       21 0.12467169E+00 0.45672281E+03</pdfrwt>
<pdfrwt beam="2">  1       21 0.90460660E-02 0.45672281E+03</pdfrwt>
<totfact> 0.42262022E+04</totfact>
</mgrwt>
</event>
<event>
 7    0  0.4709932E-002  0.4554048E+03  0.7546771E-02  0.1026122E+00
         21   -1    0    0  502  501  0.00000000000E+00  0.00000000000E+00  0.19100639573E+04  0.19100639573E+04  0.00000000000E+00 0. -1.
         21   -1    0    0  501  502 -0.00000000000E+00 -0.00000000000E+00 -0.27144844114E+02  0.27144844114E+02  0.00000000000E+00 0. -1.
      99926    2    1    2    0    0  0.14210854715E-13  0.00000000000E+00  0.18829191132E+04  0.19372088015E+04  0.45540482373E+03 0.  0.
      99925    2    3    3    0    0  0.99105521098E+02 -0.52875470435E+02  0.11130539394E+04  0.11492001634E+04  0.26297190696E+03 0.  0.
         25    1    3    3    0    0 -0.99105521098E+02  0.52875470435E+02  0.76986517382E+03  0.78800863805E+03  0.12509000000E+03 0.  0.
         25    1    4    4    0    0  0.43907912027E+02 -0.65881254899E+02  0.61366456397E+03  0.63126852421E+03  0.12509000000E+03 0.  0.
         25    1    4    4    0    0  0.55197609071E+02  0.13005784464E+02  0.49938937543E+03  0.51793163919E+03  0.12509000000E+03 0.  0.
<mgrwt>
<rscale>  2 0.45540482E+03</rscale>
<asrwt>0</asrwt>
<pdfrwt beam="1">  1       21 0.28089167E+00 0.45540482E+03</pdfrwt>
<pdfrwt beam="2">  1       21 0.39918901E-02 0.45540482E+03</pdfrwt>
<totfact> 0.14715958E+04</totfact>
</mgrwt>
</event>
<event>
 7    0  0.4709932E-002  0.4439033E+03  0.7546771E-02  0.1029556E+00
         21   -1    0    0  502  501  0.00000000000E+00  0.00000000000E+00  0.47985630106E+03  0.47985630106E+03  0.00000000000E+00 0.  1.
         21   -1    0    0  501  502 -0.00000000000E+00 -0.00000000000E+00 -0.10266100205E+03  0.10266100205E+03  0.00000000000E+00 0.  1.
      99926    2    1    2    0    0  0.00000000000E+00  0.00000000000E+00  0.37719529902E+03  0.58251730311E+03  0.44390327193E+03 0.  0.
      99925    2    3    3    0    0  0.72836734939E+02  0.69724795763E+02  0.21628630056E+03  0.35512787727E+03  0.26300058613E+03 0.  0.
         25    1    3    3    0    0 -0.72836734939E+02 -0.69724795763E+02  0.16090899846E+03  0.22738942584E+03  0.12509000000E+03 0.  0.
         25    1    4    4    0    0  0.36123530027E+01  0.36044299421E+02  0.13360689264E+03  0.18657585717E+03  0.12509000000E+03 0.  0.
         25    1    4    4    0    0  0.69224381936E+02  0.33680496342E+02  0.82679407914E+02  0.16855202010E+03  0.12509000000E+03 0.  0.
<mgrwt>
<rscale>  2 0.44390327E+03</rscale>
<asrwt>0</asrwt>
<pdfrwt beam="1">  1       21 0.70567102E-01 0.44390327E+03</pdfrwt>
<pdfrwt beam="2">  1       21 0.15097206E-01 0.44390327E+03</pdfrwt>
<totfact> 0.65310632E+04</totfact>
</mgrwt>
</event>
<event>
 7    0  0.4709932E-002  0.4516718E+03  0.7546771E-02  0.1027225E+00
         21   -1    0    0  502  501  0.00000000000E+00  0.00000000000E+00  0.14517104963E+03  0.14517104963E+03  0.00000000000E+00 0. -1.
         21   -1    0    0  501  502 -0.00000000000E+00 -0.00000000000E+00 -0.35132248735E+03  0.35132248735E+03  0.00000000000E+00 0. -1.
      99926    2    1    2    0    0  0.00000000000E+00  0.00000000000E+00 -0.20615143772E+03  0.49649353698E+03  0.45167180229E+03 0.  0.
      99925    2    3    3    0    0  0.57158036608E+02  0.90239783673E+02 -0.15851061910E+03  0.32524104676E+03  0.26314608571E+03 0.  0.
         25    1    4    4    0    0  0.27960135438E+02  0.34932554148E+02 -0.12277197847E+03  0.18089366852E+03  0.12509000000E+03 0.  0.
         25    1    3    3    0    0 -0.57158036608E+02 -0.90239783673E+02 -0.47640818623E+02  0.17125249022E+03  0.12509000000E+03 0.  0.
         25    1    4    4    0    0  0.29197901170E+02  0.55307229526E+02 -0.35738640631E+02  0.14434737824E+03  0.12509000000E+03 0.  0.
<mgrwt>
<rscale>  2 0.45167180E+03</rscale>
<asrwt>0</asrwt>
<pdfrwt beam="1">  1       21 0.21348684E-01 0.45167180E+03</pdfrwt>
<pdfrwt beam="2">  1       21 0.51665071E-01 0.45167180E+03</pdfrwt>
<totfact> 0.67277692E+04</totfact>
</mgrwt>
</event>
<event>
 7    0  0.4709932E-002  0.4616023E+03  0.7546771E-02  0.1024318E+00
         21   -1    0    0  502  501  0.00000000000E+00  0.00000000000E+00  0.17234242194E+03  0.17234242194E+03  0.00000000000E+00 0.  1.
         21   -1    0    0  501  502 -0.00000000000E+00 -0.00000000000E+00 -0.30908919614E+03  0.30908919614E+03  0.00000000000E+00 0.  1.
      99926    2    1    2    0    0 -0.35527136788E-14  0.14210854715E-13 -0.13674677420E+03  0.48143161808E+03  0.46160234253E+03 0.  0.
      99925    2    3    3    0    0 -0.18315188811E+02  0.11781571443E+03 -0.81335348585E+02  0.29995455921E+03  0.26294735206E+03 0.  0.
         25    1    4    4    0    0 -0.12622424769E+01  0.26266759603E+02 -0.92662649832E+01  0.12815969602E+03  0.12509000000E+03 0.  0.
         25    1    4    4    0    0 -0.17052946334E+02  0.91548954823E+02 -0.72069083602E+02  0.17179486319E+03  0.12509000000E+03 0.  0.
         25    1    3    3    0    0  0.18315188811E+02 -0.11781571443E+03 -0.55411425619E+02  0.18147705887E+03  0.12509000000E+03 0.  0.
<mgrwt>
<rscale>  2 0.46160234E+03</rscale>
<asrwt>0</asrwt>
<pdfrwt beam="1">  1       21 0.25344474E-01 0.46160234E+03</pdfrwt>
<pdfrwt beam="2">  1       21 0.45454293E-01 0.46160234E+03</pdfrwt>
<totfact> 0.63217844E+04</totfact>
</mgrwt>
</event>
<event>
 7    0  0.4709932E-002  0.4530612E+03  0.7546771E-02  0.1026813E+00
         21   -1    0    0  502  501  0.00000000000E+00  0.00000000000E+00  0.35440094958E+03  0.35440094958E+03  0.00000000000E+00 0. -1.
         21   -1    0    0  501  502 -0.00000000000E+00 -0.00000000000E+00 -0.14479677718E+03  0.14479677718E+03  0.00000000000E+00 0. -1.
      99926    2    1    2    0    0  0.00000000000E+00  0.00000000000E+00  0.20960417240E+03  0.49919772676E+03  0.45306121145E+03 0.  0.
      99925    2    3    3    0    0 -0.64578817218E+02  0.85120476647E+02  0.97286016293E+02  0.30000235666E+03  0.26290858841E+03 0.  0.
         25    1    3    3    0    0  0.64578817218E+02 -0.85120476647E+02  0.11231815610E+03  0.19919537010E+03  0.12509000000E+03 0.  0.
         25    1    4    4    0    0  0.67931299885E+01  0.25713325448E+02  0.48086382835E+02  0.13662770596E+03  0.12509000000E+03 0.  0.
         25    1    4    4    0    0 -0.71371947207E+02  0.59407151199E+02  0.49199633459E+02  0.16337465071E+03  0.12509000000E+03 0.  0.
<mgrwt>
<rscale>  2 0.45306121E+03</rscale>
<asrwt>0</asrwt>
<pdfrwt beam="1">  1       21 0.52117787E-01 0.45306121E+03</pdfrwt>
<pdfrwt beam="2">  1       21 0.21293644E-01 0.45306121E+03</pdfrwt>
<totfact> 0.66342211E+04</totfact>
</mgrwt>
</event>
<event>
 7    0  0.4709932E-002  0.4532503E+03  0.7546771E-02  0.1026757E+00
         21   -1    0    0  502  501  0.00000000000E+00  0.00000000000E+00  0.51304786615E+02  0.51304786615E+02  0.00000000000E+00 0.  1.
         21   -1    0    0  501  502 -0.00000000000E+00 -0.00000000000E+00 -0.10010558434E+04  0.10010558434E+04  0.00000000000E+00 0.  1.
      99926    2    1    2    0    0  0.17763568394E-14  0.00000000000E+00 -0.94975105676E+03  0.10523606300E+04  0.45325029039E+03 0.  0.
      99925    2    3    3    0    0  0.10470748864E+02  0.11040317004E+03 -0.62348404805E+03  0.68575980401E+03  0.26312668828E+03 0.  0.
         25    1    4    4    0    0 -0.16010424395E+02  0.77527069038E+02 -0.26210603562E+03  0.30102136491E+03  0.12509000000E+03 0.  0.
         25    1    4    4    0    0  0.26481173259E+02  0.32876101003E+02 -0.36137801243E+03  0.38473843910E+03  0.12509000000E+03 0.  0.
         25    1    3    3    0    0 -0.10470748864E+02 -0.11040317004E+03 -0.32626700871E+03  0.36660082598E+03  0.12509000000E+03 0.  0.
<mgrwt>
<rscale>  2 0.45325029E+03</rscale>
<asrwt>0</asrwt>
<pdfrwt beam="1">  1       21 0.75448224E-02 0.45325029E+03</pdfrwt>
<pdfrwt beam="2">  1       21 0.14721408E+00 0.45325029E+03</pdfrwt>
<totfact> 0.37703158E+04</totfact>
</mgrwt>
</event>
<event>
 7    0  0.4709932E-002  0.4612008E+03  0.7546771E-02  0.1024434E+00
         21   -1    0    0  502  501  0.00000000000E+00  0.00000000000E+00  0.22419720161E+03  0.22419720161E+03  0.00000000000E+00 0. -1.
         21   -1    0    0  501  502 -0.00000000000E+00 -0.00000000000E+00 -0.23718643866E+03  0.23718643866E+03  0.00000000000E+00 0. -1.
      99926    2    1    2    0    0  0.00000000000E+00  0.00000000000E+00 -0.12989237051E+02  0.46138364027E+03  0.46120076239E+03 0.  0.
      99925    2    3    3    0    0 -0.28300840487E+02 -0.82385761202E+02  0.72810667612E+02  0.28646227805E+03  0.26300359733E+03 0.  0.
         25    1    3    3    0    0  0.28300840487E+02  0.82385761202E+02 -0.85799904663E+02  0.17492136222E+03  0.12509000000E+03 0.  0.
         25    1    4    4    0    0 -0.18964937192E+02 -0.77951720355E+01  0.59161022744E+02  0.13988555416E+03  0.12509000000E+03 0.  0.
         25    1    4    4    0    0 -0.93359032947E+01 -0.74590589167E+02  0.13649644868E+02  0.14657672389E+03  0.12509000000E+03 0.  0.
<mgrwt>
<rscale>  2 0.46120076E+03</rscale>
<asrwt>0</asrwt>
<pdfrwt beam="1">  1       21 0.32970177E-01 0.46120076E+03</pdfrwt>
<pdfrwt beam="2">  1       21 0.34880358E-01 0.46120076E+03</pdfrwt>
<totfact> 0.64814095E+04</totfact>
</mgrwt>
</event>
<event>
 7    0  0.4709932E-002  0.4563819E+03  0.7546771E-02  0.1025836E+00
         21   -1    0    0  502  501  0.00000000000E+00  0.00000000000E+00  0.65787583832E+02  0.65787583832E+02  0.00000000000E+00 0. -1.
         21   -1    0    0  501  502 -0.00000000000E+00 -0.00000000000E+00 -0.79150353422E+03  0.79150353422E+03  0.00000000000E+00 0. -1.
      99926    2    1    2    0    0  0.00000000000E+00 -0.14210854715E-13 -0.72571595038E+03  0.85729111805E+03  0.45638188006E+03 0.  0.
      99925    2    3    3    0    0  0.44241060060E+02  0.76048695669E+02 -0.31851147665E+03  0.42231563939E+03  0.26298338922E+03 0.  0.
         25    1    4    4    0    0  0.19774396197E+02  0.44326049631E+02 -0.22171103796E+03  0.25915076283E+03  0.12509000000E+03 0.  0.
         25    1    3    3    0    0 -0.44241060060E+02 -0.76048695669E+02 -0.40720447373E+03  0.43497547866E+03  0.12509000000E+03 0.  0.
         25    1    4    4    0    0  0.24466663862E+02  0.31722646037E+02 -0.96800438692E+02  0.16316487656E+03  0.12509000000E+03 0.  0.
<mgrwt>
<rscale>  2 0.45638188E+03</rscale>
<asrwt>0</asrwt>
<pdfrwt beam="1">  1       21 0.96746448E-02 0.45638188E+03</pdfrwt>
<pdfrwt beam="2">  1       21 0.11639758E+00 0.45638188E+03</pdfrwt>
<totfact> 0.44629227E+04</totfact>
</mgrwt>
</event>
<event>
 7    0  0.4709932E-002  0.4561050E+03  0.7546771E-02  0.1025917E+00
         21   -1    0    0  502  501  0.00000000000E+00  0.00000000000E+00  0.16936362427E+03  0.16936362427E+03  0.00000000000E+00 0.  1.
         21   -1    0    0  501  502 -0.00000000000E+00 -0.00000000000E+00 -0.30707860885E+03  0.30707860885E+03  0.00000000000E+00 0.  1.
      99926    2    1    2    0    0  0.00000000000E+00  0.00000000000E+00 -0.13771498458E+03  0.47644223312E+03  0.45610501479E+03 0.  0.
      99925    2    3    3    0    0  0.50302283893E+02  0.93286717207E+02 -0.42314567687E+02  0.28675438686E+03  0.26306809836E+03 0.  0.
         25    1    4    4    0    0  0.65106533082E+02  0.58940516119E+02 -0.28351346797E+02  0.15544822950E+03  0.12509000000E+03 0.  0.
         25    1    4    4    0    0 -0.14804249190E+02  0.34346201088E+02 -0.13963220890E+02  0.13130615736E+03  0.12509000000E+03 0.  0.
         25    1    3    3    0    0 -0.50302283893E+02 -0.93286717207E+02 -0.95400416896E+02  0.18968784625E+03  0.12509000000E+03 0.  0.
<mgrwt>
<rscale>  2 0.45610501E+03</rscale>
<asrwt>0</asrwt>
<pdfrwt beam="1">  1       21 0.24906415E-01 0.45610501E+03</pdfrwt>
<pdfrwt beam="2">  1       21 0.45158619E-01 0.45610501E+03</pdfrwt>
<totfact> 0.66376005E+04</totfact>
</mgrwt>
</event>
<event>
 7    0  0.4709932E-002  0.4595826E+03  0.7546771E-02  0.1024902E+00
         21   -1    0    0  502  501  0.00000000000E+00  0.00000000000E+00  0.98056102739E+03  0.98056102739E+03  0.00000000000E+00 0.  1.
         21   -1    0    0  501  502 -0.00000000000E+00 -0.00000000000E+00 -0.53850856031E+02  0.53850856031E+02  0.00000000000E+00 0.  1.
      99926    2    1    2    0    0  0.00000000000E+00 -0.14210854715E-13  0.92671017136E+03  0.10344118834E+04  0.45958263986E+03 0.  0.
      99925    2    3    3    0    0 -0.74392886913E+02  0.85480857242E+02  0.65061886508E+03  0.71081460890E+03  0.26289013303E+03 0.  0.
         25    1    4    4    0    0 -0.14230074119E+01  0.61625334982E+02  0.31029105559E+03  0.34018782186E+03  0.12509000000E+03 0.  0.
         25    1    4    4    0    0 -0.72969879501E+02  0.23855522259E+02  0.34032780949E+03  0.37062678704E+03  0.12509000000E+03 0.  0.
         25    1    3    3    0    0  0.74392886913E+02 -0.85480857242E+02  0.27609130627E+03  0.32359727452E+03  0.12509000000E+03 0.  0.
<mgrwt>
<rscale>  2 0.45958264E+03</rscale>
<asrwt>0</asrwt>
<pdfrwt beam="1">  1       21 0.14420014E+00 0.45958264E+03</pdfrwt>
<pdfrwt beam="2">  1       21 0.79192441E-02 0.45958264E+03</pdfrwt>
<totfact> 0.36530162E+04</totfact>
</mgrwt>
</event>
<event>
 7    0  0.4709932E-002  0.4570220E+03  0.7546771E-02  0.1025648E+00
         21   -1    0    0  502  501  0.00000000000E+00  0.00000000000E+00  0.29449849487E+02  0.29449849487E+02  0.00000000000E+00 0.  1.
         21   -1    0    0  501  502 -0.00000000000E+00 -0.00000000000E+00 -0.17730911502E+04  0.17730911502E+04  0.00000000000E+00 0.  1.
      99926    2    1    2    0    0 -0.35527136788E-14  0.00000000000E+00 -0.17436413007E+04  0.18025409997E+04  0.45702195790E+03 0.  0.
      99925    2    3    3    0    0  0.22888690567E+02 -0.91658390514E+02 -0.13542584584E+04  0.13827890983E+04  0.26299156945E+03 0.  0.
         25    1    3    3    0    0 -0.22888690567E+02  0.91658390514E+02 -0.38938284233E+03  0.41975190138E+03  0.12509000000E+03 0.  0.
         25    1    4    4    0    0  0.16522705118E+01 -0.84040258712E+02 -0.80825351063E+03  0.82218412817E+03  0.12509000000E+03 0.  0.
         25    1    4    4    0    0  0.21236420055E+02 -0.76181318026E+01 -0.54600494779E+03  0.56060497017E+03  0.12509000000E+03 0.  0.
<mgrwt>
<rscale>  2 0.45702196E+03</rscale>
<asrwt>0</asrwt>
<pdfrwt beam="1">  1       21 0.43308600E-02 0.45702196E+03</pdfrwt>
<pdfrwt beam="2">  1       21 0.26074871E+00 0.45702196E+03</pdfrwt>
<totfact> 0.16943146E+04</totfact>
</mgrwt>
</event>
<event>
 7    0  0.4709932E-002  0.4998727E+03  0.7546771E-02  0.1013812E+00
         21   -1    0    0  502  501  0.00000000000E+00  0.00000000000E+00  0.12447615920E+04  0.12447615920E+04  0.00000000000E+00 0.  1.
         21   -1    0    0  501  502 -0.00000000000E+00 -0.00000000000E+00 -0.50184855865E+02  0.50184855865E+02  0.00000000000E+00 0.  1.
      99926    2    1    2    0    0 -0.71054273576E-14  0.00000000000E+00  0.11945767361E+04  0.12949464478E+04  0.49987270811E+03 0.  0.
      99925    2    3    3    0    0  0.46209911275E+02  0.14345602739E+03  0.76116394107E+03  0.81933195406E+03  0.26309564430E+03 0.  0.
         25    1    4    4    0    0  0.29356986637E+02  0.96948301693E+02  0.50449408965E+03  0.52954943155E+03  0.12509000000E+03 0.  0.
         25    1    3    3    0    0 -0.46209911275E+02 -0.14345602739E+03  0.43341279501E+03  0.47561449376E+03  0.12509000000E+03 0.  0.
         25    1    4    4    0    0  0.16852924638E+02  0.46507725698E+02  0.25666985142E+03  0.28978252250E+03  0.12509000000E+03 0.  0.
<mgrwt>
<rscale>  2 0.49987271E+03</rscale>
<asrwt>0</asrwt>
<pdfrwt beam="1">  1       21 0.18305316E+00 0.49987271E+03</pdfrwt>
<pdfrwt beam="2">  1       21 0.73801267E-02 0.49987271E+03</pdfrwt>
<totfact> 0.20939289E+04</totfact>
</mgrwt>
</event>
<event>
 7    0  0.4709932E-002  0.4562041E+03  0.7546771E-02  0.1025888E+00
         21   -1    0    0  502  501  0.00000000000E+00  0.00000000000E+00  0.15133804556E+03  0.15133804556E+03  0.00000000000E+00 0. -1.
         21   -1    0    0  501  502 -0.00000000000E+00 -0.00000000000E+00 -0.34380351034E+03  0.34380351034E+03  0.00000000000E+00 0. -1.
      99926    2    1    2    0    0  0.00000000000E+00  0.17763568394E-14 -0.19246546479E+03  0.49514155590E+03  0.45620412673E+03 0.  0.
      99925    2    3    3    0    0 -0.11121065792E+03 -0.91088193162E+01 -0.94171772402E+02  0.30082238781E+03  0.26301141661E+03 0.  0.
         25    1    4    4    0    0 -0.44524009903E+02 -0.15719008990E+02 -0.85381143199E+02  0.15864085985E+03  0.12509000000E+03 0.  0.
         25    1    4    4    0    0 -0.66686648016E+02  0.66101896740E+01 -0.87906292030E+01  0.14218152796E+03  0.12509000000E+03 0.  0.
         25    1    3    3    0    0  0.11121065792E+03  0.91088193162E+01 -0.98293692385E+02  0.19431916809E+03  0.12509000000E+03 0.  0.
<mgrwt>
<rscale>  2 0.45620413E+03</rscale>
<asrwt>0</asrwt>
<pdfrwt beam="1">  1       21 0.22255595E-01 0.45620413E+03</pdfrwt>
<pdfrwt beam="2">  1       21 0.50559339E-01 0.45620413E+03</pdfrwt>
<totfact> 0.64989876E+04</totfact>
</mgrwt>
</event>
<event>
 7    0  0.4709932E-002  0.4499957E+03  0.7546771E-02  0.1027723E+00
         21   -1    0    0  502  501  0.00000000000E+00  0.00000000000E+00  0.71720138510E+02  0.71720138510E+02  0.00000000000E+00 0. -1.
         21   -1    0    0  501  502 -0.00000000000E+00 -0.00000000000E+00 -0.70585515555E+03  0.70585515555E+03  0.00000000000E+00 0. -1.
      99926    2    1    2    0    0  0.00000000000E+00  0.00000000000E+00 -0.63413501704E+03  0.77757529406E+03  0.44999568675E+03 0.  0.
      99925    2    3    3    0    0  0.10449285648E+03  0.26560401000E+02 -0.42088326663E+03  0.50785686846E+03  0.26296703739E+03 0.  0.
         25    1    3    3    0    0 -0.10449285648E+03 -0.26560401000E+02 -0.21325175041E+03  0.26971842560E+03  0.12509000000E+03 0.  0.
         25    1    4    4    0    0  0.75069010201E+02  0.40236677419E+01 -0.16257845383E+03  0.21847381524E+03  0.12509000000E+03 0.  0.
         25    1    4    4    0    0  0.29423846279E+02  0.22536733258E+02 -0.25830481280E+03  0.28938305322E+03  0.12509000000E+03 0.  0.
<mgrwt>
<rscale>  2 0.44999569E+03</rscale>
<asrwt>0</asrwt>
<pdfrwt beam="1">  1       21 0.10547079E-01 0.44999569E+03</pdfrwt>
<pdfrwt beam="2">  1       21 0.10380223E+00 0.44999569E+03</pdfrwt>
<totfact> 0.50836315E+04</totfact>
</mgrwt>
</event>
<event>
 7    0  0.4709932E-002  0.4549620E+03  0.7546771E-02  0.1026253E+00
         21   -1    0    0  502  501  0.00000000000E+00  0.00000000000E+00  0.20596155731E+02  0.20596155731E+02  0.00000000000E+00 0.  1.
         21   -1    0    0  501  502 -0.00000000000E+00 -0.00000000000E+00 -0.25124882205E+04  0.25124882205E+04  0.00000000000E+00 0.  1.
      99926    2    1    2    0    0 -0.35527136788E-14  0.00000000000E+00 -0.24918920648E+04  0.25330843762E+04  0.45496197055E+03 0.  0.
      99925    2    3    3    0    0  0.25232678625E+02 -0.47849186786E+02 -0.21213167880E+04  0.21382429187E+04  0.26300500280E+03 0.  0.
         25    1    4    4    0    0  0.35863397432E+02 -0.24518891022E+02 -0.81345763099E+03  0.82416514414E+03  0.12509000000E+03 0.  0.
         25    1    3    3    0    0 -0.25232678625E+02  0.47849186786E+02 -0.37057527676E+03  0.39484145754E+03  0.12509000000E+03 0.  0.
         25    1    4    4    0    0 -0.10630718807E+02 -0.23330295764E+02 -0.13078591570E+04  0.13140777745E+04  0.12509000000E+03 0.  0.
<mgrwt>
<rscale>  2 0.45496197E+03</rscale>
<asrwt>0</asrwt>
<pdfrwt beam="1">  1       21 0.30288484E-02 0.45496197E+03</pdfrwt>
<pdfrwt beam="2">  1       21 0.36948332E+00 0.45496197E+03</pdfrwt>
<totfact> 0.68012057E+03</totfact>
</mgrwt>
</event>
<event>
 7    0  0.4709932E-002  0.4506361E+03  0.7546771E-02  0.1027533E+00
         21   -1    0    0  502  501  0.00000000000E+00  0.00000000000E+00  0.12104289167E+04  0.12104289167E+04  0.00000000000E+00 0. -1.
         21   -1    0    0  501  502 -0.00000000000E+00 -0.00000000000E+00 -0.41942346706E+02  0.41942346706E+02  0.00000000000E+00 0. -1.
      99926    2    1    2    0    0  0.00000000000E+00  0.00000000000E+00  0.11684865700E+04  0.12523712634E+04  0.45063612500E+03 0.  0.
      99925    2    3    3    0    0  0.10016456000E+03  0.29674425429E+02  0.65166415614E+03  0.71046128364E+03  0.26301245703E+03 0.  0.
         25    1    4    4    0    0  0.23756575333E+02  0.24669964294E+02  0.38311649673E+03  0.40447341096E+03  0.12509000000E+03 0.  0.
         25    1    4    4    0    0  0.76407984670E+02  0.50044611343E+01  0.26854765941E+03  0.30598787268E+03  0.12509000000E+03 0.  0.
         25    1    3    3    0    0 -0.10016456000E+03 -0.29674425429E+02  0.51682241388E+03  0.54190997979E+03  0.12509000000E+03 0.  0.
<mgrwt>
<rscale>  2 0.45063612E+03</rscale>
<asrwt>0</asrwt>
<pdfrwt beam="1">  1       21 0.17800423E+00 0.45063612E+03</pdfrwt>
<pdfrwt beam="2">  1       21 0.61679929E-02 0.45063612E+03</pdfrwt>
<totfact> 0.31589400E+04</totfact>
</mgrwt>
</event>
<event>
 7    0  0.4709932E-002  0.5573986E+03  0.7546771E-02  0.9997958E-01
         21   -1    0    0  502  501  0.00000000000E+00  0.00000000000E+00  0.41363573663E+03  0.41363573663E+03  0.00000000000E+00 0.  1.
         21   -1    0    0  501  502 -0.00000000000E+00 -0.00000000000E+00 -0.18778187106E+03  0.18778187106E+03  0.00000000000E+00 0.  1.
      99926    2    1    2    0    0  0.00000000000E+00  0.14210854715E-13  0.22585386556E+03  0.60141760769E+03  0.55739857396E+03 0.  0.
      99925    2    3    3    0    0  0.13514726573E+03  0.64832919095E+02  0.26496013748E+03  0.40230733815E+03  0.26301944613E+03 0.  0.
         25    1    3    3    0    0 -0.13514726573E+03 -0.64832919095E+02 -0.39106271916E+02  0.19911026954E+03  0.12509000000E+03 0.  0.
         25    1    4    4    0    0  0.61507739926E+02  0.71385125188E+02  0.12263216644E+03  0.19891001612E+03  0.12509000000E+03 0.  0.
         25    1    4    4    0    0  0.73639525808E+02 -0.65522060927E+01  0.14232797104E+03  0.20339732203E+03  0.12509000000E+03 0.  0.
<mgrwt>
<rscale>  2 0.55739857E+03</rscale>
<asrwt>0</asrwt>
<pdfrwt beam="1">  1       21 0.60828785E-01 0.55739857E+03</pdfrwt>
<pdfrwt beam="2">  1       21 0.27614981E-01 0.55739857E+03</pdfrwt>
<totfact> 0.28011169E+04</totfact>
</mgrwt>
</event>
<event>
 7    0  0.4709932E-002  0.4572596E+03  0.7546771E-02  0.1025579E+00
         21   -1    0    0  502  501  0.00000000000E+00  0.00000000000E+00  0.35859150662E+03  0.35859150662E+03  0.00000000000E+00 0.  1.
         21   -1    0    0  501  502 -0.00000000000E+00 -0.00000000000E+00 -0.14576919474E+03  0.14576919474E+03  0.00000000000E+00 0.  1.
      99926    2    1    2    0    0  0.00000000000E+00  0.00000000000E+00  0.21282231188E+03  0.50436070136E+03  0.45725964248E+03 0.  0.
      99925    2    3    3    0    0 -0.10630344632E+03  0.24932144060E+02  0.17423163534E+03  0.33389433247E+03  0.26307171645E+03 0.  0.
         25    1    3    3    0    0  0.10630344632E+03 -0.24932144060E+02  0.38590676532E+02  0.17046636889E+03  0.12509000000E+03 0.  0.
         25    1    4    4    0    0 -0.24844635484E+02  0.18880267642E+02  0.11639434288E+03  0.17369188690E+03  0.12509000000E+03 0.  0.
         25    1    4    4    0    0 -0.81458810831E+02  0.60518764183E+01  0.57837292463E+02  0.16020244558E+03  0.12509000000E+03 0.  0.
<mgrwt>
<rscale>  2 0.45725964E+03</rscale>
<asrwt>0</asrwt>
<pdfrwt beam="1">  1       21 0.52734045E-01 0.45725964E+03</pdfrwt>
<pdfrwt beam="2">  1       21 0.21436646E-01 0.45725964E+03</pdfrwt>
<totfact> 0.63813117E+04</totfact>
</mgrwt>
</event>
<event>
 7    0  0.4709932E-002  0.3891503E+03  0.7546771E-02  0.1047603E+00
         21   -1    0    0  502  501  0.00000000000E+00  0.00000000000E+00  0.87693336546E+02  0.87693336546E+02  0.00000000000E+00 0. -1.
         21   -1    0    0  501  502 -0.00000000000E+00 -0.00000000000E+00 -0.43172586966E+03  0.43172586966E+03  0.00000000000E+00 0. -1.
      99926    2    1    2    0    0 -0.17763568394E-14  0.53290705182E-14 -0.34403253311E+03  0.51941920620E+03  0.38915026395E+03 0.  0.
      99925    2    3    3    0    0 -0.12939830332E+01 -0.14024036526E+02 -0.23056533785E+03  0.34994749619E+03  0.26287739934E+03 0.  0.
         25    1    4    4    0    0 -0.26653999394E+02  0.23543768646E+02 -0.12003929313E+03  0.17697933417E+03  0.12509000000E+03 0.  0.
         25    1    4    4    0    0  0.25360016361E+02 -0.37567805172E+02 -0.11052604471E+03  0.17296816203E+03  0.12509000000E+03 0.  0.
         25    1    3    3    0    0  0.12939830332E+01  0.14024036526E+02 -0.11346719526E+03  0.16947171001E+03  0.12509000000E+03 0.  0.
<mgrwt>
<rscale>  2 0.38915026E+03</rscale>
<asrwt>0</asrwt>
<pdfrwt beam="1">  1       21 0.12896079E-01 0.38915026E+03</pdfrwt>
<pdfrwt beam="2">  1       21 0.63489099E-01 0.38915026E+03</pdfrwt>
<totfact> 0.11178570E+05</totfact>
</mgrwt>
</event>
<event>
 7    0  0.4709932E-002  0.4142149E+03  0.7546771E-02  0.1038966E+00
         21   -1    0    0  502  501  0.00000000000E+00  0.00000000000E+00  0.12074390868E+03  0.12074390868E+03  0.00000000000E+00 0.  1.
         21   -1    0    0  501  502 -0.00000000000E+00 -0.00000000000E+00 -0.35524358196E+03  0.35524358196E+03  0.00000000000E+00 0.  1.
      99926    2    1    2    0    0  0.00000000000E+00 -0.35527136788E-14 -0.23449967328E+03  0.47598749065E+03  0.41421491340E+03 0.  0.
      99925    2    3    3    0    0 -0.53945224595E+02  0.18883056944E+02 -0.11062134707E+03  0.29089290698E+03  0.26289721149E+03 0.  0.
         25    1    3    3    0    0  0.53945224595E+02 -0.18883056944E+02 -0.12387832621E+03  0.18509458366E+03  0.12509000000E+03 0.  0.
         25    1    4    4    0    0 -0.45238266509E+02  0.12229398477E+02 -0.95951936154E+02  0.16446987899E+03  0.12509000000E+03 0.  0.
         25    1    4    4    0    0 -0.87069580863E+01  0.66536584665E+01 -0.14669410913E+02  0.12642302799E+03  0.12509000000E+03 0.  0.
<mgrwt>
<rscale>  2 0.41421491E+03</rscale>
<asrwt>0</asrwt>
<pdfrwt beam="1">  1       21 0.17756457E-01 0.41421491E+03</pdfrwt>
<pdfrwt beam="2">  1       21 0.52241703E-01 0.41421491E+03</pdfrwt>
<totfact> 0.93898481E+04</totfact>
</mgrwt>
</event>
<event>
 7    0  0.4709932E-002  0.4578172E+03  0.7546771E-02  0.1025416E+00
         21   -1    0    0  502  501  0.00000000000E+00  0.00000000000E+00  0.10041533445E+04  0.10041533445E+04  0.00000000000E+00 0. -1.
         21   -1    0    0  501  502 -0.00000000000E+00 -0.00000000000E+00 -0.52182413523E+02  0.52182413523E+02  0.00000000000E+00 0. -1.
      99926    2    1    2    0    0  0.35527136788E-14  0.00000000000E+00  0.95197093099E+03  0.10563357580E+04  0.45781719087E+03 0.  0.
      99925    2    3    3    0    0  0.22464314958E+02  0.11340990248E+03  0.59862014123E+03  0.66407214750E+03  0.26320959741E+03 0.  0.
         25    1    4    4    0    0 -0.12556679696E+02  0.36212488472E+02  0.34333952678E+03  0.36742149267E+03  0.12509000000E+03 0.  0.
         25    1    3    3    0    0 -0.22464314958E+02 -0.11340990248E+03  0.35335078976E+03  0.39226361054E+03  0.12509000000E+03 0.  0.
         25    1    4    4    0    0  0.35020994654E+02  0.77197414010E+02  0.25528061444E+03  0.29665065482E+03  0.12509000000E+03 0.  0.
<mgrwt>
<rscale>  2 0.45781719E+03</rscale>
<asrwt>0</asrwt>
<pdfrwt beam="1">  1       21 0.14766960E+00 0.45781719E+03</pdfrwt>
<pdfrwt beam="2">  1       21 0.76738849E-02 0.45781719E+03</pdfrwt>
<totfact> 0.36242308E+04</totfact>
</mgrwt>
</event>
<event>
 7    0  0.4709932E-002  0.4666981E+03  0.7546771E-02  0.1022856E+00
         21   -1    0    0  502  501  0.00000000000E+00  0.00000000000E+00  0.31608232903E+03  0.31608232903E+03  0.00000000000E+00 0. -1.
         21   -1    0    0  501  502 -0.00000000000E+00 -0.00000000000E+00 -0.17227084857E+03  0.17227084857E+03  0.00000000000E+00 0. -1.
      99926    2    1    2    0    0 -0.35527136788E-14  0.00000000000E+00  0.14381148046E+03  0.48835317759E+03  0.46669806530E+03 0.  0.
      99925    2    3    3    0    0 -0.23216084497E+02 -0.57989840669E+02  0.20141435335E+03  0.33713344586E+03  0.26303880014E+03 0.  0.
         25    1    3    3    0    0  0.23216084497E+02  0.57989840669E+02 -0.57602872894E+02  0.15121973173E+03  0.12509000000E+03 0.  0.
         25    1    4    4    0    0 -0.19457310468E+02  0.11366156153E+02  0.88785787700E+02  0.15504257684E+03  0.12509000000E+03 0.  0.
         25    1    4    4    0    0 -0.37587740290E+01 -0.69355996822E+02  0.11262856565E+03  0.18209086901E+03  0.12509000000E+03 0.  0.
<mgrwt>
<rscale>  2 0.46669807E+03</rscale>
<asrwt>0</asrwt>
<pdfrwt beam="1">  1       21 0.46482695E-01 0.46669807E+03</pdfrwt>
<pdfrwt beam="2">  1       21 0.25333948E-01 0.46669807E+03</pdfrwt>
<totfact> 0.60300135E+04</totfact>
</mgrwt>
</event>
<event>
 7    0  0.4709932E-002  0.4582366E+03  0.7546771E-02  0.1025294E+00
         21   -1    0    0  502  501  0.00000000000E+00  0.00000000000E+00  0.18729521387E+03  0.18729521387E+03  0.00000000000E+00 0.  1.
         21   -1    0    0  501  502 -0.00000000000E+00 -0.00000000000E+00 -0.28028051662E+03  0.28028051662E+03  0.00000000000E+00 0.  1.
      99926    2    1    2    0    0  0.00000000000E+00  0.00000000000E+00 -0.92985302753E+02  0.46757573049E+03  0.45823661706E+03 0.  0.
      99925    2    3    3    0    0  0.10811400762E+03  0.95113364127E+01 -0.10044759280E+03  0.30179787299E+03  0.26308388981E+03 0.  0.
         25    1    4    4    0    0  0.46249993162E+02  0.95715892884E+01 -0.70880090844E+01  0.13389706928E+03  0.12509000000E+03 0.  0.
         25    1    3    3    0    0 -0.10811400762E+03 -0.95113364127E+01  0.74622900485E+01  0.16577785750E+03  0.12509000000E+03 0.  0.
         25    1    4    4    0    0  0.61864014460E+02 -0.60252875619E-01 -0.93359583717E+02  0.16790080371E+03  0.12509000000E+03 0.  0.
<mgrwt>
<rscale>  2 0.45823662E+03</rscale>
<asrwt>0</asrwt>
<pdfrwt beam="1">  1       21 0.27543414E-01 0.45823662E+03</pdfrwt>
<pdfrwt beam="2">  1       21 0.41217723E-01 0.45823662E+03</pdfrwt>
<totfact> 0.65907399E+04</totfact>
</mgrwt>
</event>
<event>
 7    0  0.4709932E-002  0.4554955E+03  0.7546771E-02  0.1026096E+00
         21   -1    0    0  502  501  0.00000000000E+00  0.00000000000E+00  0.67247598592E+02  0.67247598592E+02  0.00000000000E+00 0.  1.
         21   -1    0    0  501  502 -0.00000000000E+00 -0.00000000000E+00 -0.77131439025E+03  0.77131439025E+03  0.00000000000E+00 0.  1.
      99926    2    1    2    0    0  0.00000000000E+00 -0.14210854715E-13 -0.70406679165E+03  0.83856198884E+03  0.45549551262E+03 0.  0.
      99925    2    3    3    0    0 -0.34507297702E+02  0.83782284602E+02 -0.31658399816E+03  0.42142813962E+03  0.26299434246E+03 0.  0.
         25    1    4    4    0    0  0.22508463129E+01  0.11037571864E+02 -0.11286567969E+03  0.16885811811E+03  0.12509000000E+03 0.  0.
         25    1    3    3    0    0  0.34507297702E+02 -0.83782284602E+02 -0.38748279349E+03  0.41713384921E+03  0.12509000000E+03 0.  0.
         25    1    4    4    0    0 -0.36758144015E+02  0.72744712738E+02 -0.20371831848E+03  0.25257002151E+03  0.12509000000E+03 0.  0.
<mgrwt>
<rscale>  2 0.45549551E+03</rscale>
<asrwt>0</asrwt>
<pdfrwt beam="1">  1       21 0.98893525E-02 0.45549551E+03</pdfrwt>
<pdfrwt beam="2">  1       21 0.11342859E+00 0.45549551E+03</pdfrwt>
<totfact> 0.45777233E+04</totfact>
</mgrwt>
</event>
<event>
 7    0  0.4709932E-002  0.4552301E+03  0.7546771E-02  0.1026174E+00
         21   -1    0    0  502  501  0.00000000000E+00  0.00000000000E+00  0.56655750803E+02  0.56655750803E+02  0.00000000000E+00 0. -1.
         21   -1    0    0  501  502 -0.00000000000E+00 -0.00000000000E+00 -0.91444558392E+03  0.91444558392E+03  0.00000000000E+00 0. -1.
      99926    2    1    2    0    0  0.00000000000E+00  0.00000000000E+00 -0.85778983312E+03  0.97110133472E+03  0.45523005668E+03 0.  0.
      99925    2    3    3    0    0  0.93923314863E+02  0.64091315499E+02 -0.54154656418E+03  0.61251159833E+03  0.26261852775E+03 0.  0.
         25    1    3    3    0    0 -0.93923314863E+02 -0.64091315499E+02 -0.31624326894E+03  0.35858973639E+03  0.12509000000E+03 0.  0.
         25    1    4    4    0    0  0.17824263013E+02  0.36328478732E+02 -0.31507893155E+03  0.34140841221E+03  0.12509000000E+03 0.  0.
         25    1    4    4    0    0  0.76099051851E+02  0.27762836767E+02 -0.22646763262E+03  0.27110318612E+03  0.12509000000E+03 0.  0.
<mgrwt>
<rscale>  2 0.45523006E+03</rscale>
<asrwt>0</asrwt>
<pdfrwt beam="1">  1       21 0.83317281E-02 0.45523006E+03</pdfrwt>
<pdfrwt beam="2">  1       21 0.13447729E+00 0.45523006E+03</pdfrwt>
<totfact> 0.40225568E+04</totfact>
</mgrwt>
</event>
<event>
 7    0  0.4709932E-002  0.4397891E+03  0.7546771E-02  0.1030812E+00
         21   -1    0    0  502  501  0.00000000000E+00  0.00000000000E+00  0.23354391248E+03  0.23354391248E+03  0.00000000000E+00 0. -1.
         21   -1    0    0  501  502 -0.00000000000E+00 -0.00000000000E+00 -0.20704291220E+03  0.20704291220E+03  0.00000000000E+00 0. -1.
      99926    2    1    2    0    0  0.00000000000E+00  0.00000000000E+00  0.26501000278E+02  0.44058682468E+03  0.43978909384E+03 0.  0.
      99925    2    3    3    0    0  0.33529308815E+02  0.82801277566E+02  0.57799520204E+02  0.28371945533E+03  0.26301269681E+03 0.  0.
         25    1    4    4    0    0  0.19387892163E+02  0.70392292032E+02  0.47621721304E+00  0.14484025691E+03  0.12509000000E+03 0.  0.
         25    1    3    3    0    0 -0.33529308815E+02 -0.82801277566E+02 -0.31298519926E+02  0.15686736935E+03  0.12509000000E+03 0.  0.
         25    1    4    4    0    0  0.14141416652E+02  0.12408985534E+02  0.57323302991E+02  0.13887919842E+03  0.12509000000E+03 0.  0.
<mgrwt>
<rscale>  2 0.43978909E+03</rscale>
<asrwt>0</asrwt>
<pdfrwt beam="1">  1       21 0.34344693E-01 0.43978909E+03</pdfrwt>
<pdfrwt beam="2">  1       21 0.30447487E-01 0.43978909E+03</pdfrwt>
<totfact> 0.78746743E+04</totfact>
</mgrwt>
</event>
<event>
 7    0  0.4709932E-002  0.4460343E+03  0.7546771E-02  0.1028911E+00
         21   -1    0    0  502  501  0.00000000000E+00  0.00000000000E+00  0.14492745044E+04  0.14492745044E+04  0.00000000000E+00 0.  1.
         21   -1    0    0  501  502 -0.00000000000E+00 -0.00000000000E+00 -0.34318301940E+02  0.34318301940E+02  0.00000000000E+00 0.  1.
      99926    2    1    2    0    0 -0.17763568394E-14  0.00000000000E+00  0.14149562024E+04  0.14835928063E+04  0.44603425893E+03 0.  0.
      99925    2    3    3    0    0 -0.11897288321E+02  0.65798548960E+02  0.11652068093E+04  0.11963764036E+04  0.26294219163E+03 0.  0.
         25    1    4    4    0    0  0.44415487735E+01  0.73046980035E+02  0.61423198221E+03  0.63109747640E+03  0.12509000000E+03 0.  0.
         25    1    3    3    0    0  0.11897288321E+02 -0.65798548960E+02  0.24974939309E+03  0.28721640267E+03  0.12509000000E+03 0.  0.
         25    1    4    4    0    0 -0.16338837094E+02 -0.72484310755E+01  0.55097482713E+03  0.56527892724E+03  0.12509000000E+03 0.  0.
<mgrwt>
<rscale>  2 0.44603426E+03</rscale>
<asrwt>0</asrwt>
<pdfrwt beam="1">  1       21 0.21312856E+00 0.44603426E+03</pdfrwt>
<pdfrwt beam="2">  1       21 0.50468101E-02 0.44603426E+03</pdfrwt>
<totfact> 0.25944534E+04</totfact>
</mgrwt>
</event>
<event>
 7    0  0.4709932E-002  0.4571739E+03  0.7546771E-02  0.1025604E+00
         21   -1    0    0  502  501  0.00000000000E+00  0.00000000000E+00  0.44232484217E+03  0.44232484217E+03  0.00000000000E+00 0. -1.
         21   -1    0    0  501  502 -0.00000000000E+00 -0.00000000000E+00 -0.11813034579E+03  0.11813034579E+03  0.00000000000E+00 0. -1.
      99926    2    1    2    0    0 -0.14210854715E-13  0.17763568394E-14  0.32419449638E+03  0.56045518796E+03  0.45717386871E+03 0.  0.
      99925    2    3    3    0    0  0.78402337102E+02 -0.65697847910E+01  0.10035824111E+03  0.29223836185E+03  0.26294751386E+03 0.  0.
         25    1    4    4    0    0  0.28528957735E+02 -0.15723983926E+02  0.88680949290E+02  0.15675765999E+03  0.12509000000E+03 0.  0.
         25    1    3    3    0    0 -0.78402337102E+02  0.65697847910E+01  0.22383625527E+03  0.26821682611E+03  0.12509000000E+03 0.  0.
         25    1    4    4    0    0  0.49873379367E+02  0.91541991355E+01  0.11677291820E+02  0.13548070186E+03  0.12509000000E+03 0.  0.
<mgrwt>
<rscale>  2 0.45717387E+03</rscale>
<asrwt>0</asrwt>
<pdfrwt beam="1">  1       21 0.65047770E-01 0.45717387E+03</pdfrwt>
<pdfrwt beam="2">  1       21 0.17372110E-01 0.45717387E+03</pdfrwt>
<totfact> 0.60140072E+04</totfact>
</mgrwt>
</event>
<event>
 7    0  0.4709932E-002  0.4461009E+03  0.7546771E-02  0.1028891E+00
         21   -1    0    0  502  501  0.00000000000E+00  0.00000000000E+00  0.12008090060E+03  0.12008090060E+03  0.00000000000E+00 0.  1.
         21   -1    0    0  501  502 -0.00000000000E+00 -0.00000000000E+00 -0.41431649485E+03  0.41431649485E+03  0.00000000000E+00 0.  1.
      99926    2    1    2    0    0  0.00000000000E+00 -0.71054273576E-14 -0.29423559426E+03  0.53439739545E+03  0.44610087574E+03 0.  0.
      99925    2    3    3    0    0 -0.72353419009E+02  0.53217823288E+02 -0.12245434899E+03  0.30369529688E+03  0.26299926198E+03 0.  0.
         25    1    4    4    0    0 -0.33930896591E+02 -0.12993932742E+02 -0.70462254333E+02  0.14809654087E+03  0.12509000000E+03 0.  0.
         25    1    3    3    0    0  0.72353419009E+02 -0.53217823288E+02 -0.17178124527E+03  0.23070209857E+03  0.12509000000E+03 0.  0.
         25    1    4    4    0    0 -0.38422522418E+02  0.66211756031E+02 -0.51992094654E+02  0.15559875601E+03  0.12509000000E+03 0.  0.
<mgrwt>
<rscale>  2 0.44610088E+03</rscale>
<asrwt>0</asrwt>
<pdfrwt beam="1">  1       21 0.17658956E-01 0.44610088E+03</pdfrwt>
<pdfrwt beam="2">  1       21 0.60928897E-01 0.44610088E+03</pdfrwt>
<totfact> 0.67542662E+04</totfact>
</mgrwt>
</event>
<event>
 7    0  0.4709932E-002  0.4540665E+03  0.7546771E-02  0.1026516E+00
         21   -1    0    0  502  501  0.00000000000E+00  0.00000000000E+00  0.79448008278E+02  0.79448008278E+02  0.00000000000E+00 0.  1.
         21   -1    0    0  501  502 -0.00000000000E+00 -0.00000000000E+00 -0.64877779132E+03  0.64877779132E+03  0.00000000000E+00 0.  1.
      99926    2    1    2    0    0  0.00000000000E+00 -0.71054273576E-14 -0.56932978304E+03  0.72822579959E+03  0.45406652964E+03 0.  0.
      99925    2    3    3    0    0 -0.38436495046E+02  0.49246860029E+02 -0.50825556290E+03  0.57564734161E+03  0.26295156838E+03 0.  0.
         25    1    4    4    0    0 -0.38895390968E+02  0.29051831778E+02 -0.33604710012E+03  0.36184530115E+03  0.12509000000E+03 0.  0.
         25    1    3    3    0    0  0.38436495046E+02 -0.49246860029E+02 -0.61074220138E+02  0.15257845798E+03  0.12509000000E+03 0.  0.
         25    1    4    4    0    0  0.45889592220E+00  0.20195028251E+02 -0.17220846278E+03  0.21380204046E+03  0.12509000000E+03 0.  0.
<mgrwt>
<rscale>  2 0.45406653E+03</rscale>
<asrwt>0</asrwt>
<pdfrwt beam="1">  1       21 0.11683531E-01 0.45406653E+03</pdfrwt>
<pdfrwt beam="2">  1       21 0.95408498E-01 0.45406653E+03</pdfrwt>
<totfact> 0.51776195E+04</totfact>
</mgrwt>
</event>
<event>
 7    0  0.4709932E-002  0.4518585E+03  0.7546771E-02  0.1027169E+00
         21   -1    0    0  502  501  0.00000000000E+00  0.00000000000E+00  0.50202613792E+03  0.50202613792E+03  0.00000000000E+00 0.  1.
         21   -1    0    0  501  502 -0.00000000000E+00 -0.00000000000E+00 -0.10167602450E+03  0.10167602450E+03  0.00000000000E+00 0.  1.
      99926    2    1    2    0    0  0.00000000000E+00  0.00000000000E+00  0.40035011342E+03  0.60370216242E+03  0.45185848183E+03 0.  0.
      99925    2    3    3    0    0 -0.10442915828E+03  0.47998566761E+01  0.20599640264E+03  0.35003040460E+03  0.26297961617E+03 0.  0.
         25    1    4    4    0    0 -0.93690093637E+02 -0.64011989880E+01  0.10338455605E+03  0.18749582268E+03  0.12509000000E+03 0.  0.
         25    1    3    3    0    0  0.10442915828E+03 -0.47998566761E+01  0.19435371078E+03  0.25367175783E+03  0.12509000000E+03 0.  0.
         25    1    4    4    0    0 -0.10739064646E+02  0.11201055664E+02  0.10261184659E+03  0.16253458191E+03  0.12509000000E+03 0.  0.
<mgrwt>
<rscale>  2 0.45185848E+03</rscale>
<asrwt>0</asrwt>
<pdfrwt beam="1">  1       21 0.73827372E-01 0.45185848E+03</pdfrwt>
<pdfrwt beam="2">  1       21 0.14952357E-01 0.45185848E+03</pdfrwt>
<totfact> 0.59924433E+04</totfact>
</mgrwt>
</event>
<event>
 7    0  0.4709932E-002  0.4517469E+03  0.7546771E-02  0.1027202E+00
         21   -1    0    0  502  501  0.00000000000E+00  0.00000000000E+00  0.19272913440E+03  0.19272913440E+03  0.00000000000E+00 0. -1.
         21   -1    0    0  501  502 -0.00000000000E+00 -0.00000000000E+00 -0.26471775502E+03  0.26471775502E+03  0.00000000000E+00 0. -1.
      99926    2    1    2    0    0 -0.71054273576E-14 -0.14210854715E-13 -0.71988620618E+02  0.45744688941E+03  0.45174693705E+03 0.  0.
      99925    2    3    3    0    0 -0.43480143575E+02  0.88675536492E+02 -0.94480125463E+02  0.29648959835E+03  0.26310779951E+03 0.  0.
         25    1    4    4    0    0  0.40305301511E+01  0.64918909810E+02 -0.22729992834E+02  0.14281061130E+03  0.12509000000E+03 0.  0.
         25    1    3    3    0    0  0.43480143575E+02 -0.88675536492E+02  0.22491504844E+02  0.16095729107E+03  0.12509000000E+03 0.  0.
         25    1    4    4    0    0 -0.47510673726E+02  0.23756626682E+02 -0.71750132628E+02  0.15367898705E+03  0.12509000000E+03 0.  0.
<mgrwt>
<rscale>  2 0.45174694E+03</rscale>
<asrwt>0</asrwt>
<pdfrwt beam="1">  1       21 0.28342520E-01 0.45174694E+03</pdfrwt>
<pdfrwt beam="2">  1       21 0.38929081E-01 0.45174694E+03</pdfrwt>
<totfact> 0.70169730E+04</totfact>
</mgrwt>
</event>
<event>
 7    0  0.4709932E-002  0.4560815E+03  0.7546771E-02  0.1025924E+00
         21   -1    0    0  502  501  0.00000000000E+00  0.00000000000E+00  0.10959334752E+03  0.10959334752E+03  0.00000000000E+00 0.  1.
         21   -1    0    0  501  502 -0.00000000000E+00 -0.00000000000E+00 -0.47450486561E+03  0.47450486561E+03  0.00000000000E+00 0.  1.
      99926    2    1    2    0    0  0.00000000000E+00 -0.14210854715E-13 -0.36491151809E+03  0.58409821313E+03  0.45608146920E+03 0.  0.
      99925    2    3    3    0    0  0.52398641176E+02 -0.10110720409E+03 -0.21793009444E+03  0.36000151233E+03  0.26294348917E+03 0.  0.
         25    1    4    4    0    0 -0.34186262553E+01 -0.77698286668E+02 -0.10412743665E+03  0.18038498253E+03  0.12509000000E+03 0.  0.
         25    1    3    3    0    0 -0.52398641176E+02  0.10110720409E+03 -0.14698142365E+03  0.22409670081E+03  0.12509000000E+03 0.  0.
         25    1    4    4    0    0  0.55817267431E+02 -0.23408917417E+02 -0.11380265779E+03  0.17961652980E+03  0.12509000000E+03 0.  0.
<mgrwt>
<rscale>  2 0.45608147E+03</rscale>
<asrwt>0</asrwt>
<pdfrwt beam="1">  1       21 0.16116669E-01 0.45608147E+03</pdfrwt>
<pdfrwt beam="2">  1       21 0.69780127E-01 0.45608147E+03</pdfrwt>
<totfact> 0.59160517E+04</totfact>
</mgrwt>
</event>
<event>
 7    0  0.4709932E-002  0.4545815E+03  0.7546771E-02  0.1026365E+00
         21   -1    0    0  502  501  0.00000000000E+00  0.00000000000E+00  0.51801726862E+02  0.51801726862E+02  0.00000000000E+00 0.  1.
         21   -1    0    0  501  502 -0.00000000000E+00 -0.00000000000E+00 -0.99728492665E+03  0.99728492665E+03  0.00000000000E+00 0.  1.
      99926    2    1    2    0    0  0.00000000000E+00  0.00000000000E+00 -0.94548319979E+03  0.10490866535E+04  0.45458148389E+03 0.  0.
      99925    2    3    3    0    0  0.18805633179E+02 -0.11118591706E+03 -0.60188706841E+03  0.66643567731E+03  0.26296864619E+03 0.  0.
         25    1    4    4    0    0  0.71218490264E+01 -0.35132541375E+02 -0.20049429822E+03  0.23901984837E+03  0.12509000000E+03 0.  0.
         25    1    3    3    0    0 -0.18805633179E+02  0.11118591706E+03 -0.34359613138E+03  0.38265097621E+03  0.12509000000E+03 0.  0.
         25    1    4    4    0    0  0.11683784152E+02 -0.76053375684E+02 -0.40139277019E+03  0.42741582894E+03  0.12509000000E+03 0.  0.
<mgrwt>
<rscale>  2 0.45458148E+03</rscale>
<asrwt>0</asrwt>
<pdfrwt beam="1">  1       21 0.76179010E-02 0.45458148E+03</pdfrwt>
<pdfrwt beam="2">  1       21 0.14665955E+00 0.45458148E+03</pdfrwt>
<totfact> 0.37433048E+04</totfact>
</mgrwt>
</event>
<event>
 7    0  0.4709932E-002  0.4550765E+03  0.7546771E-02  0.1026219E+00
         21   -1    0    0  502  501  0.00000000000E+00  0.00000000000E+00  0.39368754539E+03  0.39368754539E+03  0.00000000000E+00 0. -1.
         21   -1    0    0  501  502 -0.00000000000E+00 -0.00000000000E+00 -0.13150952429E+03  0.13150952429E+03  0.00000000000E+00 0. -1.
      99926    2    1    2    0    0  0.00000000000E+00  0.00000000000E+00  0.26217802110E+03  0.52519706968E+03  0.45507652901E+03 0.  0.
      99925    2    3    3    0    0 -0.16576287319E+02 -0.75097493429E+02  0.26088160539E+03  0.37835158758E+03  0.26301388741E+03 0.  0.
         25    1    4    4    0    0  0.79507959289E+01 -0.75918440380E+02  0.13782044010E+03  0.20116860231E+03  0.12509000000E+03 0.  0.
         25    1    3    3    0    0  0.16576287319E+02  0.75097493429E+02  0.12964157061E+01  0.14684548210E+03  0.12509000000E+03 0.  0.
         25    1    4    4    0    0 -0.24527083248E+02  0.82094695096E+00  0.12306116528E+03  0.17718298527E+03  0.12509000000E+03 0.  0.
<mgrwt>
<rscale>  2 0.45507653E+03</rscale>
<asrwt>0</asrwt>
<pdfrwt beam="1">  1       21 0.57895227E-01 0.45507653E+03</pdfrwt>
<pdfrwt beam="2">  1       21 0.19339636E-01 0.45507653E+03</pdfrwt>
<totfact> 0.63494292E+04</totfact>
</mgrwt>
</event>
<event>
 7    0  0.4709932E-002  0.4540849E+03  0.7546771E-02  0.1026511E+00
         21   -1    0    0  502  501  0.00000000000E+00  0.00000000000E+00  0.25210906582E+04  0.25210906582E+04  0.00000000000E+00 0. -1.
         21   -1    0    0  501  502 -0.00000000000E+00 -0.00000000000E+00 -0.20446817401E+02  0.20446817401E+02  0.00000000000E+00 0. -1.
      99926    2    1    2    0    0  0.00000000000E+00  0.00000000000E+00  0.25006438408E+04  0.25415374756E+04  0.45408492748E+03 0.  0.
      99925    2    3    3    0    0  0.10529797347E+03  0.36912528329E+02  0.15026615662E+04  0.15295758526E+04  0.26298347530E+03 0.  0.
         25    1    4    4    0    0  0.77389844503E+02  0.93761854541E+01  0.96338465320E+03  0.97459458186E+03  0.12509000000E+03 0.  0.
         25    1    4    4    0    0  0.27908128968E+02  0.27536342875E+02  0.53927691303E+03  0.55498127073E+03  0.12509000000E+03 0.  0.
         25    1    3    3    0    0 -0.10529797347E+03 -0.36912528329E+02  0.99798227461E+03  0.10119616230E+04  0.12509000000E+03 0.  0.
<mgrwt>
<rscale>  2 0.45408493E+03</rscale>
<asrwt>0</asrwt>
<pdfrwt beam="1">  1       21 0.37074841E+00 0.45408493E+03</pdfrwt>
<pdfrwt beam="2">  1       21 0.30068866E-02 0.45408493E+03</pdfrwt>
<totfact> 0.67641008E+03</totfact>
</mgrwt>
</event>
<event>
 7    0  0.4709932E-002  0.4571062E+03  0.7546771E-02  0.1025624E+00
         21   -1    0    0  502  501  0.00000000000E+00  0.00000000000E+00  0.67603330520E+03  0.67603330520E+03  0.00000000000E+00 0. -1.
         21   -1    0    0  501  502 -0.00000000000E+00 -0.00000000000E+00 -0.77269153383E+02  0.77269153383E+02  0.00000000000E+00 0. -1.
      99926    2    1    2    0    0  0.00000000000E+00  0.14210854715E-13  0.59876415182E+03  0.75330245858E+03  0.45710620714E+03 0.  0.
      99925    2    3    3    0    0 -0.65218939382E+02 -0.94847867910E+02  0.37170262934E+03  0.46965818984E+03  0.26299494772E+03 0.  0.
         25    1    3    3    0    0  0.65218939382E+02  0.94847867910E+02  0.22706152248E+03  0.28364426874E+03  0.12509000000E+03 0.  0.
         25    1    4    4    0    0 -0.67040352149E+02 -0.71242503265E+02  0.18698540889E+03  0.24531806767E+03  0.12509000000E+03 0.  0.
         25    1    4    4    0    0  0.18214127674E+01 -0.23605364645E+02  0.18471722045E+03  0.22434012217E+03  0.12509000000E+03 0.  0.
<mgrwt>
<rscale>  2 0.45710621E+03</rscale>
<asrwt>0</asrwt>
<pdfrwt beam="1">  1       21 0.99416660E-01 0.45710621E+03</pdfrwt>
<pdfrwt beam="2">  1       21 0.11363111E-01 0.45710621E+03</pdfrwt>
<totfact> 0.49281898E+04</totfact>
</mgrwt>
</event>
<event>
 7    0  0.4709932E-002  0.4818123E+03  0.7546771E-02  0.1018638E+00
         21   -1    0    0  502  501  0.00000000000E+00  0.00000000000E+00  0.96324119054E+03  0.96324119054E+03  0.00000000000E+00 0.  1.
         21   -1    0    0  501  502 -0.00000000000E+00 -0.00000000000E+00 -0.60250497684E+02  0.60250497684E+02  0.00000000000E+00 0.  1.
      99926    2    1    2    0    0  0.00000000000E+00  0.00000000000E+00  0.90299069285E+03  0.10234916882E+04  0.48181225024E+03 0.  0.
      99925    2    3    3    0    0  0.36865922319E+02  0.70945593161E+02  0.79133007606E+03  0.83772846565E+03  0.26304623067E+03 0.  0.
         25    1    4    4    0    0  0.35174236982E+02  0.42037503842E+02  0.51866739229E+03  0.53634667016E+03  0.12509000000E+03 0.  0.
         25    1    4    4    0    0  0.16916853378E+01  0.28908089319E+02  0.27266268377E+03  0.30138179548E+03  0.12509000000E+03 0.  0.
         25    1    3    3    0    0 -0.36865922319E+02 -0.70945593161E+02  0.11166061679E+03  0.18576322257E+03  0.12509000000E+03 0.  0.
<mgrwt>
<rscale>  2 0.48181225E+03</rscale>
<asrwt>0</asrwt>
<pdfrwt beam="1">  1       21 0.14165311E+00 0.48181225E+03</pdfrwt>
<pdfrwt beam="2">  1       21 0.88603679E-02 0.48181225E+03</pdfrwt>
<totfact> 0.31202956E+04</totfact>
</mgrwt>
</event>
<event>
 7    0  0.4709932E-002  0.4486953E+03  0.7546771E-02  0.1028112E+00
         21   -1    0    0  502  501  0.00000000000E+00  0.00000000000E+00  0.58085055807E+03  0.58085055807E+03  0.00000000000E+00 0.  1.
         21   -1    0    0  501  502 -0.00000000000E+00 -0.00000000000E+00 -0.86652005328E+02  0.86652005328E+02  0.00000000000E+00 0.  1.
      99926    2    1    2    0    0  0.00000000000E+00  0.00000000000E+00  0.49419855274E+03  0.66750256340E+03  0.44869528927E+03 0.  0.
      99925    2    3    3    0    0 -0.51413434637E+02  0.10837437713E+02  0.17387015950E+03  0.31962531647E+03  0.26299946624E+03 0.  0.
         25    1    3    3    0    0  0.51413434637E+02 -0.10837437713E+02  0.32032839324E+03  0.34787724693E+03  0.12509000000E+03 0.  0.
         25    1    4    4    0    0 -0.15886733964E+02 -0.23100023255E+01  0.13156591170E+03  0.18224933923E+03  0.12509000000E+03 0.  0.
         25    1    4    4    0    0 -0.35526700674E+02  0.13147440038E+02  0.42304247799E+02  0.13737597724E+03  0.12509000000E+03 0.  0.
<mgrwt>
<rscale>  2 0.44869529E+03</rscale>
<asrwt>0</asrwt>
<pdfrwt beam="1">  1       21 0.85419198E-01 0.44869529E+03</pdfrwt>
<pdfrwt beam="2">  1       21 0.12742942E-01 0.44869529E+03</pdfrwt>
<totfact> 0.57507504E+04</totfact>
</mgrwt>
</event>
<event>
 7    0  0.4709932E-002  0.4514220E+03  0.7546771E-02  0.1027299E+00
         21   -1    0    0  502  501  0.00000000000E+00  0.00000000000E+00  0.51710844846E+03  0.51710844846E+03  0.00000000000E+00 0.  1.
         21   -1    0    0  501  502 -0.00000000000E+00 -0.00000000000E+00 -0.98519864595E+02  0.98519864595E+02  0.00000000000E+00 0.  1.
      99926    2    1    2    0    0  0.00000000000E+00 -0.99920072216E-15  0.41858858386E+03  0.61562831305E+03  0.45142199469E+03 0.  0.
      99925    2    3    3    0    0  0.10832869249E+03  0.96343661803E+00  0.28763726501E+03  0.40460274627E+03  0.26312003390E+03 0.  0.
         25    1    3    3    0    0 -0.10832869249E+03 -0.96343661803E+00  0.13095131885E+03  0.21102556678E+03  0.12509000000E+03 0.  0.
         25    1    4    4    0    0  0.25407198419E+02 -0.27381846633E+02  0.11362683768E+03  0.17307182786E+03  0.12509000000E+03 0.  0.
         25    1    4    4    0    0  0.82921494070E+02  0.28345283251E+02  0.17401042733E+03  0.23153091841E+03  0.12509000000E+03 0.  0.
<mgrwt>
<rscale>  2 0.45142199E+03</rscale>
<asrwt>0</asrwt>
<pdfrwt beam="1">  1       21 0.76045359E-01 0.45142199E+03</pdfrwt>
<pdfrwt beam="2">  1       21 0.14488216E-01 0.45142199E+03</pdfrwt>
<totfact> 0.59386860E+04</totfact>
</mgrwt>
</event>
<event>
 7    0  0.4709932E-002  0.4669082E+03  0.7546771E-02  0.1022797E+00
         21   -1    0    0  502  501  0.00000000000E+00  0.00000000000E+00  0.21285929147E+03  0.21285929147E+03  0.00000000000E+00 0. -1.
         21   -1    0    0  501  502 -0.00000000000E+00 -0.00000000000E+00 -0.25604147425E+03  0.25604147425E+03  0.00000000000E+00 0. -1.
      99926    2    1    2    0    0  0.00000000000E+00  0.00000000000E+00 -0.43182182785E+02  0.46890076572E+03  0.46690815712E+03 0.  0.
      99925    2    3    3    0    0  0.12260804175E+03  0.17063762323E+02 -0.23701192476E+02  0.29183885291E+03  0.26321904500E+03 0.  0.
         25    1    4    4    0    0  0.71704655537E+02 -0.19867269670E+02 -0.39845229226E+02  0.15090200934E+03  0.12509000000E+03 0.  0.
         25    1    4    4    0    0  0.50903386216E+02  0.36931031993E+02  0.16144036751E+02  0.14093684357E+03  0.12509000000E+03 0.  0.
         25    1    3    3    0    0 -0.12260804175E+03 -0.17063762323E+02 -0.19480990309E+02  0.17706191282E+03  0.12509000000E+03 0.  0.
<mgrwt>
<rscale>  2 0.46690816E+03</rscale>
<asrwt>0</asrwt>
<pdfrwt beam="1">  1       21 0.31302837E-01 0.46690816E+03</pdfrwt>
<pdfrwt beam="2">  1       21 0.37653158E-01 0.46690816E+03</pdfrwt>
<totfact> 0.61486369E+04</totfact>
</mgrwt>
</event>
<event>
 7    0  0.4709932E-002  0.4535853E+03  0.7546771E-02  0.1026658E+00
         21   -1    0    0  502  501  0.00000000000E+00  0.00000000000E+00  0.24776389240E+03  0.24776389240E+03  0.00000000000E+00 0. -1.
         21   -1    0    0  501  502 -0.00000000000E+00 -0.00000000000E+00 -0.20759649902E+03  0.20759649902E+03  0.00000000000E+00 0. -1.
      99926    2    1    2    0    0 -0.14210854715E-13  0.00000000000E+00  0.40167393382E+02  0.45536039142E+03  0.45358534653E+03 0.  0.
      99925    2    3    3    0    0  0.10513783628E+03  0.38038187115E+02  0.28670855447E+02  0.28719218164E+03  0.26297616421E+03 0.  0.
         25    1    4    4    0    0  0.11493484690E+02  0.27153756634E+02  0.22198084609E+02  0.13042120131E+03  0.12509000000E+03 0.  0.
         25    1    4    4    0    0  0.93644351592E+02  0.10884430482E+02  0.64727708381E+01  0.15677098033E+03  0.12509000000E+03 0.  0.
         25    1    3    3    0    0 -0.10513783628E+03 -0.38038187115E+02  0.11496537935E+02  0.16816820978E+03  0.12509000000E+03 0.  0.
<mgrwt>
<rscale>  2 0.45358535E+03</rscale>
<asrwt>0</asrwt>
<pdfrwt beam="1">  1       21 0.36435867E-01 0.45358535E+03</pdfrwt>
<pdfrwt beam="2">  1       21 0.30528897E-01 0.45358535E+03</pdfrwt>
<totfact> 0.69298294E+04</totfact>
</mgrwt>
</event>
<event>
 7    0  0.4709932E-002  0.4564736E+03  0.7546771E-02  0.1025809E+00
         21   -1    0    0  502  501  0.00000000000E+00  0.00000000000E+00  0.24046836929E+02  0.24046836929E+02  0.00000000000E+00 0. -1.
         21   -1    0    0  501  502 -0.00000000000E+00 -0.00000000000E+00 -0.21662741857E+04  0.21662741857E+04  0.00000000000E+00 0. -1.
      99926    2    1    2    0    0  0.22204460493E-15  0.00000000000E+00 -0.21422273487E+04  0.21903210226E+04  0.45647362284E+03 0.  0.
      99925    2    3    3    0    0 -0.17229744743E+01 -0.11427542456E+03 -0.13903013959E+04  0.14195409061E+04  0.26286226701E+03 0.  0.
         25    1    4    4    0    0  0.80288746917E+01 -0.70669874112E+02 -0.53621861376E+03  0.55519060131E+03  0.12509000000E+03 0.  0.
         25    1    3    3    0    0  0.17229744743E+01  0.11427542456E+03 -0.75192595288E+03  0.77078011652E+03  0.12509000000E+03 0.  0.
         25    1    4    4    0    0 -0.97518491659E+01 -0.43605550444E+02 -0.85408278210E+03  0.86435030478E+03  0.12509000000E+03 0.  0.
<mgrwt>
<rscale>  2 0.45647362E+03</rscale>
<asrwt>0</asrwt>
<pdfrwt beam="1">  1       21 0.35362985E-02 0.45647362E+03</pdfrwt>
<pdfrwt beam="2">  1       21 0.31856983E+00 0.45647362E+03</pdfrwt>
<totfact> 0.10720862E+04</totfact>
</mgrwt>
</event>
<event>
 7    0  0.4709932E-002  0.4538013E+03  0.7546771E-02  0.1026594E+00
         21   -1    0    0  502  501  0.00000000000E+00  0.00000000000E+00  0.10662178049E+03  0.10662178049E+03  0.00000000000E+00 0.  1.
         21   -1    0    0  501  502 -0.00000000000E+00 -0.00000000000E+00 -0.48286472734E+03  0.48286472734E+03  0.00000000000E+00 0.  1.
      99926    2    1    2    0    0  0.00000000000E+00  0.17763568394E-14 -0.37624294685E+03  0.58948650784E+03  0.45380126473E+03 0.  0.
      99925    2    3    3    0    0 -0.78372924447E+02 -0.10368604443E+02 -0.13364354395E+03  0.30531789304E+03  0.26288513790E+03 0.  0.
         25    1    3    3    0    0  0.78372924447E+02  0.10368604443E+02 -0.24259940290E+03  0.28416861479E+03  0.12509000000E+03 0.  0.
         25    1    4    4    0    0 -0.76866049347E+02 -0.23653349717E+02 -0.72398641014E+02  0.16539934043E+03  0.12509000000E+03 0.  0.
         25    1    4    4    0    0 -0.15068750993E+01  0.13284745274E+02 -0.61244902934E+02  0.13991855261E+03  0.12509000000E+03 0.  0.
<mgrwt>
<rscale>  2 0.45380126E+03</rscale>
<asrwt>0</asrwt>
<pdfrwt beam="1">  1       21 0.15679674E-01 0.45380126E+03</pdfrwt>
<pdfrwt beam="2">  1       21 0.71009519E-01 0.45380126E+03</pdfrwt>
<totfact> 0.59895566E+04</totfact>
</mgrwt>
</event>
<event>
 7    0  0.4709932E-002  0.4593164E+03  0.7546771E-02  0.1024980E+00
         21   -1    0    0  502  501  0.00000000000E+00  0.00000000000E+00  0.61354761312E+03  0.61354761312E+03  0.00000000000E+00 0.  1.
         21   -1    0    0  501  502 -0.00000000000E+00 -0.00000000000E+00 -0.85963804573E+02  0.85963804573E+02  0.00000000000E+00 0.  1.
      99926    2    1    2    0    0  0.71054273576E-14  0.00000000000E+00  0.52758380855E+03  0.69951141770E+03  0.45931639252E+03 0.  0.
      99925    2    3    3    0    0  0.57601488026E+02  0.91887058722E+02  0.39824941261E+03  0.48942558510E+03  0.26300883203E+03 0.  0.
         25    1    4    4    0    0  0.29143382457E+01  0.13815705012E+02  0.15370252427E+03  0.19867395687E+03  0.12509000000E+03 0.  0.
         25    1    4    4    0    0  0.54687149780E+02  0.78071353711E+02  0.24454688834E+03  0.29075162823E+03  0.12509000000E+03 0.  0.
         25    1    3    3    0    0 -0.57601488026E+02 -0.91887058722E+02  0.12933439594E+03  0.21008583259E+03  0.12509000000E+03 0.  0.
<mgrwt>
<rscale>  2 0.45931639E+03</rscale>
<asrwt>0</asrwt>
<pdfrwt beam="1">  1       21 0.90227588E-01 0.45931639E+03</pdfrwt>
<pdfrwt beam="2">  1       21 0.12641736E-01 0.45931639E+03</pdfrwt>
<totfact> 0.51168999E+04</totfact>
</mgrwt>
</event>
<event>
 7    0  0.4709932E-002  0.4510035E+03  0.7546771E-02  0.1027423E+00
         21   -1    0    0  502  501  0.00000000000E+00  0.00000000000E+00  0.15044701677E+03  0.15044701677E+03  0.00000000000E+00 0. -1.
         21   -1    0    0  501  502 -0.00000000000E+00 -0.00000000000E+00 -0.33799964617E+03  0.33799964617E+03  0.00000000000E+00 0. -1.
      99926    2    1    2    0    0  0.71054273576E-14  0.00000000000E+00 -0.18755262941E+03  0.48844666294E+03  0.45100349637E+03 0.  0.
      99925    2    3    3    0    0  0.53915594868E+02  0.55789943273E+02 -0.20165219432E+03  0.34057606082E+03  0.26326609464E+03 0.  0.
         25    1    3    3    0    0 -0.53915594868E+02 -0.55789943273E+02  0.14099564915E+02  0.14787060212E+03  0.12509000000E+03 0.  0.
         25    1    4    4    0    0  0.67999188747E+02  0.27108079417E+02 -0.11601563728E+03  0.18564986893E+03  0.12509000000E+03 0.  0.
         25    1    4    4    0    0 -0.14083593879E+02  0.28681863856E+02 -0.85636557038E+02  0.15492619189E+03  0.12509000000E+03 0.  0.
<mgrwt>
<rscale>  2 0.45100350E+03</rscale>
<asrwt>0</asrwt>
<pdfrwt beam="1">  1       21 0.22124561E-01 0.45100350E+03</pdfrwt>
<pdfrwt beam="2">  1       21 0.49705831E-01 0.45100350E+03</pdfrwt>
<totfact> 0.68229345E+04</totfact>
</mgrwt>
</event>
<event>
 7    0  0.4709932E-002  0.4513393E+03  0.7546771E-02  0.1027323E+00
         21   -1    0    0  502  501  0.00000000000E+00  0.00000000000E+00  0.10465061283E+04  0.10465061283E+04  0.00000000000E+00 0.  1.
         21   -1    0    0  501  502 -0.00000000000E+00 -0.00000000000E+00 -0.48663628399E+02  0.48663628399E+02  0.00000000000E+00 0.  1.
      99926    2    1    2    0    0  0.14210854715E-13  0.00000000000E+00  0.99784249992E+03  0.10951697567E+04  0.45133927525E+03 0.  0.
      99925    2    3    3    0    0  0.10225562480E+03  0.18062767455E+02  0.71693807277E+03  0.77061270216E+03  0.26279509161E+03 0.  0.
         25    1    4    4    0    0  0.41868088300E+02  0.26482587513E+02  0.25705322449E+03  0.29013468007E+03  0.12509000000E+03 0.  0.
         25    1    4    4    0    0  0.60387536496E+02 -0.84198200581E+01  0.45988484829E+03  0.48047802209E+03  0.12509000000E+03 0.  0.
         25    1    3    3    0    0 -0.10225562480E+03 -0.18062767455E+02  0.28090442715E+03  0.32455705455E+03  0.12509000000E+03 0.  0.
<mgrwt>
<rscale>  2 0.45133928E+03</rscale>
<asrwt>0</asrwt>
<pdfrwt beam="1">  1       21 0.15389795E+00 0.45133928E+03</pdfrwt>
<pdfrwt beam="2">  1       21 0.71564166E-02 0.45133928E+03</pdfrwt>
<totfact> 0.36699137E+04</totfact>
</mgrwt>
</event>
<event>
 7    0  0.4709932E-002  0.4365994E+03  0.7546771E-02  0.1031795E+00
         21   -1    0    0  502  501  0.00000000000E+00  0.00000000000E+00  0.11395588476E+04  0.11395588476E+04  0.00000000000E+00 0. -1.
         21   -1    0    0  501  502 -0.00000000000E+00 -0.00000000000E+00 -0.41818609452E+02  0.41818609452E+02  0.00000000000E+00 0. -1.
      99926    2    1    2    0    0 -0.13322676296E-14  0.00000000000E+00  0.10977402381E+04  0.11813774570E+04  0.43659943378E+03 0.  0.
      99925    2    3    3    0    0  0.28462187869E+01 -0.83861360688E+02  0.82298307671E+03  0.86804084150E+03  0.26296944536E+03 0.  0.
         25    1    3    3    0    0 -0.28462187869E+01  0.83861360688E+02  0.27475716139E+03  0.31333661550E+03  0.12509000000E+03 0.  0.
         25    1    4    4    0    0 -0.19430968875E+02 -0.23875080265E+02  0.29951069958E+03  0.32603949036E+03  0.12509000000E+03 0.  0.
         25    1    4    4    0    0  0.22277187662E+02 -0.59986280423E+02  0.52347237713E+03  0.54200135114E+03  0.12509000000E+03 0.  0.
<mgrwt>
<rscale>  2 0.43659943E+03</rscale>
<asrwt>0</asrwt>
<pdfrwt beam="1">  1       21 0.16758216E+00 0.43659943E+03</pdfrwt>
<pdfrwt beam="2">  1       21 0.61497962E-02 0.43659943E+03</pdfrwt>
<totfact> 0.37900811E+04</totfact>
</mgrwt>
</event>
<event>
 7    0  0.4709932E-002  0.4590799E+03  0.7546771E-02  0.1025048E+00
         21   -1    0    0  502  501  0.00000000000E+00  0.00000000000E+00  0.87390246566E+02  0.87390246566E+02  0.00000000000E+00 0. -1.
         21   -1    0    0  501  502 -0.00000000000E+00 -0.00000000000E+00 -0.60291147040E+03  0.60291147040E+03  0.00000000000E+00 0. -1.
      99926    2    1    2    0    0  0.00000000000E+00  0.00000000000E+00 -0.51552122383E+03  0.69030171696E+03  0.45907987129E+03 0.  0.
      99925    2    3    3    0    0 -0.80771984471E+02 -0.74570194318E+02 -0.38325686047E+03  0.47763719884E+03  0.26299552326E+03 0.  0.
         25    1    3    3    0    0  0.80771984471E+02  0.74570194318E+02 -0.13226436336E+03  0.21266451813E+03  0.12509000000E+03 0.  0.
         25    1    4    4    0    0 -0.41064634646E+02 -0.62892199839E+02 -0.25481396607E+03  0.29363139891E+03  0.12509000000E+03 0.  0.
         25    1    4    4    0    0 -0.39707349824E+02 -0.11677994479E+02 -0.12844289440E+03  0.18400579993E+03  0.12509000000E+03 0.  0.
<mgrwt>
<rscale>  2 0.45907987E+03</rscale>
<asrwt>0</asrwt>
<pdfrwt beam="1">  1       21 0.12851507E-01 0.45907987E+03</pdfrwt>
<pdfrwt beam="2">  1       21 0.88663447E-01 0.45907987E+03</pdfrwt>
<totfact> 0.51750579E+04</totfact>
</mgrwt>
</event>
<event>
 7    0  0.4709932E-002  0.4784419E+03  0.7546771E-02  0.1019564E+00
         21   -1    0    0  502  501  0.00000000000E+00  0.00000000000E+00  0.36185802260E+03  0.36185802260E+03  0.00000000000E+00 0.  1.
         21   -1    0    0  501  502 -0.00000000000E+00 -0.00000000000E+00 -0.15814675099E+03  0.15814675099E+03  0.00000000000E+00 0.  1.
      99926    2    1    2    0    0  0.88817841970E-15  0.17763568394E-14  0.20371127162E+03  0.52000477359E+03  0.47844193208E+03 0.  0.
      99925    2    3    3    0    0  0.21367657477E+01 -0.75780208128E+01 -0.19689135880E+02  0.26384614629E+03  0.26299265137E+03 0.  0.
         25    1    4    4    0    0 -0.63827667868E+01  0.18574466199E+02 -0.42878445853E+02  0.13368552549E+03  0.12509000000E+03 0.  0.
         25    1    3    3    0    0 -0.21367657477E+01  0.75780208128E+01  0.22340040750E+03  0.25615862729E+03  0.12509000000E+03 0.  0.
         25    1    4    4    0    0  0.85195325345E+01 -0.26152487011E+02  0.23189309973E+02  0.13016062081E+03  0.12509000000E+03 0.  0.
<mgrwt>
<rscale>  2 0.47844193E+03</rscale>
<asrwt>0</asrwt>
<pdfrwt beam="1">  1       21 0.53214415E-01 0.47844193E+03</pdfrwt>
<pdfrwt beam="2">  1       21 0.23256875E-01 0.47844193E+03</pdfrwt>
<totfact> 0.53265192E+04</totfact>
</mgrwt>
</event>
<event>
 7    0  0.4709932E-002  0.4551696E+03  0.7546771E-02  0.1026192E+00
         21   -1    0    0  502  501  0.00000000000E+00  0.00000000000E+00  0.13583289678E+03  0.13583289678E+03  0.00000000000E+00 0.  1.
         21   -1    0    0  501  502 -0.00000000000E+00 -0.00000000000E+00 -0.38131295919E+03  0.38131295919E+03  0.00000000000E+00 0.  1.
      99926    2    1    2    0    0  0.00000000000E+00  0.00000000000E+00 -0.24548006241E+03  0.51714585597E+03  0.45516961158E+03 0.  0.
      99925    2    3    3    0    0  0.11036593403E+03  0.18319361937E+02 -0.13376013994E+03  0.31553958724E+03  0.26297759916E+03 0.  0.
         25    1    4    4    0    0  0.85547484793E+02  0.20161269165E+02 -0.10300238448E+03  0.18434166170E+03  0.12509000000E+03 0.  0.
         25    1    3    3    0    0 -0.11036593403E+03 -0.18319361937E+02 -0.11171992247E+03  0.20160626873E+03  0.12509000000E+03 0.  0.
         25    1    4    4    0    0  0.24818449238E+02 -0.18419072286E+01 -0.30757755457E+02  0.13119792554E+03  0.12509000000E+03 0.  0.
<mgrwt>
<rscale>  2 0.45516961E+03</rscale>
<asrwt>0</asrwt>
<pdfrwt beam="1">  1       21 0.19975427E-01 0.45516961E+03</pdfrwt>
<pdfrwt beam="2">  1       21 0.56075434E-01 0.45516961E+03</pdfrwt>
<totfact> 0.63995978E+04</totfact>
</mgrwt>
</event>
<event>
 7    0  0.4709932E-002  0.4509248E+03  0.7546771E-02  0.1027447E+00
         21   -1    0    0  502  501  0.00000000000E+00  0.00000000000E+00  0.48829920660E+03  0.48829920660E+03  0.00000000000E+00 0. -1.
         21   -1    0    0  501  502 -0.00000000000E+00 -0.00000000000E+00 -0.10410274064E+03  0.10410274064E+03  0.00000000000E+00 0. -1.
      99926    2    1    2    0    0  0.00000000000E+00 -0.14210854715E-13  0.38419646596E+03  0.59240194723E+03  0.45092476382E+03 0.  0.
      99925    2    3    3    0    0  0.38271074688E+02  0.10187255165E+03  0.25618137637E+03  0.38293103470E+03  0.26299161165E+03 0.  0.
         25    1    3    3    0    0 -0.38271074688E+02 -0.10187255165E+03  0.12801508959E+03  0.20947091254E+03  0.12509000000E+03 0.  0.
         25    1    4    4    0    0  0.19353469176E+02  0.94156236142E+02  0.14739630028E+03  0.21590074342E+03  0.12509000000E+03 0.  0.
         25    1    4    4    0    0  0.18917605511E+02  0.77163155060E+01  0.10878507609E+03  0.16703029127E+03  0.12509000000E+03 0.  0.
<mgrwt>
<rscale>  2 0.45092476E+03</rscale>
<asrwt>0</asrwt>
<pdfrwt beam="1">  1       21 0.71808706E-01 0.45092476E+03</pdfrwt>
<pdfrwt beam="2">  1       21 0.15309227E-01 0.45092476E+03</pdfrwt>
<totfact> 0.61092290E+04</totfact>
</mgrwt>
</event>
<event>
 7    0  0.4709932E-002  0.4582475E+03  0.7546771E-02  0.1025291E+00
         21   -1    0    0  502  501  0.00000000000E+00  0.00000000000E+00  0.19323116503E+03  0.19323116503E+03  0.00000000000E+00 0.  1.
         21   -1    0    0  501  502 -0.00000000000E+00 -0.00000000000E+00 -0.27168336362E+03  0.27168336362E+03  0.00000000000E+00 0.  1.
      99926    2    1    2    0    0  0.00000000000E+00  0.71054273576E-14 -0.78452198586E+02  0.46491452865E+03  0.45824750025E+03 0.  0.
      99925    2    3    3    0    0 -0.90402838869E+02 -0.55826153705E+02 -0.96963386171E+02  0.29974974766E+03  0.26298057010E+03 0.  0.
         25    1    4    4    0    0 -0.58608570719E+02 -0.47453215652E+02 -0.87041932927E+02  0.17003111017E+03  0.12509000000E+03 0.  0.
         25    1    3    3    0    0  0.90402838869E+02  0.55826153705E+02  0.18511187585E+02  0.16516478099E+03  0.12509000000E+03 0.  0.
         25    1    4    4    0    0 -0.31794268150E+02 -0.83729380536E+01 -0.99214532445E+01  0.12971863749E+03  0.12509000000E+03 0.  0.
<mgrwt>
<rscale>  2 0.45824750E+03</rscale>
<asrwt>0</asrwt>
<pdfrwt beam="1">  1       21 0.28416348E-01 0.45824750E+03</pdfrwt>
<pdfrwt beam="2">  1       21 0.39953435E-01 0.45824750E+03</pdfrwt>
<totfact> 0.66093651E+04</totfact>
</mgrwt>
</event>
<event>
 7    0  0.4709932E-002  0.4574972E+03  0.7546771E-02  0.1025510E+00
         21   -1    0    0  502  501  0.00000000000E+00  0.00000000000E+00  0.15462190704E+03  0.15462190704E+03  0.00000000000E+00 0.  1.
         21   -1    0    0  501  502 -0.00000000000E+00 -0.00000000000E+00 -0.33841208096E+03  0.33841208096E+03  0.00000000000E+00 0.  1.
      99926    2    1    2    0    0  0.00000000000E+00 -0.71054273576E-14 -0.18379017392E+03  0.49303398800E+03  0.45749719703E+03 0.  0.
      99925    2    3    3    0    0  0.78990358243E+02 -0.52187250477E+02 -0.44229677640E+02  0.28306345190E+03  0.26306970105E+03 0.  0.
         25    1    3    3    0    0 -0.78990358243E+02  0.52187250477E+02 -0.13956049628E+03  0.20997053610E+03  0.12509000000E+03 0.  0.
         25    1    4    4    0    0  0.63281096849E+02 -0.26608457574E+02  0.10905579495E+02  0.14310467147E+03  0.12509000000E+03 0.  0.
         25    1    4    4    0    0  0.15709261394E+02 -0.25578792902E+02 -0.55135257135E+02  0.13995878043E+03  0.12509000000E+03 0.  0.
<mgrwt>
<rscale>  2 0.45749720E+03</rscale>
<asrwt>0</asrwt>
<pdfrwt beam="1">  1       21 0.22738515E-01 0.45749720E+03</pdfrwt>
<pdfrwt beam="2">  1       21 0.49766483E-01 0.45749720E+03</pdfrwt>
<totfact> 0.64475169E+04</totfact>
</mgrwt>
</event>
<event>
 7    0  0.4709932E-002  0.4440341E+03  0.7546771E-02  0.1029516E+00
         21   -1    0    0  502  501  0.00000000000E+00  0.00000000000E+00  0.70410061354E+03  0.70410061354E+03  0.00000000000E+00 0.  1.
         21   -1    0    0  501  502 -0.00000000000E+00 -0.00000000000E+00 -0.70006416631E+02  0.70006416631E+02  0.00000000000E+00 0.  1.
      99926    2    1    2    0    0  0.71054273576E-14  0.00000000000E+00  0.63409419691E+03  0.77410703017E+03  0.44403405681E+03 0.  0.
      99925    2    3    3    0    0  0.43554403633E+02  0.20747372741E+02  0.56065183069E+03  0.62123869202E+03  0.26321017773E+03 0.  0.
         25    1    4    4    0    0 -0.14327543694E+02  0.28014478670E+02  0.29137894127E+03  0.31865229489E+03  0.12509000000E+03 0.  0.
         25    1    4    4    0    0  0.57881947327E+02 -0.72671059287E+01  0.26927288942E+03  0.30258639713E+03  0.12509000000E+03 0.  0.
         25    1    3    3    0    0 -0.43554403633E+02 -0.20747372741E+02  0.73442366221E+02  0.15286833815E+03  0.12509000000E+03 0.  0.
<mgrwt>
<rscale>  2 0.44403406E+03</rscale>
<asrwt>0</asrwt>
<pdfrwt beam="1">  1       21 0.10354420E+00 0.44403406E+03</pdfrwt>
<pdfrwt beam="2">  1       21 0.10295062E-01 0.44403406E+03</pdfrwt>
<totfact> 0.53501700E+04</totfact>
</mgrwt>
</event>
<event>
 7    0  0.4709932E-002  0.4535127E+03  0.7546771E-02  0.1026680E+00
         21   -1    0    0  502  501  0.00000000000E+00  0.00000000000E+00  0.14419192137E+03  0.14419192137E+03  0.00000000000E+00 0.  1.
         21   -1    0    0  501  502 -0.00000000000E+00 -0.00000000000E+00 -0.35659723389E+03  0.35659723389E+03  0.00000000000E+00 0.  1.
      99926    2    1    2    0    0  0.00000000000E+00  0.00000000000E+00 -0.21240531252E+03  0.50078915527E+03  0.45351269139E+03 0.  0.
      99925    2    3    3    0    0 -0.71015860258E+02 -0.37731487154E+02 -0.48028429607E+02  0.27912683265E+03  0.26294132639E+03 0.  0.
         25    1    4    4    0    0 -0.34020940687E+02 -0.55832658306E+02 -0.42127774826E+02  0.14729890580E+03  0.12509000000E+03 0.  0.
         25    1    3    3    0    0  0.71015860258E+02  0.37731487154E+02 -0.16437688291E+03  0.22166232261E+03  0.12509000000E+03 0.  0.
         25    1    4    4    0    0 -0.36994919571E+02  0.18101171151E+02 -0.59006547811E+01  0.13182792685E+03  0.12509000000E+03 0.  0.
<mgrwt>
<rscale>  2 0.45351269E+03</rscale>
<asrwt>0</asrwt>
<pdfrwt beam="1">  1       21 0.21204695E-01 0.45351269E+03</pdfrwt>
<pdfrwt beam="2">  1       21 0.52440769E-01 0.45351269E+03</pdfrwt>
<totfact> 0.65990911E+04</totfact>
</mgrwt>
</event>
<event>
 7    0  0.4709932E-002  0.4461704E+03  0.7546771E-02  0.1028870E+00
         21   -1    0    0  502  501  0.00000000000E+00  0.00000000000E+00  0.39833571133E+02  0.39833571133E+02  0.00000000000E+00 0. -1.
         21   -1    0    0  501  502 -0.00000000000E+00 -0.00000000000E+00 -0.12493732578E+04  0.12493732578E+04  0.00000000000E+00 0. -1.
      99926    2    1    2    0    0  0.00000000000E+00  0.00000000000E+00 -0.12095396866E+04  0.12892068289E+04  0.44617036448E+03 0.  0.
      99925    2    3    3    0    0 -0.64473724982E+02  0.35762465122E+02 -0.55312801547E+03  0.61692741878E+03  0.26308368141E+03 0.  0.
         25    1    3    3    0    0  0.64473724982E+02 -0.35762465122E+02 -0.65641167118E+03  0.67227941013E+03  0.12509000000E+03 0.  0.
         25    1    4    4    0    0 -0.54872553299E+02  0.52603675022E+02 -0.28313165614E+03  0.31873058614E+03  0.12509000000E+03 0.  0.
         25    1    4    4    0    0 -0.96011716830E+01 -0.16841209900E+02 -0.26999635933E+03  0.29819683265E+03  0.12509000000E+03 0.  0.
<mgrwt>
<rscale>  2 0.44617036E+03</rscale>
<asrwt>0</asrwt>
<pdfrwt beam="1">  1       21 0.58578788E-02 0.44617036E+03</pdfrwt>
<pdfrwt beam="2">  1       21 0.18373134E+00 0.44617036E+03</pdfrwt>
<totfact> 0.31540868E+04</totfact>
</mgrwt>
</event>
<event>
 7    0  0.4709932E-002  0.4550052E+03  0.7546771E-02  0.1026240E+00
         21   -1    0    0  502  501  0.00000000000E+00  0.00000000000E+00  0.77837726698E+03  0.77837726698E+03  0.00000000000E+00 0.  1.
         21   -1    0    0  501  502 -0.00000000000E+00 -0.00000000000E+00 -0.66494019856E+02  0.66494019856E+02  0.00000000000E+00 0.  1.
      99926    2    1    2    0    0  0.00000000000E+00 -0.14210854715E-13  0.71188324713E+03  0.84487128684E+03  0.45500520193E+03 0.  0.
      99925    2    3    3    0    0 -0.10815857064E+02 -0.10245195797E+03  0.53521420030E+03  0.60513633598E+03  0.26291131293E+03 0.  0.
         25    1    3    3    0    0  0.10815857064E+02  0.10245195797E+03  0.17666904683E+03  0.23973495086E+03  0.12509000000E+03 0.  0.
         25    1    4    4    0    0 -0.12567452487E+01 -0.15499974632E+02  0.29121249518E+03  0.31732326431E+03  0.12509000000E+03 0.  0.
         25    1    4    4    0    0 -0.95591118154E+01 -0.86951983337E+02  0.24400170512E+03  0.28781307167E+03  0.12509000000E+03 0.  0.
<mgrwt>
<rscale>  2 0.45500520E+03</rscale>
<asrwt>0</asrwt>
<pdfrwt beam="1">  1       21 0.11446724E+00 0.45500520E+03</pdfrwt>
<pdfrwt beam="2">  1       21 0.97785328E-02 0.45500520E+03</pdfrwt>
<totfact> 0.45667819E+04</totfact>
</mgrwt>
</event>
<event>
 7    0  0.4709932E-002  0.4587377E+03  0.7546771E-02  0.1025148E+00
         21   -1    0    0  502  501  0.00000000000E+00  0.00000000000E+00  0.46627866022E+02  0.46627866022E+02  0.00000000000E+00 0.  1.
         21   -1    0    0  501  502 -0.00000000000E+00 -0.00000000000E+00 -0.11282969780E+04  0.11282969780E+04  0.00000000000E+00 0.  1.
      99926    2    1    2    0    0  0.00000000000E+00  0.00000000000E+00 -0.10816691120E+04  0.11749248440E+04  0.45873774784E+03 0.  0.
      99925    2    3    3    0    0  0.19507848941E+02 -0.45522755437E+02 -0.94919603490E+03  0.98611408775E+03  0.26266900075E+03 0.  0.
         25    1    3    3    0    0 -0.19507848941E+02  0.45522755437E+02 -0.13247307708E+03  0.18881075627E+03  0.12509000000E+03 0.  0.
         25    1    4    4    0    0 -0.80389725157E+01 -0.35073722384E+02 -0.60165005133E+03  0.61556891040E+03  0.12509000000E+03 0.  0.
         25    1    4    4    0    0  0.27546821457E+02 -0.10449033053E+02 -0.34754598356E+03  0.37054517735E+03  0.12509000000E+03 0.  0.
<mgrwt>
<rscale>  2 0.45873775E+03</rscale>
<asrwt>0</asrwt>
<pdfrwt beam="1">  1       21 0.68570383E-02 0.45873775E+03</pdfrwt>
<pdfrwt beam="2">  1       21 0.16592605E+00 0.45873775E+03</pdfrwt>
<totfact> 0.32018278E+04</totfact>
</mgrwt>
</event>
<event>
 7    0  0.4709932E-002  0.4557238E+03  0.7546771E-02  0.1026029E+00
         21   -1    0    0  502  501  0.00000000000E+00  0.00000000000E+00  0.47131975761E+03  0.47131975761E+03  0.00000000000E+00 0.  1.
         21   -1    0    0  501  502 -0.00000000000E+00 -0.00000000000E+00 -0.11016095843E+03  0.11016095843E+03  0.00000000000E+00 0.  1.
      99926    2    1    2    0    0  0.00000000000E+00  0.00000000000E+00  0.36115879918E+03  0.58148071604E+03  0.45572375941E+03 0.  0.
      99925    2    3    3    0    0 -0.33231550236E+02 -0.26004284370E+02  0.92375301971E+02  0.28202682107E+03  0.26310715052E+03 0.  0.
         25    1    4    4    0    0 -0.39120763495E+02  0.20687821704E+02  0.50458299838E+02  0.14195762828E+03  0.12509000000E+03 0.  0.
         25    1    4    4    0    0  0.58892132592E+01 -0.46692106074E+02  0.41917002133E+02  0.14006919280E+03  0.12509000000E+03 0.  0.
         25    1    3    3    0    0  0.33231550236E+02  0.26004284370E+02  0.26878349721E+03  0.29945389496E+03  0.12509000000E+03 0.  0.
<mgrwt>
<rscale>  2 0.45572376E+03</rscale>
<asrwt>0</asrwt>
<pdfrwt beam="1">  1       21 0.69311728E-01 0.45572376E+03</pdfrwt>
<pdfrwt beam="2">  1       21 0.16200141E-01 0.45572376E+03</pdfrwt>
<totfact> 0.59491786E+04</totfact>
</mgrwt>
</event>
<event>
 7    0  0.4709932E-002  0.4646592E+03  0.7546771E-02  0.1023439E+00
         21   -1    0    0  502  501  0.00000000000E+00  0.00000000000E+00  0.35727525201E+03  0.35727525201E+03  0.00000000000E+00 0.  1.
         21   -1    0    0  501  502 -0.00000000000E+00 -0.00000000000E+00 -0.15107969126E+03  0.15107969126E+03  0.00000000000E+00 0.  1.
      99926    2    1    2    0    0  0.00000000000E+00  0.00000000000E+00  0.20619556074E+03  0.50835494327E+03  0.46465916442E+03 0.  0.
      99925    2    3    3    0    0  0.82907336285E+02 -0.88969408568E+02  0.11774883418E+03  0.31275455061E+03  0.26298562490E+03 0.  0.
         25    1    4    4    0    0  0.43198281007E+02 -0.66271760995E+02  0.24142646038E+02  0.14996137251E+03  0.12509000000E+03 0.  0.
         25    1    4    4    0    0  0.39709055278E+02 -0.22697647573E+02  0.93606188141E+02  0.16279317810E+03  0.12509000000E+03 0.  0.
         25    1    3    3    0    0 -0.82907336285E+02  0.88969408568E+02  0.88446726565E+02  0.19560039267E+03  0.12509000000E+03 0.  0.
<mgrwt>
<rscale>  2 0.46465916E+03</rscale>
<asrwt>0</asrwt>
<pdfrwt beam="1">  1       21 0.52540478E-01 0.46465916E+03</pdfrwt>
<pdfrwt beam="2">  1       21 0.22217602E-01 0.46465916E+03</pdfrwt>
<totfact> 0.59957084E+04</totfact>
</mgrwt>
</event>
<event>
 7    0  0.4709932E-002  0.4564012E+03  0.7546771E-02  0.1025830E+00
         21   -1    0    0  502  501  0.00000000000E+00  0.00000000000E+00  0.27634032653E+03  0.27634032653E+03  0.00000000000E+00 0. -1.
         21   -1    0    0  501  502 -0.00000000000E+00 -0.00000000000E+00 -0.18844704987E+03  0.18844704987E+03  0.00000000000E+00 0. -1.
      99926    2    1    2    0    0  0.35527136788E-14  0.00000000000E+00  0.87893276660E+02  0.46478737641E+03  0.45640122391E+03 0.  0.
      99925    2    3    3    0    0  0.30153152049E+02  0.46019932656E+02  0.15731609106E+03  0.31150958271E+03  0.26317830617E+03 0.  0.
         25    1    4    4    0    0 -0.11418812448E+02 -0.74301669350E+01  0.61912734814E+02  0.14023655547E+03  0.12509000000E+03 0.  0.
         25    1    3    3    0    0 -0.30153152049E+02 -0.46019932656E+02 -0.69422814398E+02  0.15327779369E+03  0.12509000000E+03 0.  0.
         25    1    4    4    0    0  0.41571964497E+02  0.53450099591E+02  0.95403356244E+02  0.17127302724E+03  0.12509000000E+03 0.  0.
<mgrwt>
<rscale>  2 0.45640122E+03</rscale>
<asrwt>0</asrwt>
<pdfrwt beam="1">  1       21 0.40638284E-01 0.45640122E+03</pdfrwt>
<pdfrwt beam="2">  1       21 0.27712801E-01 0.45640122E+03</pdfrwt>
<totfact> 0.67075721E+04</totfact>
</mgrwt>
</event>
<event>
 7    0  0.4709932E-002  0.4540871E+03  0.7546771E-02  0.1026510E+00
         21   -1    0    0  502  501  0.00000000000E+00  0.00000000000E+00  0.40432417072E+03  0.40432417072E+03  0.00000000000E+00 0.  1.
         21   -1    0    0  501  502 -0.00000000000E+00 -0.00000000000E+00 -0.12749367010E+03  0.12749367010E+03  0.00000000000E+00 0.  1.
      99926    2    1    2    0    0  0.00000000000E+00  0.00000000000E+00  0.27683050062E+03  0.53181784083E+03  0.45408709489E+03 0.  0.
      99925    2    3    3    0    0  0.29821909513E+02 -0.31100687806E+02  0.29578255897E+03  0.39816423001E+03  0.26304150395E+03 0.  0.
         25    1    4    4    0    0  0.50653307849E+02 -0.31434265285E+00  0.13233866408E+03  0.18901557216E+03  0.12509000000E+03 0.  0.
         25    1    4    4    0    0 -0.20831398336E+02 -0.30786345153E+02  0.16344389489E+03  0.20914865785E+03  0.12509000000E+03 0.  0.
         25    1    3    3    0    0 -0.29821909513E+02  0.31100687806E+02 -0.18952058352E+02  0.13365361082E+03  0.12509000000E+03 0.  0.
<mgrwt>
<rscale>  2 0.45408709E+03</rscale>
<asrwt>0</asrwt>
<pdfrwt beam="1">  1       21 0.59459436E-01 0.45408709E+03</pdfrwt>
<pdfrwt beam="2">  1       21 0.18749069E-01 0.45408709E+03</pdfrwt>
<totfact> 0.63542094E+04</totfact>
</mgrwt>
</event>
<event>
 7    0  0.4709932E-002  0.4600461E+03  0.7546771E-02  0.1024768E+00
         21   -1    0    0  502  501  0.00000000000E+00  0.00000000000E+00  0.27865032599E+03  0.27865032599E+03  0.00000000000E+00 0. -1.
         21   -1    0    0  501  502 -0.00000000000E+00 -0.00000000000E+00 -0.18988175655E+03  0.18988175655E+03  0.00000000000E+00 0. -1.
      99926    2    1    2    0    0 -0.35527136788E-14  0.00000000000E+00  0.88768569440E+02  0.46853208253E+03  0.46004614273E+03 0.  0.
      99925    2    3    3    0    0 -0.30086787742E+02  0.44858438450E+02 -0.51107299460E+02  0.27326236881E+03  0.26295032203E+03 0.  0.
         25    1    4    4    0    0 -0.10201474419E+01  0.58180482767E+02 -0.40154606665E+02  0.14368684634E+03  0.12509000000E+03 0.  0.
         25    1    4    4    0    0 -0.29066640300E+02 -0.13322044316E+02 -0.10952692794E+02  0.12957552247E+03  0.12509000000E+03 0.  0.
         25    1    3    3    0    0  0.30086787742E+02 -0.44858438450E+02  0.13987586890E+03  0.19526971372E+03  0.12509000000E+03 0.  0.
<mgrwt>
<rscale>  2 0.46004614E+03</rscale>
<asrwt>0</asrwt>
<pdfrwt beam="1">  1       21 0.40977989E-01 0.46004614E+03</pdfrwt>
<pdfrwt beam="2">  1       21 0.27923788E-01 0.46004614E+03</pdfrwt>
<totfact> 0.64905903E+04</totfact>
</mgrwt>
</event>
<event>
 7    0  0.4709932E-002  0.4602322E+03  0.7546771E-02  0.1024714E+00
         21   -1    0    0  502  501  0.00000000000E+00  0.00000000000E+00  0.65088531108E+02  0.65088531108E+02  0.00000000000E+00 0. -1.
         21   -1    0    0  501  502 -0.00000000000E+00 -0.00000000000E+00 -0.81355994165E+03  0.81355994165E+03  0.00000000000E+00 0. -1.
      99926    2    1    2    0    0  0.00000000000E+00  0.00000000000E+00 -0.74847141055E+03  0.87864847276E+03  0.46023220909E+03 0.  0.
      99925    2    3    3    0    0 -0.94816510049E+01 -0.61045090790E+02 -0.66074064253E+03  0.71384373808E+03  0.26301764370E+03 0.  0.
         25    1    4    4    0    0 -0.15291096155E+01 -0.36121519316E+02 -0.22728058256E+03  0.26193715590E+03  0.12509000000E+03 0.  0.
         25    1    3    3    0    0  0.94816510049E+01  0.61045090790E+02 -0.87730768017E+02  0.16480473468E+03  0.12509000000E+03 0.  0.
         25    1    4    4    0    0 -0.79525413894E+01 -0.24923571474E+02 -0.43346005997E+03  0.45190658218E+03  0.12509000000E+03 0.  0.
<mgrwt>
<rscale>  2 0.46023221E+03</rscale>
<asrwt>0</asrwt>
<pdfrwt beam="1">  1       21 0.95718435E-02 0.46023221E+03</pdfrwt>
<pdfrwt beam="2">  1       21 0.11964116E+00 0.46023221E+03</pdfrwt>
<totfact> 0.42405141E+04</totfact>
</mgrwt>
</event>
<event>
 7    0  0.4709932E-002  0.4418964E+03  0.7546771E-02  0.1030167E+00
         21   -1    0    0  502  501  0.00000000000E+00  0.00000000000E+00  0.27095327918E+03  0.27095327918E+03  0.00000000000E+00 0.  1.
         21   -1    0    0  501  502 -0.00000000000E+00 -0.00000000000E+00 -0.18017169733E+03  0.18017169733E+03  0.00000000000E+00 0.  1.
      99926    2    1    2    0    0  0.00000000000E+00  0.00000000000E+00  0.90781581848E+02  0.45112497651E+03  0.44189642319E+03 0.  0.
      99925    2    3    3    0    0 -0.37598974973E+02 -0.81204628855E+02  0.11508357862E+02  0.27809426592E+03  0.26305152304E+03 0.  0.
         25    1    4    4    0    0 -0.25604167219E+02 -0.82272853508E+02  0.12655849111E+02  0.15242071519E+03  0.12509000000E+03 0.  0.
         25    1    4    4    0    0 -0.11994807754E+02  0.10682246526E+01 -0.11474912489E+01  0.12567355073E+03  0.12509000000E+03 0.  0.
         25    1    3    3    0    0  0.37598974973E+02  0.81204628855E+02  0.79273223986E+02  0.17303071059E+03  0.12509000000E+03 0.  0.
<mgrwt>
<rscale>  2 0.44189642E+03</rscale>
<asrwt>0</asrwt>
<pdfrwt beam="1">  1       21 0.39846071E-01 0.44189642E+03</pdfrwt>
<pdfrwt beam="2">  1       21 0.26495838E-01 0.44189642E+03</pdfrwt>
<totfact> 0.76514670E+04</totfact>
</mgrwt>
</event>
<event>
 7    0  0.4709932E-002  0.4487970E+03  0.7546771E-02  0.1028081E+00
         21   -1    0    0  502  501  0.00000000000E+00  0.00000000000E+00  0.16340802488E+02  0.16340802488E+02  0.00000000000E+00 0. -1.
         21   -1    0    0  501  502 -0.00000000000E+00 -0.00000000000E+00 -0.30815310475E+04  0.30815310475E+04  0.00000000000E+00 0. -1.
      99926    2    1    2    0    0  0.00000000000E+00 -0.88817841970E-15 -0.30651902450E+04  0.30978718500E+04  0.44879701518E+03 0.  0.
      99925    2    3    3    0    0  0.60630342403E+02  0.54613318707E+01 -0.25493889269E+04  0.25636393422E+04  0.26297701696E+03 0.  0.
         25    1    4    4    0    0  0.38910485687E+02 -0.21127102589E+02 -0.98792422238E+03  0.99679594583E+03  0.12509000000E+03 0.  0.
         25    1    3    3    0    0 -0.60630342403E+02 -0.54613318707E+01 -0.51580131810E+03  0.53423250783E+03  0.12509000000E+03 0.  0.
         25    1    4    4    0    0  0.21719856716E+02  0.26588434460E+02 -0.15614647046E+04  0.15668433963E+04  0.12509000000E+03 0.  0.
<mgrwt>
<rscale>  2 0.44879702E+03</rscale>
<asrwt>0</asrwt>
<pdfrwt beam="1">  1       21 0.24030571E-02 0.44879702E+03</pdfrwt>
<pdfrwt beam="2">  1       21 0.45316673E+00 0.44879702E+03</pdfrwt>
<totfact> 0.28747381E+03</totfact>
</mgrwt>
</event>
<event>
 7    0  0.4709932E-002  0.4528578E+03  0.7546771E-02  0.1026873E+00
         21   -1    0    0  502  501  0.00000000000E+00  0.00000000000E+00  0.10511761509E+03  0.10511761509E+03  0.00000000000E+00 0. -1.
         21   -1    0    0  501  502 -0.00000000000E+00 -0.00000000000E+00 -0.48773991106E+03  0.48773991106E+03  0.00000000000E+00 0. -1.
      99926    2    1    2    0    0  0.00000000000E+00  0.00000000000E+00 -0.38262229597E+03  0.59285752615E+03  0.45285784186E+03 0.  0.
      99925    2    3    3    0    0 -0.99178370018E+02 -0.51286638153E+02 -0.23822433141E+03  0.37157727714E+03  0.26239697498E+03 0.  0.
         25    1    3    3    0    0  0.99178370018E+02  0.51286638153E+02 -0.14439796455E+03  0.22128024901E+03  0.12509000000E+03 0.  0.
         25    1    4    4    0    0 -0.54110468720E+02 -0.54107215902E+02 -0.88318278907E+02  0.17118165827E+03  0.12509000000E+03 0.  0.
         25    1    4    4    0    0 -0.45067901298E+02  0.28205777492E+01 -0.14990605250E+03  0.20039561887E+03  0.12509000000E+03 0.  0.
<mgrwt>
<rscale>  2 0.45285784E+03</rscale>
<asrwt>0</asrwt>
<pdfrwt beam="1">  1       21 0.15458473E-01 0.45285784E+03</pdfrwt>
<pdfrwt beam="2">  1       21 0.71726457E-01 0.45285784E+03</pdfrwt>
<totfact> 0.60131596E+04</totfact>
</mgrwt>
</event>
<event>
 7    0  0.4709932E-002  0.4531756E+03  0.7546771E-02  0.1026779E+00
         21   -1    0    0  502  501  0.00000000000E+00  0.00000000000E+00  0.94082830983E+02  0.94082830983E+02  0.00000000000E+00 0.  1.
         21   -1    0    0  501  502 -0.00000000000E+00 -0.00000000000E+00 -0.54571084051E+03  0.54571084051E+03  0.00000000000E+00 0.  1.
      99926    2    1    2    0    0  0.00000000000E+00  0.00000000000E+00 -0.45162800952E+03  0.63979367149E+03  0.45317555438E+03 0.  0.
      99925    2    3    3    0    0  0.34952561921E+02 -0.87142827727E+02 -0.36946110634E+03  0.46311752118E+03  0.26298436326E+03 0.  0.
         25    1    4    4    0    0  0.54548531170E+02 -0.48655865092E+02 -0.16515548044E+03  0.21969701018E+03  0.12509000000E+03 0.  0.
         25    1    3    3    0    0 -0.34952561921E+02  0.87142827727E+02 -0.82166903184E+02  0.17667615031E+03  0.12509000000E+03 0.  0.
         25    1    4    4    0    0 -0.19595969249E+02 -0.38486962636E+02 -0.20430562590E+03  0.24342051100E+03  0.12509000000E+03 0.  0.
<mgrwt>
<rscale>  2 0.45317555E+03</rscale>
<asrwt>0</asrwt>
<pdfrwt beam="1">  1       21 0.13835711E-01 0.45317555E+03</pdfrwt>
<pdfrwt beam="2">  1       21 0.80251593E-01 0.45317555E+03</pdfrwt>
<totfact> 0.57111168E+04</totfact>
</mgrwt>
</event>
<event>
 7    0  0.4709932E-002  0.4502702E+03  0.7546771E-02  0.1027641E+00
         21   -1    0    0  502  501  0.00000000000E+00  0.00000000000E+00  0.45716345805E+02  0.45716345805E+02  0.00000000000E+00 0.  1.
         21   -1    0    0  501  502 -0.00000000000E+00 -0.00000000000E+00 -0.11087022902E+04  0.11087022902E+04  0.00000000000E+00 0.  1.
      99926    2    1    2    0    0 -0.17763568394E-14 -0.35527136788E-14 -0.10629859444E+04  0.11544186360E+04  0.45027021795E+03 0.  0.
      99925    2    3    3    0    0 -0.29196673082E+01 -0.17199096750E+02 -0.39701070175E+03  0.47657288268E+03  0.26305870412E+03 0.  0.
         25    1    4    4    0    0 -0.35905099275E+02  0.12557993605E+02 -0.18905109964E+03  0.22985801212E+03  0.12509000000E+03 0.  0.
         25    1    3    3    0    0  0.29196673082E+01  0.17199096750E+02 -0.66597524264E+03  0.67784575332E+03  0.12509000000E+03 0.  0.
         25    1    4    4    0    0  0.32985431967E+02 -0.29757090355E+02 -0.20795960210E+03  0.24671487056E+03  0.12509000000E+03 0.  0.
<mgrwt>
<rscale>  2 0.45027022E+03</rscale>
<asrwt>0</asrwt>
<pdfrwt beam="1">  1       21 0.67229914E-02 0.45027022E+03</pdfrwt>
<pdfrwt beam="2">  1       21 0.16304447E+00 0.45027022E+03</pdfrwt>
<totfact> 0.34904125E+04</totfact>
</mgrwt>
</event>
<event>
 7    0  0.4709932E-002  0.4580761E+03  0.7546771E-02  0.1025341E+00
         21   -1    0    0  502  501  0.00000000000E+00  0.00000000000E+00  0.25606389989E+03  0.25606389989E+03  0.00000000000E+00 0. -1.
         21   -1    0    0  501  502 -0.00000000000E+00 -0.00000000000E+00 -0.20486461735E+03  0.20486461735E+03  0.00000000000E+00 0. -1.
      99926    2    1    2    0    0  0.00000000000E+00  0.00000000000E+00  0.51199282538E+02  0.46092851724E+03  0.45807611974E+03 0.  0.
      99925    2    3    3    0    0 -0.71462540459E+02 -0.84389316970E+02  0.67586211820E+02  0.29316531788E+03  0.26296303176E+03 0.  0.
         25    1    3    3    0    0  0.71462540459E+02  0.84389316970E+02 -0.16386929283E+02  0.16776319936E+03  0.12509000000E+03 0.  0.
         25    1    4    4    0    0 -0.27004983691E+02 -0.32511027930E+02 -0.71453358927E+01  0.13223010250E+03  0.12509000000E+03 0.  0.
         25    1    4    4    0    0 -0.44457556767E+02 -0.51878289040E+02  0.74731547713E+02  0.16093521539E+03  0.12509000000E+03 0.  0.
<mgrwt>
<rscale>  2 0.45807612E+03</rscale>
<asrwt>0</asrwt>
<pdfrwt beam="1">  1       21 0.37656456E-01 0.45807612E+03</pdfrwt>
<pdfrwt beam="2">  1       21 0.30127150E-01 0.45807612E+03</pdfrwt>
<totfact> 0.66467246E+04</totfact>
</mgrwt>
</event>
<event>
 7    0  0.4709932E-002  0.4564437E+03  0.7546771E-02  0.1025818E+00
         21   -1    0    0  502  501  0.00000000000E+00  0.00000000000E+00  0.41871204304E+03  0.41871204304E+03  0.00000000000E+00 0. -1.
         21   -1    0    0  501  502 -0.00000000000E+00 -0.00000000000E+00 -0.12439385033E+03  0.12439385033E+03  0.00000000000E+00 0. -1.
      99926    2    1    2    0    0  0.00000000000E+00  0.00000000000E+00  0.29431819272E+03  0.54310589337E+03  0.45644365791E+03 0.  0.
      99925    2    3    3    0    0 -0.10024267317E+03 -0.55006645065E+02  0.19325473092E+03  0.34578469345E+03  0.26295501265E+03 0.  0.
         25    1    3    3    0    0  0.10024267317E+03  0.55006645065E+02  0.10106346180E+03  0.19732119992E+03  0.12509000000E+03 0.  0.
         25    1    4    4    0    0 -0.84745314640E+02 -0.20853165532E+02  0.76611012420E+02  0.17068502626E+03  0.12509000000E+03 0.  0.
         25    1    4    4    0    0 -0.15497358529E+02 -0.34153479533E+02  0.11664371850E+03  0.17509966719E+03  0.12509000000E+03 0.  0.
<mgrwt>
<rscale>  2 0.45644366E+03</rscale>
<asrwt>0</asrwt>
<pdfrwt beam="1">  1       21 0.61575300E-01 0.45644366E+03</pdfrwt>
<pdfrwt beam="2">  1       21 0.18293213E-01 0.45644366E+03</pdfrwt>
<totfact> 0.61617444E+04</totfact>
</mgrwt>
</event>
<event>
 7    0  0.4709932E-002  0.4627705E+03  0.7546771E-02  0.1023981E+00
         21   -1    0    0  502  501  0.00000000000E+00  0.00000000000E+00  0.22814366113E+03  0.22814366113E+03  0.00000000000E+00 0. -1.
         21   -1    0    0  501  502 -0.00000000000E+00 -0.00000000000E+00 -0.23467285354E+03  0.23467285354E+03  0.00000000000E+00 0. -1.
      99926    2    1    2    0    0  0.00000000000E+00 -0.35527136788E-14 -0.65291924145E+01  0.46281651467E+03  0.46277045702E+03 0.  0.
      99925    2    3    3    0    0 -0.52676123028E+02  0.24793799863E+02 -0.10933475816E+03  0.29075257627E+03  0.26304650694E+03 0.  0.
         25    1    4    4    0    0 -0.35742420954E+02  0.52305927406E+02 -0.56633375226E+02  0.15122261070E+03  0.12509000000E+03 0.  0.
         25    1    3    3    0    0  0.52676123028E+02 -0.24793799863E+02  0.10280556575E+03  0.17206393840E+03  0.12509000000E+03 0.  0.
         25    1    4    4    0    0 -0.16933702074E+02 -0.27512127543E+02 -0.52701382935E+02  0.13952996557E+03  0.12509000000E+03 0.  0.
<mgrwt>
<rscale>  2 0.46277046E+03</rscale>
<asrwt>0</asrwt>
<pdfrwt beam="1">  1       21 0.33550539E-01 0.46277046E+03</pdfrwt>
<pdfrwt beam="2">  1       21 0.34510714E-01 0.46277046E+03</pdfrwt>
<totfact> 0.63920927E+04</totfact>
</mgrwt>
</event>
<event>
 7    0  0.4709932E-002  0.4484905E+03  0.7546771E-02  0.1028173E+00
         21   -1    0    0  502  501  0.00000000000E+00  0.00000000000E+00  0.74557406238E+03  0.74557406238E+03  0.00000000000E+00 0. -1.
         21   -1    0    0  501  502 -0.00000000000E+00 -0.00000000000E+00 -0.67445918463E+02  0.67445918463E+02  0.00000000000E+00 0. -1.
      99926    2    1    2    0    0  0.00000000000E+00  0.00000000000E+00  0.67812814391E+03  0.81301998084E+03  0.44849047892E+03 0.  0.
      99925    2    3    3    0    0 -0.92095366221E+02  0.41982004054E+02  0.49177699433E+03  0.56681213329E+03  0.26303485919E+03 0.  0.
         25    1    4    4    0    0 -0.88570003311E+02  0.21249262296E+02  0.28214219793E+03  0.32178860233E+03  0.12509000000E+03 0.  0.
         25    1    4    4    0    0 -0.35253629098E+01  0.20732741759E+02  0.20963479640E+03  0.24502353096E+03  0.12509000000E+03 0.  0.
         25    1    3    3    0    0  0.92095366221E+02 -0.41982004054E+02  0.18635114958E+03  0.24620784755E+03  0.12509000000E+03 0.  0.
<mgrwt>
<rscale>  2 0.44849048E+03</rscale>
<asrwt>0</asrwt>
<pdfrwt beam="1">  1       21 0.10964324E+00 0.44849048E+03</pdfrwt>
<pdfrwt beam="2">  1       21 0.99185179E-02 0.44849048E+03</pdfrwt>
<totfact> 0.49628397E+04</totfact>
</mgrwt>
</event>
<event>
 7    0  0.4709932E-002  0.4404692E+03  0.7546771E-02  0.1030603E+00
         21   -1    0    0  502  501  0.00000000000E+00  0.00000000000E+00  0.14863365618E+04  0.14863365618E+04  0.00000000000E+00 0.  1.
         21   -1    0    0  501  502 -0.00000000000E+00 -0.00000000000E+00 -0.32632770700E+02  0.32632770700E+02  0.00000000000E+00 0.  1.
      99926    2    1    2    0    0  0.00000000000E+00  0.14210854715E-13  0.14537037911E+04  0.15189693325E+04  0.44046920530E+03 0.  0.
      99925    2    3    3    0    0 -0.41595047070E+02  0.74018470193E+02  0.11020144028E+04  0.11361615272E+04  0.26309388059E+03 0.  0.
         25    1    3    3    0    0  0.41595047070E+02 -0.74018470193E+02  0.35168938836E+03  0.38280780537E+03  0.12509000000E+03 0.  0.
         25    1    4    4    0    0 -0.54133750346E+02  0.21345829052E+02  0.62559945387E+03  0.64063116699E+03  0.12509000000E+03 0.  0.
         25    1    4    4    0    0  0.12538703277E+02  0.52672641140E+02  0.47641494890E+03  0.49553036016E+03  0.12509000000E+03 0.  0.
<mgrwt>
<rscale>  2 0.44046921E+03</rscale>
<asrwt>0</asrwt>
<pdfrwt beam="1">  1       21 0.21857886E+00 0.44046921E+03</pdfrwt>
<pdfrwt beam="2">  1       21 0.47989378E-02 0.44046921E+03</pdfrwt>
<totfact> 0.26146883E+04</totfact>
</mgrwt>
</event>
<event>
 7    0  0.4709932E-002  0.4583289E+03  0.7546771E-02  0.1025267E+00
         21   -1    0    0  502  501  0.00000000000E+00  0.00000000000E+00  0.79219387714E+03  0.79219387714E+03  0.00000000000E+00 0. -1.
         21   -1    0    0  501  502 -0.00000000000E+00 -0.00000000000E+00 -0.66292295037E+02  0.66292295037E+02  0.00000000000E+00 0. -1.
      99926    2    1    2    0    0  0.00000000000E+00  0.00000000000E+00  0.72590158210E+03  0.85848617217E+03  0.45832892219E+03 0.  0.
      99925    2    3    3    0    0 -0.10847740085E+03  0.40025733165E+02  0.44138055088E+03  0.52687023300E+03  0.26345027218E+03 0.  0.
         25    1    4    4    0    0 -0.77016434647E+02  0.29814131170E+02  0.29908058040E+03  0.33454015498E+03  0.12509000000E+03 0.  0.
         25    1    4    4    0    0 -0.31460966206E+02  0.10211601994E+02  0.14229997048E+03  0.19233007801E+03  0.12509000000E+03 0.  0.
         25    1    3    3    0    0  0.10847740085E+03 -0.40025733165E+02  0.28452103122E+03  0.33161593918E+03  0.12509000000E+03 0.  0.
<mgrwt>
<rscale>  2 0.45832892E+03</rscale>
<asrwt>0</asrwt>
<pdfrwt beam="1">  1       21 0.11649909E+00 0.45832892E+03</pdfrwt>
<pdfrwt beam="2">  1       21 0.97488674E-02 0.45832892E+03</pdfrwt>
<totfact> 0.43904415E+04</totfact>
</mgrwt>
</event>
<event>
 7    0  0.4709932E-002  0.4561043E+03  0.7546771E-02  0.1025917E+00
         21   -1    0    0  502  501  0.00000000000E+00  0.00000000000E+00  0.12417420030E+04  0.12417420030E+04  0.00000000000E+00 0.  1.
         21   -1    0    0  501  502 -0.00000000000E+00 -0.00000000000E+00 -0.41882926919E+02  0.41882926919E+02  0.00000000000E+00 0.  1.
      99926    2    1    2    0    0  0.00000000000E+00  0.00000000000E+00  0.11998590761E+04  0.12836249299E+04  0.45610432826E+03 0.  0.
      99925    2    3    3    0    0  0.97108911630E+02  0.46058580226E+02  0.64602897050E+03  0.70576090830E+03  0.26304656515E+03 0.  0.
         25    1    3    3    0    0 -0.97108911630E+02 -0.46058580226E+02  0.55383010559E+03  0.57786402163E+03  0.12509000000E+03 0.  0.
         25    1    4    4    0    0  0.83614722850E+02  0.84877018914E+00  0.34211858423E+03  0.37374426559E+03  0.12509000000E+03 0.  0.
         25    1    4    4    0    0  0.13494188780E+02  0.45209810037E+02  0.30391038627E+03  0.33201664271E+03  0.12509000000E+03 0.  0.
<mgrwt>
<rscale>  2 0.45610433E+03</rscale>
<asrwt>0</asrwt>
<pdfrwt beam="1">  1       21 0.18260909E+00 0.45610433E+03</pdfrwt>
<pdfrwt beam="2">  1       21 0.61592548E-02 0.45610433E+03</pdfrwt>
<totfact> 0.29341159E+04</totfact>
</mgrwt>
</event>
<event>
 7    0  0.4709932E-002  0.4586483E+03  0.7546771E-02  0.1025174E+00
         21   -1    0    0  502  501  0.00000000000E+00  0.00000000000E+00  0.76911619447E+02  0.76911619447E+02  0.00000000000E+00 0.  1.
         21   -1    0    0  501  502 -0.00000000000E+00 -0.00000000000E+00 -0.68376613089E+03  0.68376613089E+03  0.00000000000E+00 0.  1.
      99926    2    1    2    0    0  0.00000000000E+00 -0.35527136788E-14 -0.60685451144E+03  0.76067775034E+03  0.45864827679E+03 0.  0.
      99925    2    3    3    0    0  0.49743342521E+02  0.22311105405E+02 -0.20957379553E+03  0.34061625379E+03  0.26291837330E+03 0.  0.
         25    1    3    3    0    0 -0.49743342521E+02 -0.22311105405E+02 -0.39728071591E+03  0.42006149655E+03  0.12509000000E+03 0.  0.
         25    1    4    4    0    0 -0.82029412004E+01 -0.12621176698E+02 -0.90399168787E+02  0.15506805010E+03  0.12509000000E+03 0.  0.
         25    1    4    4    0    0  0.57946283721E+02  0.34932282104E+02 -0.11917462674E+03  0.18554820368E+03  0.12509000000E+03 0.  0.
<mgrwt>
<rscale>  2 0.45864828E+03</rscale>
<asrwt>0</asrwt>
<pdfrwt beam="1">  1       21 0.11310533E-01 0.45864828E+03</pdfrwt>
<pdfrwt beam="2">  1       21 0.10055384E+00 0.45864828E+03</pdfrwt>
<totfact> 0.48326017E+04</totfact>
</mgrwt>
</event>
<event>
 7    0  0.4709932E-002  0.4534031E+03  0.7546771E-02  0.1026712E+00
         21   -1    0    0  502  501  0.00000000000E+00  0.00000000000E+00  0.73664930614E+02  0.73664930614E+02  0.00000000000E+00 0.  1.
         21   -1    0    0  501  502 -0.00000000000E+00 -0.00000000000E+00 -0.69766691463E+03  0.69766691463E+03  0.00000000000E+00 0.  1.
      99926    2    1    2    0    0  0.00000000000E+00  0.00000000000E+00 -0.62400198402E+03  0.77133184525E+03  0.45340306509E+03 0.  0.
      99925    2    3    3    0    0  0.46661723829E+02  0.93843670665E+02 -0.45919461889E+03  0.53939882325E+03  0.26288294259E+03 0.  0.
         25    1    4    4    0    0  0.64052074022E+02  0.44793673595E+02 -0.24248238467E+03  0.28382099351E+03  0.12509000000E+03 0.  0.
         25    1    3    3    0    0 -0.46661723829E+02 -0.93843670665E+02 -0.16480736513E+03  0.23193302200E+03  0.12509000000E+03 0.  0.
         25    1    4    4    0    0 -0.17390350193E+02  0.49049997069E+02 -0.21671223423E+03  0.25557782974E+03  0.12509000000E+03 0.  0.
<mgrwt>
<rscale>  2 0.45340307E+03</rscale>
<asrwt>0</asrwt>
<pdfrwt beam="1">  1       21 0.10833078E-01 0.45340307E+03</pdfrwt>
<pdfrwt beam="2">  1       21 0.10259808E+00 0.45340307E+03</pdfrwt>
<totfact> 0.49804096E+04</totfact>
</mgrwt>
</event>
<event>
 7    0  0.4709932E-002  0.4535788E+03  0.7546771E-02  0.1026660E+00
         21   -1    0    0  502  501  0.00000000000E+00  0.00000000000E+00  0.45631280416E+03  0.45631280416E+03  0.00000000000E+00 0. -1.
         21   -1    0    0  501  502 -0.00000000000E+00 -0.00000000000E+00 -0.11271526989E+03  0.11271526989E+03  0.00000000000E+00 0. -1.
      99926    2    1    2    0    0  0.00000000000E+00  0.35527136788E-14  0.34359753427E+03  0.56902807405E+03  0.45357875116E+03 0.  0.
      99925    2    3    3    0    0 -0.72343743551E+02  0.23425909120E+02  0.11344404818E+03  0.29626347645E+03  0.26290702722E+03 0.  0.
         25    1    3    3    0    0  0.72343743551E+02 -0.23425909120E+02  0.23015348608E+03  0.27276459760E+03  0.12509000000E+03 0.  0.
         25    1    4    4    0    0 -0.12673099908E+02 -0.82233376764E+01  0.82997787038E+02  0.15087866482E+03  0.12509000000E+03 0.  0.
         25    1    4    4    0    0 -0.59670643643E+02  0.31649246797E+02  0.30446261143E+02  0.14538481163E+03  0.12509000000E+03 0.  0.
<mgrwt>
<rscale>  2 0.45357875E+03</rscale>
<asrwt>0</asrwt>
<pdfrwt beam="1">  1       21 0.67104823E-01 0.45357875E+03</pdfrwt>
<pdfrwt beam="2">  1       21 0.16575775E-01 0.45357875E+03</pdfrwt>
<totfact> 0.61312563E+04</totfact>
</mgrwt>
</event>
<event>
 7    0  0.4709932E-002  0.4494002E+03  0.7546771E-02  0.1027901E+00
         21   -1    0    0  502  501  0.00000000000E+00  0.00000000000E+00  0.51866009468E+03  0.51866009468E+03  0.00000000000E+00 0.  1.
         21   -1    0    0  501  502 -0.00000000000E+00 -0.00000000000E+00 -0.97347241290E+02  0.97347241290E+02  0.00000000000E+00 0.  1.
      99926    2    1    2    0    0  0.00000000000E+00  0.71054273576E-14  0.42131285339E+03  0.61600733597E+03  0.44940017528E+03 0.  0.
      99925    2    3    3    0    0 -0.72682174507E+02 -0.35693674020E+02  0.36410239193E+03  0.45639129086E+03  0.26299376744E+03 0.  0.
         25    1    4    4    0    0 -0.36178574145E+02 -0.56923498003E+02  0.20847656964E+03  0.25230767337E+03  0.12509000000E+03 0.  0.
         25    1    4    4    0    0 -0.36503600362E+02  0.21229823982E+02  0.15562582228E+03  0.20408361749E+03  0.12509000000E+03 0.  0.
         25    1    3    3    0    0  0.72682174507E+02  0.35693674020E+02  0.57210461465E+02  0.15961604511E+03  0.12509000000E+03 0.  0.
<mgrwt>
<rscale>  2 0.44940018E+03</rscale>
<asrwt>0</asrwt>
<pdfrwt beam="1">  1       21 0.76273542E-01 0.44940018E+03</pdfrwt>
<pdfrwt beam="2">  1       21 0.14315771E-01 0.44940018E+03</pdfrwt>
<totfact> 0.60327571E+04</totfact>
</mgrwt>
</event>
<event>
 7    0  0.4709932E-002  0.4537124E+03  0.7546771E-02  0.1026621E+00
         21   -1    0    0  502  501  0.00000000000E+00  0.00000000000E+00  0.10051069277E+04  0.10051069277E+04  0.00000000000E+00 0. -1.
         21   -1    0    0  501  502 -0.00000000000E+00 -0.00000000000E+00 -0.51202253051E+02  0.51202253051E+02  0.00000000000E+00 0. -1.
      99926    2    1    2    0    0  0.35527136788E-14  0.00000000000E+00  0.95390467464E+03  0.10563091807E+04  0.45371241665E+03 0.  0.
      99925    2    3    3    0    0 -0.27552749179E+02  0.10854449962E+03  0.60857518636E+03  0.67232867869E+03  0.26290879092E+03 0.  0.
         25    1    3    3    0    0  0.27552749179E+02 -0.10854449962E+03  0.34532948828E+03  0.38398050206E+03  0.12509000000E+03 0.  0.
         25    1    4    4    0    0  0.47383731185E+01  0.47329938690E+02  0.37842718812E+03  0.40139409572E+03  0.12509000000E+03 0.  0.
         25    1    4    4    0    0 -0.32291122298E+02  0.61214560926E+02  0.23014799824E+03  0.27093458296E+03  0.12509000000E+03 0.  0.
<mgrwt>
<rscale>  2 0.45371242E+03</rscale>
<asrwt>0</asrwt>
<pdfrwt beam="1">  1       21 0.14780983E+00 0.45371242E+03</pdfrwt>
<pdfrwt beam="2">  1       21 0.75297437E-02 0.45371242E+03</pdfrwt>
<totfact> 0.37421378E+04</totfact>
</mgrwt>
</event>
<event>
 7    0  0.4709932E-002  0.4577401E+03  0.7546771E-02  0.1025439E+00
         21   -1    0    0  502  501  0.00000000000E+00  0.00000000000E+00  0.40349722746E+03  0.40349722746E+03  0.00000000000E+00 0. -1.
         21   -1    0    0  501  502 -0.00000000000E+00 -0.00000000000E+00 -0.12981874336E+03  0.12981874336E+03  0.00000000000E+00 0. -1.
      99926    2    1    2    0    0  0.00000000000E+00 -0.88817841970E-15  0.27367848410E+03  0.53331597082E+03  0.45774011412E+03 0.  0.
      99925    2    3    3    0    0 -0.32768731932E+02 -0.79826291677E+01  0.42789815882E+02  0.26856212784E+03  0.26297744391E+03 0.  0.
         25    1    4    4    0    0 -0.57041200328E+02 -0.78462449665E+01  0.21610721339E+02  0.13939079407E+03  0.12509000000E+03 0.  0.
         25    1    4    4    0    0  0.24272468396E+02 -0.13638420127E+00  0.21179094543E+02  0.12917133377E+03  0.12509000000E+03 0.  0.
         25    1    3    3    0    0  0.32768731932E+02  0.79826291677E+01  0.23088866822E+03  0.26475384298E+03  0.12509000000E+03 0.  0.
<mgrwt>
<rscale>  2 0.45774011E+03</rscale>
<asrwt>0</asrwt>
<pdfrwt beam="1">  1       21 0.59337827E-01 0.45774011E+03</pdfrwt>
<pdfrwt beam="2">  1       21 0.19090992E-01 0.45774011E+03</pdfrwt>
<totfact> 0.61633184E+04</totfact>
</mgrwt>
</event>
<event>
 7    0  0.4709932E-002  0.4503548E+03  0.7546771E-02  0.1027616E+00
         21   -1    0    0  502  501  0.00000000000E+00  0.00000000000E+00  0.49989738382E+03  0.49989738382E+03  0.00000000000E+00 0.  1.
         21   -1    0    0  501  502 -0.00000000000E+00 -0.00000000000E+00 -0.10143055660E+03  0.10143055660E+03  0.00000000000E+00 0.  1.
      99926    2    1    2    0    0  0.00000000000E+00  0.00000000000E+00  0.39846682723E+03  0.60132794042E+03  0.45035483736E+03 0.  0.
      99925    2    3    3    0    0 -0.60743558184E+02  0.67956999279E+02  0.33094061057E+03  0.43246340404E+03  0.26304937654E+03 0.  0.
         25    1    4    4    0    0 -0.26375016785E+02 -0.74609088132E+01  0.16208054310E+03  0.20656455945E+03  0.12509000000E+03 0.  0.
         25    1    3    3    0    0  0.60743558184E+02 -0.67956999279E+02  0.67526216662E+02  0.16886453639E+03  0.12509000000E+03 0.  0.
         25    1    4    4    0    0 -0.34368541400E+02  0.75417908092E+02  0.16886006747E+03  0.22589884458E+03  0.12509000000E+03 0.  0.
<mgrwt>
<rscale>  2 0.45035484E+03</rscale>
<asrwt>0</asrwt>
<pdfrwt beam="1">  1       21 0.73514320E-01 0.45035484E+03</pdfrwt>
<pdfrwt beam="2">  1       21 0.14916259E-01 0.45035484E+03</pdfrwt>
<totfact> 0.60797355E+04</totfact>
</mgrwt>
</event>
<event>
 7    0  0.4709932E-002  0.4506606E+03  0.7546771E-02  0.1027525E+00
         21   -1    0    0  502  501  0.00000000000E+00  0.00000000000E+00  0.28233729287E+03  0.28233729287E+03  0.00000000000E+00 0. -1.
         21   -1    0    0  501  502 -0.00000000000E+00 -0.00000000000E+00 -0.17983367646E+03  0.17983367646E+03  0.00000000000E+00 0. -1.
      99926    2    1    2    0    0  0.00000000000E+00  0.00000000000E+00  0.10250361641E+03  0.46217096934E+03  0.45066064119E+03 0.  0.
      99925    2    3    3    0    0 -0.56930097348E+01 -0.29035290468E+02  0.17316136091E+03  0.31548939786E+03  0.26205580474E+03 0.  0.
         25    1    4    4    0    0 -0.10736459471E+02  0.22957329302E+02  0.93979830249E+02  0.15849929692E+03  0.12509000000E+03 0.  0.
         25    1    3    3    0    0  0.56930097348E+01  0.29035290468E+02 -0.70657744502E+02  0.14668157148E+03  0.12509000000E+03 0.  0.
         25    1    4    4    0    0  0.50434497358E+01 -0.51992619770E+02  0.79181530664E+02  0.15699010094E+03  0.12509000000E+03 0.  0.
<mgrwt>
<rscale>  2 0.45066064E+03</rscale>
<asrwt>0</asrwt>
<pdfrwt beam="1">  1       21 0.41520191E-01 0.45066064E+03</pdfrwt>
<pdfrwt beam="2">  1       21 0.26446129E-01 0.45066064E+03</pdfrwt>
<totfact> 0.70415469E+04</totfact>
</mgrwt>
</event>
<event>
 7    0  0.4709932E-002  0.4574406E+03  0.7546771E-02  0.1025526E+00
         21   -1    0    0  502  501  0.00000000000E+00  0.00000000000E+00  0.26006303399E+03  0.26006303399E+03  0.00000000000E+00 0.  1.
         21   -1    0    0  501  502 -0.00000000000E+00 -0.00000000000E+00 -0.20115496536E+03  0.20115496536E+03  0.00000000000E+00 0.  1.
      99926    2    1    2    0    0  0.35527136788E-14  0.00000000000E+00  0.58908068627E+02  0.46121799934E+03  0.45744057797E+03 0.  0.
      99925    2    3    3    0    0 -0.29419038188E+02  0.43161358561E+02  0.14071782099E+03  0.30288693366E+03  0.26307908841E+03 0.  0.
         25    1    3    3    0    0  0.29419038188E+02 -0.43161358561E+02 -0.81809752358E+02  0.15833106569E+03  0.12509000000E+03 0.  0.
         25    1    4    4    0    0 -0.11621691373E+02  0.36362844865E+02  0.11415180127E+03  0.17359568552E+03  0.12509000000E+03 0.  0.
         25    1    4    4    0    0 -0.17797346816E+02  0.67985136960E+01  0.26566019715E+02  0.12929124814E+03  0.12509000000E+03 0.  0.
<mgrwt>
<rscale>  2 0.45744058E+03</rscale>
<asrwt>0</asrwt>
<pdfrwt beam="1">  1       21 0.38244564E-01 0.45744058E+03</pdfrwt>
<pdfrwt beam="2">  1       21 0.29581612E-01 0.45744058E+03</pdfrwt>
<totfact> 0.66782574E+04</totfact>
</mgrwt>
</event>
<event>
 7    0  0.4709932E-002  0.4436382E+03  0.7546771E-02  0.1029636E+00
         21   -1    0    0  502  501  0.00000000000E+00  0.00000000000E+00  0.48387123898E+03  0.48387123898E+03  0.00000000000E+00 0. -1.
         21   -1    0    0  501  502 -0.00000000000E+00 -0.00000000000E+00 -0.10168762368E+03  0.10168762368E+03  0.00000000000E+00 0. -1.
      99926    2    1    2    0    0  0.00000000000E+00 -0.71054273576E-14  0.38218361529E+03  0.58555886266E+03  0.44363821504E+03 0.  0.
      99925    2    3    3    0    0  0.63367808258E+02  0.40093612754E+02  0.33480364019E+03  0.43221171711E+03  0.26285074475E+03 0.  0.
         25    1    4    4    0    0  0.61964866465E+02  0.43620484241E+02  0.20584265680E+03  0.25250960137E+03  0.12509000000E+03 0.  0.
         25    1    3    3    0    0 -0.63367808258E+02 -0.40093612754E+02  0.47379975103E+02  0.15334714555E+03  0.12509000000E+03 0.  0.
         25    1    4    4    0    0  0.14029417928E+01 -0.35268714872E+01  0.12896098338E+03  0.17970211575E+03  0.12509000000E+03 0.  0.
<mgrwt>
<rscale>  2 0.44363822E+03</rscale>
<asrwt>0</asrwt>
<pdfrwt beam="1">  1       21 0.71157534E-01 0.44363822E+03</pdfrwt>
<pdfrwt beam="2">  1       21 0.14954063E-01 0.44363822E+03</pdfrwt>
<totfact> 0.65240592E+04</totfact>
</mgrwt>
</event>
<event>
 7    0  0.4709932E-002  0.4536393E+03  0.7546771E-02  0.1026642E+00
         21   -1    0    0  502  501  0.00000000000E+00  0.00000000000E+00  0.67541102145E+02  0.67541102145E+02  0.00000000000E+00 0. -1.
         21   -1    0    0  501  502 -0.00000000000E+00 -0.00000000000E+00 -0.76171622134E+03  0.76171622134E+03  0.00000000000E+00 0. -1.
      99926    2    1    2    0    0  0.00000000000E+00  0.00000000000E+00 -0.69417511919E+03  0.82925732348E+03  0.45363929773E+03 0.  0.
      99925    2    3    3    0    0  0.43167774526E+02 -0.10308881947E+03 -0.43520111319E+03  0.52070294360E+03  0.26313643818E+03 0.  0.
         25    1    4    4    0    0 -0.33341070754E+01 -0.16874011746E+02 -0.17424266174E+03  0.21518332141E+03  0.12509000000E+03 0.  0.
         25    1    3    3    0    0 -0.43167774526E+02  0.10308881947E+03 -0.25897400600E+03  0.30855437988E+03  0.12509000000E+03 0.  0.
         25    1    4    4    0    0  0.46501881601E+02 -0.86214807723E+02 -0.26095845145E+03  0.30551962219E+03  0.12509000000E+03 0.  0.
<mgrwt>
<rscale>  2 0.45363930E+03</rscale>
<asrwt>0</asrwt>
<pdfrwt beam="1">  1       21 0.99325155E-02 0.45363930E+03</pdfrwt>
<pdfrwt beam="2">  1       21 0.11201709E+00 0.45363930E+03</pdfrwt>
<totfact> 0.46880510E+04</totfact>
</mgrwt>
</event>
<event>
 7    0  0.4709932E-002  0.4491560E+03  0.7546771E-02  0.1027974E+00
         21   -1    0    0  502  501  0.00000000000E+00  0.00000000000E+00  0.54656385891E+02  0.54656385891E+02  0.00000000000E+00 0. -1.
         21   -1    0    0  501  502 -0.00000000000E+00 -0.00000000000E+00 -0.92276993921E+03  0.92276993921E+03  0.00000000000E+00 0. -1.
      99926    2    1    2    0    0 -0.71054273576E-14  0.88817841970E-15 -0.86811355332E+03  0.97742632510E+03  0.44915596350E+03 0.  0.
      99925    2    3    3    0    0  0.52910519955E+02  0.61921653791E+01 -0.75263431701E+03  0.79904239042E+03  0.26300657884E+03 0.  0.
         25    1    3    3    0    0 -0.52910519955E+02 -0.61921653791E+01 -0.11547923631E+03  0.17838393468E+03  0.12509000000E+03 0.  0.
         25    1    4    4    0    0  0.24822114276E+02 -0.30782309485E+02 -0.43956425156E+03  0.45872423882E+03  0.12509000000E+03 0.  0.
         25    1    4    4    0    0  0.28088405679E+02  0.36974474864E+02 -0.31307006546E+03  0.34031815160E+03  0.12509000000E+03 0.  0.
<mgrwt>
<rscale>  2 0.44915596E+03</rscale>
<asrwt>0</asrwt>
<pdfrwt beam="1">  1       21 0.80377038E-02 0.44915596E+03</pdfrwt>
<pdfrwt beam="2">  1       21 0.13570146E+00 0.44915596E+03</pdfrwt>
<totfact> 0.41932773E+04</totfact>
</mgrwt>
</event>
<event>
 7    0  0.4709932E-002  0.4572206E+03  0.7546771E-02  0.1025590E+00
         21   -1    0    0  502  501  0.00000000000E+00  0.00000000000E+00  0.15008103111E+03  0.15008103111E+03  0.00000000000E+00 0. -1.
         21   -1    0    0  501  502 -0.00000000000E+00 -0.00000000000E+00 -0.34822961593E+03  0.34822961593E+03  0.00000000000E+00 0. -1.
      99926    2    1    2    0    0  0.00000000000E+00  0.00000000000E+00 -0.19814858482E+03  0.49831064703E+03  0.45722055868E+03 0.  0.
      99925    2    3    3    0    0 -0.53679753833E+02  0.29108761906E+02 -0.23076509876E+03  0.35534148577E+03  0.26322272833E+03 0.  0.
         25    1    4    4    0    0 -0.47227323454E+02  0.41326691796E+02 -0.89369692421E+02  0.16605049099E+03  0.12509000000E+03 0.  0.
         25    1    4    4    0    0 -0.64524303792E+01 -0.12217929891E+02 -0.14139540634E+03  0.18929099477E+03  0.12509000000E+03 0.  0.
         25    1    3    3    0    0  0.53679753833E+02 -0.29108761906E+02  0.32616513942E+02  0.14296916127E+03  0.12509000000E+03 0.  0.
<mgrwt>
<rscale>  2 0.45722056E+03</rscale>
<asrwt>0</asrwt>
<pdfrwt beam="1">  1       21 0.22070740E-01 0.45722056E+03</pdfrwt>
<pdfrwt beam="2">  1       21 0.51210237E-01 0.45722056E+03</pdfrwt>
<totfact> 0.64249449E+04</totfact>
</mgrwt>
</event>
<event>
 7    0  0.4709932E-002  0.4602068E+03  0.7546771E-02  0.1024721E+00
         21   -1    0    0  502  501  0.00000000000E+00  0.00000000000E+00  0.13277456228E+03  0.13277456228E+03  0.00000000000E+00 0. -1.
         21   -1    0    0  501  502 -0.00000000000E+00 -0.00000000000E+00 -0.39877804547E+03  0.39877804547E+03  0.00000000000E+00 0. -1.
      99926    2    1    2    0    0 -0.14210854715E-13  0.00000000000E+00 -0.26600348319E+03  0.53155260775E+03  0.46020682495E+03 0.  0.
      99925    2    3    3    0    0 -0.96879985893E+02  0.57319265408E+02 -0.12625756855E+03  0.31281153110E+03  0.26313276215E+03 0.  0.
         25    1    4    4    0    0 -0.69789775375E+02  0.54709890001E+02 -0.97175352846E+02  0.18153330855E+03  0.12509000000E+03 0.  0.
         25    1    4    4    0    0 -0.27090210517E+02  0.26093754069E+01 -0.29082215705E+02  0.13127822255E+03  0.12509000000E+03 0.  0.
         25    1    3    3    0    0  0.96879985893E+02 -0.57319265408E+02 -0.13974591464E+03  0.21874107665E+03  0.12509000000E+03 0.  0.
<mgrwt>
<rscale>  2 0.46020682E+03</rscale>
<asrwt>0</asrwt>
<pdfrwt beam="1">  1       21 0.19525671E-01 0.46020682E+03</pdfrwt>
<pdfrwt beam="2">  1       21 0.58643830E-01 0.46020682E+03</pdfrwt>
<totfact> 0.60563172E+04</totfact>
</mgrwt>
</event>
<event>
 7    0  0.4709932E-002  0.4469252E+03  0.7546771E-02  0.1028643E+00
         21   -1    0    0  502  501  0.00000000000E+00  0.00000000000E+00  0.29761294059E+03  0.29761294059E+03  0.00000000000E+00 0. -1.
         21   -1    0    0  501  502 -0.00000000000E+00 -0.00000000000E+00 -0.16778680984E+03  0.16778680984E+03  0.00000000000E+00 0. -1.
      99926    2    1    2    0    0  0.00000000000E+00  0.00000000000E+00  0.12982613076E+03  0.46539975043E+03  0.44692516541E+03 0.  0.
      99925    2    3    3    0    0 -0.53061688092E+02  0.25774469793E+02  0.17326868028E+03  0.32043551607E+03  0.26301524358E+03 0.  0.
         25    1    3    3    0    0  0.53061688092E+02 -0.25774469793E+02 -0.43442549521E+02  0.14496423437E+03  0.12509000000E+03 0.  0.
         25    1    4    4    0    0 -0.81887224021E+01  0.41255345996E+02  0.11280777996E+03  0.17361498227E+03  0.12509000000E+03 0.  0.
         25    1    4    4    0    0 -0.44872965690E+02 -0.15480876204E+02  0.60460900318E+02  0.14682053380E+03  0.12509000000E+03 0.  0.
<mgrwt>
<rscale>  2 0.44692517E+03</rscale>
<asrwt>0</asrwt>
<pdfrwt beam="1">  1       21 0.43766609E-01 0.44692517E+03</pdfrwt>
<pdfrwt beam="2">  1       21 0.24674531E-01 0.44692517E+03</pdfrwt>
<totfact> 0.72301314E+04</totfact>
</mgrwt>
</event>
<event>
 7    0  0.4709932E-002  0.4551030E+03  0.7546771E-02  0.1026211E+00
         21   -1    0    0  502  501  0.00000000000E+00  0.00000000000E+00  0.95038230242E+02  0.95038230242E+02  0.00000000000E+00 0. -1.
         21   -1    0    0  501  502 -0.00000000000E+00 -0.00000000000E+00 -0.54482999218E+03  0.54482999218E+03  0.00000000000E+00 0. -1.
      99926    2    1    2    0    0  0.00000000000E+00  0.00000000000E+00 -0.44979176194E+03  0.63986822242E+03  0.45510296962E+03 0.  0.
      99925    2    3    3    0    0  0.94543809130E+02  0.46740434995E+02 -0.34092292676E+03  0.44334053612E+03  0.26305738704E+03 0.  0.
         25    1    4    4    0    0  0.56517396481E+02 -0.14940091219E+02 -0.18294705908E+03  0.22920418181E+03  0.12509000000E+03 0.  0.
         25    1    4    4    0    0  0.38026412650E+02  0.61680526214E+02 -0.15797586768E+03  0.21413635432E+03  0.12509000000E+03 0.  0.
         25    1    3    3    0    0 -0.94543809130E+02 -0.46740434995E+02 -0.10886883518E+03  0.19652768630E+03  0.12509000000E+03 0.  0.
<mgrwt>
<rscale>  2 0.45510297E+03</rscale>
<asrwt>0</asrwt>
<pdfrwt beam="1">  1       21 0.13976210E-01 0.45510297E+03</pdfrwt>
<pdfrwt beam="2">  1       21 0.80122058E-01 0.45510297E+03</pdfrwt>
<totfact> 0.56243269E+04</totfact>
</mgrwt>
</event>
<event>
 7    0  0.4709932E-002  0.4207715E+03  0.7546771E-02  0.1036816E+00
         21   -1    0    0  502  501  0.00000000000E+00  0.00000000000E+00  0.17870841659E+03  0.17870841659E+03  0.00000000000E+00 0. -1.
         21   -1    0    0  501  502 -0.00000000000E+00 -0.00000000000E+00 -0.24767811078E+03  0.24767811078E+03  0.00000000000E+00 0. -1.
      99926    2    1    2    0    0  0.35527136788E-14  0.00000000000E+00 -0.68969694188E+02  0.42638652737E+03  0.42077149619E+03 0.  0.
      99925    2    3    3    0    0 -0.25149539235E+02  0.50115731852E+02  0.83878939829E+01  0.26898325405E+03  0.26294019908E+03 0.  0.
         25    1    4    4    0    0  0.14624946432E+02  0.22600204623E+02  0.34115357967E+02  0.13242365369E+03  0.12509000000E+03 0.  0.
         25    1    4    4    0    0 -0.39774485667E+02  0.27515527230E+02 -0.25727463984E+02  0.13655960036E+03  0.12509000000E+03 0.  0.
         25    1    3    3    0    0  0.25149539235E+02 -0.50115731852E+02 -0.77357588171E+02  0.15740327332E+03  0.12509000000E+03 0.  0.
<mgrwt>
<rscale>  2 0.42077150E+03</rscale>
<asrwt>0</asrwt>
<pdfrwt beam="1">  1       21 0.26280650E-01 0.42077150E+03</pdfrwt>
<pdfrwt beam="2">  1       21 0.36423251E-01 0.42077150E+03</pdfrwt>
<totfact> 0.93805661E+04</totfact>
</mgrwt>
</event>
<event>
 7    0  0.4709932E-002  0.4523533E+03  0.7546771E-02  0.1027023E+00
         21   -1    0    0  502  501  0.00000000000E+00  0.00000000000E+00  0.93549751136E+02  0.93549751136E+02  0.00000000000E+00 0.  1.
         21   -1    0    0  501  502 -0.00000000000E+00 -0.00000000000E+00 -0.54683063868E+03  0.54683063868E+03  0.00000000000E+00 0.  1.
      99926    2    1    2    0    0 -0.71054273576E-14  0.14210854715E-13 -0.45328088754E+03  0.64038038981E+03  0.45235326974E+03 0.  0.
      99925    2    3    3    0    0 -0.49333738332E+02  0.97602711788E+02 -0.30990865943E+03  0.42091920651E+03  0.26300093941E+03 0.  0.
         25    1    4    4    0    0 -0.61593174584E+02  0.44028476247E+02 -0.18491419392E+03  0.23573924809E+03  0.12509000000E+03 0.  0.
         25    1    3    3    0    0  0.49333738332E+02 -0.97602711788E+02 -0.14337222811E+03  0.21946118331E+03  0.12509000000E+03 0.  0.
         25    1    4    4    0    0  0.12259436252E+02  0.53574235540E+02 -0.12499446551E+03  0.18517995842E+03  0.12509000000E+03 0.  0.
<mgrwt>
<rscale>  2 0.45235327E+03</rscale>
<asrwt>0</asrwt>
<pdfrwt beam="1">  1       21 0.13757316E-01 0.45235327E+03</pdfrwt>
<pdfrwt beam="2">  1       21 0.80416272E-01 0.45235327E+03</pdfrwt>
<totfact> 0.57449629E+04</totfact>
</mgrwt>
</event>
<event>
 7    0  0.4709932E-002  0.4547221E+03  0.7546771E-02  0.1026323E+00
         21   -1    0    0  502  501  0.00000000000E+00  0.00000000000E+00  0.20483422110E+03  0.20483422110E+03  0.00000000000E+00 0. -1.
         21   -1    0    0  501  502 -0.00000000000E+00 -0.00000000000E+00 -0.25236533665E+03  0.25236533665E+03  0.00000000000E+00 0. -1.
      99926    2    1    2    0    0  0.00000000000E+00  0.00000000000E+00 -0.47531115553E+02  0.45719955775E+03  0.45472214446E+03 0.  0.
      99925    2    3    3    0    0 -0.50879288245E+02 -0.72946956183E+02 -0.99701095462E+02  0.29509102839E+03  0.26311299134E+03 0.  0.
         25    1    4    4    0    0 -0.57085638673E+02 -0.10801983648E+02 -0.49459709834E+02  0.14652380008E+03  0.12509000000E+03 0.  0.
         25    1    4    4    0    0  0.62063504275E+01 -0.62144972534E+02 -0.50241385628E+02  0.14856722831E+03  0.12509000000E+03 0.  0.
         25    1    3    3    0    0  0.50879288245E+02  0.72946956183E+02  0.52169979909E+02  0.16210852936E+03  0.12509000000E+03 0.  0.
<mgrwt>
<rscale>  2 0.45472214E+03</rscale>
<asrwt>0</asrwt>
<pdfrwt beam="1">  1       21 0.30122680E-01 0.45472214E+03</pdfrwt>
<pdfrwt beam="2">  1       21 0.37112550E-01 0.45472214E+03</pdfrwt>
<totfact> 0.68536739E+04</totfact>
</mgrwt>
</event>
<event>
 7    0  0.4709932E-002  0.4566745E+03  0.7546771E-02  0.1025750E+00
         21   -1    0    0  502  501  0.00000000000E+00  0.00000000000E+00  0.60093167409E+03  0.60093167409E+03  0.00000000000E+00 0. -1.
         21   -1    0    0  501  502 -0.00000000000E+00 -0.00000000000E+00 -0.86761776081E+02  0.86761776081E+02  0.00000000000E+00 0. -1.
      99926    2    1    2    0    0  0.00000000000E+00  0.00000000000E+00  0.51416989801E+03  0.68769345017E+03  0.45667449829E+03 0.  0.
      99925    2    3    3    0    0 -0.11136686154E+03  0.20070407483E+02  0.29455792474E+03  0.41077771207E+03  0.26299916084E+03 0.  0.
         25    1    3    3    0    0  0.11136686154E+03 -0.20070407483E+02  0.21961197327E+03  0.27691573810E+03  0.12509000000E+03 0.  0.
         25    1    4    4    0    0 -0.80065951265E+02  0.37505430499E+02  0.18861915254E+03  0.24298540424E+03  0.12509000000E+03 0.  0.
         25    1    4    4    0    0 -0.31300910271E+02 -0.17435023017E+02  0.10593877220E+03  0.16779230783E+03  0.12509000000E+03 0.  0.
<mgrwt>
<rscale>  2 0.45667450E+03</rscale>
<asrwt>0</asrwt>
<pdfrwt beam="1">  1       21 0.88372303E-01 0.45667450E+03</pdfrwt>
<pdfrwt beam="2">  1       21 0.12759085E-01 0.45667450E+03</pdfrwt>
<totfact> 0.52875893E+04</totfact>
</mgrwt>
</event>
<event>
 7    0  0.4709932E-002  0.4492304E+03  0.7546771E-02  0.1027952E+00
         21   -1    0    0  502  501  0.00000000000E+00  0.00000000000E+00  0.70623400073E+03  0.70623400073E+03  0.00000000000E+00 0. -1.
         21   -1    0    0  501  502 -0.00000000000E+00 -0.00000000000E+00 -0.71438047110E+02  0.71438047110E+02  0.00000000000E+00 0. -1.
      99926    2    1    2    0    0  0.14210854715E-13  0.00000000000E+00  0.63479595362E+03  0.77767204784E+03  0.44923035434E+03 0.  0.
      99925    2    3    3    0    0 -0.89159163562E+02 -0.58742407810E+02  0.37760122464E+03  0.47239076175E+03  0.26300250952E+03 0.  0.
         25    1    4    4    0    0 -0.46089874798E+01 -0.17976567978E+02  0.18865244183E+03  0.22711594323E+03  0.12509000000E+03 0.  0.
         25    1    4    4    0    0 -0.84550176082E+02 -0.40765839832E+02  0.18894878282E+03  0.24527481852E+03  0.12509000000E+03 0.  0.
         25    1    3    3    0    0  0.89159163562E+02  0.58742407810E+02  0.25719472897E+03  0.30528128609E+03  0.12509000000E+03 0.  0.
<mgrwt>
<rscale>  2 0.44923035E+03</rscale>
<asrwt>0</asrwt>
<pdfrwt beam="1">  1       21 0.10385794E+00 0.44923035E+03</pdfrwt>
<pdfrwt beam="2">  1       21 0.10505596E-01 0.44923035E+03</pdfrwt>
<totfact> 0.51140846E+04</totfact>
</mgrwt>
</event>
<event>
 7    0  0.4709932E-002  0.4522903E+03  0.7546771E-02  0.1027041E+00
         21   -1    0    0  502  501  0.00000000000E+00  0.00000000000E+00  0.18157339809E+04  0.18157339809E+04  0.00000000000E+00 0.  1.
         21   -1    0    0  501  502 -0.00000000000E+00 -0.00000000000E+00 -0.28165820308E+02  0.28165820308E+02  0.00000000000E+00 0.  1.
      99926    2    1    2    0    0  0.00000000000E+00  0.00000000000E+00  0.17875681606E+04  0.18438998012E+04  0.45229033610E+03 0.  0.
      99925    2    3    3    0    0  0.51715064538E+02 -0.78943170631E+02  0.89291690440E+03  0.93562954936E+03  0.26305053389E+03 0.  0.
         25    1    4    4    0    0  0.33301149087E+02 -0.46244338394E+02  0.32470079694E+03  0.35259838485E+03  0.12509000000E+03 0.  0.
         25    1    3    3    0    0 -0.51715064538E+02  0.78943170631E+02  0.89465125616E+03  0.90827025181E+03  0.12509000000E+03 0.  0.
         25    1    4    4    0    0  0.18413915451E+02 -0.32698832237E+02  0.56821610746E+03  0.58303116451E+03  0.12509000000E+03 0.  0.
<mgrwt>
<rscale>  2 0.45229034E+03</rscale>
<asrwt>0</asrwt>
<pdfrwt beam="1">  1       21 0.26701962E+00 0.45229034E+03</pdfrwt>
<pdfrwt beam="2">  1       21 0.41420336E-02 0.45229034E+03</pdfrwt>
<totfact> 0.16780551E+04</totfact>
</mgrwt>
</event>
<event>
 7    0  0.4709932E-002  0.4512570E+03  0.7546771E-02  0.1027348E+00
         21   -1    0    0  502  501  0.00000000000E+00  0.00000000000E+00  0.16129921369E+03  0.16129921369E+03  0.00000000000E+00 0.  1.
         21   -1    0    0  501  502 -0.00000000000E+00 -0.00000000000E+00 -0.31561363489E+03  0.31561363489E+03  0.00000000000E+00 0.  1.
      99926    2    1    2    0    0 -0.14210854715E-13  0.17763568394E-14 -0.15431442120E+03  0.47691284858E+03  0.45125704930E+03 0.  0.
      99925    2    3    3    0    0  0.10854316616E+03  0.14762381551E+02 -0.10338154657E+03  0.30301284096E+03  0.26292487670E+03 0.  0.
         25    1    4    4    0    0  0.16277817837E+02  0.26454699550E+02 -0.50077069607E+02  0.13827523091E+03  0.12509000000E+03 0.  0.
         25    1    4    4    0    0  0.92265348328E+02 -0.11692317999E+02 -0.53304476960E+02  0.16473761005E+03  0.12509000000E+03 0.  0.
         25    1    3    3    0    0 -0.10854316616E+03 -0.14762381551E+02 -0.50932874633E+02  0.17390000762E+03  0.12509000000E+03 0.  0.
<mgrwt>
<rscale>  2 0.45125705E+03</rscale>
<asrwt>0</asrwt>
<pdfrwt beam="1">  1       21 0.23720473E-01 0.45125705E+03</pdfrwt>
<pdfrwt beam="2">  1       21 0.46413769E-01 0.45125705E+03</pdfrwt>
<totfact> 0.68951297E+04</totfact>
</mgrwt>
</event>
<event>
 7    0  0.4709932E-002  0.4529939E+03  0.7546771E-02  0.1026833E+00
         21   -1    0    0  502  501  0.00000000000E+00  0.00000000000E+00  0.89739567009E+03  0.89739567009E+03  0.00000000000E+00 0. -1.
         21   -1    0    0  501  502 -0.00000000000E+00 -0.00000000000E+00 -0.57166393738E+02  0.57166393738E+02  0.00000000000E+00 0. -1.
      99926    2    1    2    0    0  0.00000000000E+00  0.00000000000E+00  0.84022927635E+03  0.95456206382E+03  0.45299392585E+03 0.  0.
      99925    2    3    3    0    0 -0.26594386456E+02  0.98100378624E+02  0.43392748885E+03  0.51745841902E+03  0.26294334781E+03 0.  0.
         25    1    4    4    0    0  0.16792412773E+02  0.21186254785E+02  0.21715001891E+03  0.25205650424E+03  0.12509000000E+03 0.  0.
         25    1    4    4    0    0 -0.43386799228E+02  0.76914123840E+02  0.21677746994E+03  0.26540191478E+03  0.12509000000E+03 0.  0.
         25    1    3    3    0    0  0.26594386456E+02 -0.98100378624E+02  0.40630178750E+03  0.43710364480E+03  0.12509000000E+03 0.  0.
<mgrwt>
<rscale>  2 0.45299393E+03</rscale>
<asrwt>0</asrwt>
<pdfrwt beam="1">  1       21 0.13196994E+00 0.45299393E+03</pdfrwt>
<pdfrwt beam="2">  1       21 0.84068232E-02 0.45299393E+03</pdfrwt>
<totfact> 0.41605447E+04</totfact>
</mgrwt>
</event>
<event>
 7    0  0.4709932E-002  0.4670302E+03  0.7546771E-02  0.1022762E+00
         21   -1    0    0  502  501  0.00000000000E+00  0.00000000000E+00  0.15275705865E+03  0.15275705865E+03  0.00000000000E+00 0.  1.
         21   -1    0    0  501  502 -0.00000000000E+00 -0.00000000000E+00 -0.35696747853E+03  0.35696747853E+03  0.00000000000E+00 0.  1.
      99926    2    1    2    0    0  0.00000000000E+00  0.00000000000E+00 -0.20421041988E+03  0.50972453719E+03  0.46703020055E+03 0.  0.
      99925    2    3    3    0    0 -0.10756398270E+02 -0.10962199066E+03 -0.64526176226E+02  0.29225758116E+03  0.26290337652E+03 0.  0.
         25    1    3    3    0    0  0.10756398270E+02  0.10962199066E+03 -0.13968424365E+03  0.21746695603E+03  0.12509000000E+03 0.  0.
         25    1    4    4    0    0 -0.27349097903E+02 -0.30180996693E+02 -0.55782429707E+02  0.14289175372E+03  0.12509000000E+03 0.  0.
         25    1    4    4    0    0  0.16592699633E+02 -0.79440993964E+02 -0.87437465188E+01  0.14936582744E+03  0.12509000000E+03 0.  0.
<mgrwt>
<rscale>  2 0.46703020E+03</rscale>
<asrwt>0</asrwt>
<pdfrwt beam="1">  1       21 0.22464274E-01 0.46703020E+03</pdfrwt>
<pdfrwt beam="2">  1       21 0.52495216E-01 0.46703020E+03</pdfrwt>
<totfact> 0.58776400E+04</totfact>
</mgrwt>
</event>
<event>
 7    0  0.4709932E-002  0.4586243E+03  0.7546771E-02  0.1025181E+00
         21   -1    0    0  502  501  0.00000000000E+00  0.00000000000E+00  0.10065005544E+04  0.10065005544E+04  0.00000000000E+00 0.  1.
         21   -1    0    0  501  502 -0.00000000000E+00 -0.00000000000E+00 -0.52244440518E+02  0.52244440518E+02  0.00000000000E+00 0.  1.
      99926    2    1    2    0    0  0.00000000000E+00  0.00000000000E+00  0.95425611390E+03  0.10587449949E+04  0.45862428347E+03 0.  0.
      99925    2    3    3    0    0  0.70572488501E+02  0.32998607667E+02  0.39875335812E+03  0.48402749562E+03  0.26307601879E+03 0.  0.
         25    1    3    3    0    0 -0.70572488501E+02 -0.32998607667E+02  0.55550275577E+03  0.57471749931E+03  0.12509000000E+03 0.  0.
         25    1    4    4    0    0  0.43657067007E+02 -0.22734276463E+02  0.18292939393E+03  0.22700981937E+03  0.12509000000E+03 0.  0.
         25    1    4    4    0    0  0.26915421493E+02  0.55732884129E+02  0.21582396419E+03  0.25701767625E+03  0.12509000000E+03 0.  0.
<mgrwt>
<rscale>  2 0.45862428E+03</rscale>
<asrwt>0</asrwt>
<pdfrwt beam="1">  1       21 0.14801478E+00 0.45862428E+03</pdfrwt>
<pdfrwt beam="2">  1       21 0.76830066E-02 0.45862428E+03</pdfrwt>
<totfact> 0.35930986E+04</totfact>
</mgrwt>
</event>
<event>
 7    0  0.4709932E-002  0.4683622E+03  0.7546771E-02  0.1022383E+00
         21   -1    0    0  502  501  0.00000000000E+00  0.00000000000E+00  0.74940296283E+03  0.74940296283E+03  0.00000000000E+00 0. -1.
         21   -1    0    0  501  502 -0.00000000000E+00 -0.00000000000E+00 -0.73179296277E+02  0.73179296277E+02  0.00000000000E+00 0. -1.
      99926    2    1    2    0    0  0.00000000000E+00  0.00000000000E+00  0.67622366655E+03  0.82258225911E+03  0.46836217374E+03 0.  0.
      99925    2    3    3    0    0  0.99068627648E+02 -0.55422744646E+02  0.51377471484E+03  0.58822474670E+03  0.26297836682E+03 0.  0.
         25    1    4    4    0    0  0.69309603152E+02 -0.65590697786E+02  0.27389654671E+03  0.31586830661E+03  0.12509000000E+03 0.  0.
         25    1    4    4    0    0  0.29759024495E+02  0.10167953140E+02  0.23987816814E+03  0.27235644009E+03  0.12509000000E+03 0.  0.
         25    1    3    3    0    0 -0.99068627648E+02  0.55422744646E+02  0.16244895171E+03  0.23435751240E+03  0.12509000000E+03 0.  0.
<mgrwt>
<rscale>  2 0.46836217E+03</rscale>
<asrwt>0</asrwt>
<pdfrwt beam="1">  1       21 0.11020631E+00 0.46836217E+03</pdfrwt>
<pdfrwt beam="2">  1       21 0.10761662E-01 0.46836217E+03</pdfrwt>
<totfact> 0.42101028E+04</totfact>
</mgrwt>
</event>
<event>
 7    0  0.4709932E-002  0.4500612E+03  0.7546771E-02  0.1027704E+00
         21   -1    0    0  502  501  0.00000000000E+00  0.00000000000E+00  0.10525551315E+03  0.10525551315E+03  0.00000000000E+00 0. -1.
         21   -1    0    0  501  502 -0.00000000000E+00 -0.00000000000E+00 -0.48110325533E+03  0.48110325533E+03  0.00000000000E+00 0. -1.
      99926    2    1    2    0    0  0.00000000000E+00 -0.44408920985E-15 -0.37584774218E+03  0.58635876848E+03  0.45006119592E+03 0.  0.
      99925    2    3    3    0    0  0.65326312213E+02  0.19371785167E+01 -0.35064533087E+03  0.44299228229E+03  0.26271416858E+03 0.  0.
         25    1    3    3    0    0 -0.65326312213E+02 -0.19371785167E+01 -0.25202411304E+02  0.14336648619E+03  0.12509000000E+03 0.  0.
         25    1    4    4    0    0  0.28824403412E+02 -0.34855060960E+02 -0.20262504037E+03  0.24238427463E+03  0.12509000000E+03 0.  0.
         25    1    4    4    0    0  0.36501908801E+02  0.36792239477E+02 -0.14802029051E+03  0.20060800765E+03  0.12509000000E+03 0.  0.
<mgrwt>
<rscale>  2 0.45006120E+03</rscale>
<asrwt>0</asrwt>
<pdfrwt beam="1">  1       21 0.15478752E-01 0.45006120E+03</pdfrwt>
<pdfrwt beam="2">  1       21 0.70750480E-01 0.45006120E+03</pdfrwt>
<totfact> 0.61907401E+04</totfact>
</mgrwt>
</event>
<event>
 7    0  0.4709932E-002  0.4466650E+03  0.7546771E-02  0.1028721E+00
         21   -1    0    0  502  501  0.00000000000E+00  0.00000000000E+00  0.11241605951E+03  0.11241605951E+03  0.00000000000E+00 0.  1.
         21   -1    0    0  501  502 -0.00000000000E+00 -0.00000000000E+00 -0.44368571268E+03  0.44368571268E+03  0.00000000000E+00 0.  1.
      99926    2    1    2    0    0  0.00000000000E+00  0.35527136788E-14 -0.33126965317E+03  0.55610177219E+03  0.44666497279E+03 0.  0.
      99925    2    3    3    0    0  0.28568267083E+02  0.92576366849E+01 -0.84529208462E+02  0.27783893803E+03  0.26295900570E+03 0.  0.
         25    1    3    3    0    0 -0.28568267083E+02 -0.92576366849E+01 -0.24674044470E+03  0.27826283416E+03  0.12509000000E+03 0.  0.
         25    1    4    4    0    0  0.47065398557E+02 -0.18376274965E+02 -0.36255606883E+02  0.13969544142E+03  0.12509000000E+03 0.  0.
         25    1    4    4    0    0 -0.18497131474E+02  0.27633911650E+02 -0.48273601579E+02  0.13814349661E+03  0.12509000000E+03 0.  0.
<mgrwt>
<rscale>  2 0.44666497E+03</rscale>
<asrwt>0</asrwt>
<pdfrwt beam="1">  1       21 0.16531773E-01 0.44666497E+03</pdfrwt>
<pdfrwt beam="2">  1       21 0.65247899E-01 0.44666497E+03</pdfrwt>
<totfact> 0.65690409E+04</totfact>
</mgrwt>
</event>
<event>
 7    0  0.4709932E-002  0.4497386E+03  0.7546771E-02  0.1027800E+00
         21   -1    0    0  502  501  0.00000000000E+00  0.00000000000E+00  0.95558776167E+02  0.95558776167E+02  0.00000000000E+00 0. -1.
         21   -1    0    0  501  502 -0.00000000000E+00 -0.00000000000E+00 -0.52916328912E+03  0.52916328912E+03  0.00000000000E+00 0. -1.
      99926    2    1    2    0    0  0.00000000000E+00 -0.14210854715E-13 -0.43360451295E+03  0.62472206528E+03  0.44973857429E+03 0.  0.
      99925    2    3    3    0    0 -0.10040203245E+02 -0.83573566058E+02 -0.36812315916E+03  0.46034243631E+03  0.26327770840E+03 0.  0.
         25    1    4    4    0    0 -0.13673417041E+01 -0.34118635369E+02 -0.24772977169E+03  0.27961312341E+03  0.12509000000E+03 0.  0.
         25    1    4    4    0    0 -0.86728615412E+01 -0.49454930689E+02 -0.12039338746E+03  0.18072931290E+03  0.12509000000E+03 0.  0.
         25    1    3    3    0    0  0.10040203245E+02  0.83573566058E+02 -0.65481353794E+02  0.16437962897E+03  0.12509000000E+03 0.  0.
<mgrwt>
<rscale>  2 0.44973857E+03</rscale>
<asrwt>0</asrwt>
<pdfrwt beam="1">  1       21 0.14052761E-01 0.44973857E+03</pdfrwt>
<pdfrwt beam="2">  1       21 0.77818130E-01 0.44973857E+03</pdfrwt>
<totfact> 0.59620043E+04</totfact>
</mgrwt>
</event>
<event>
 7    0  0.4709932E-002  0.4552914E+03  0.7546771E-02  0.1026156E+00
         21   -1    0    0  502  501  0.00000000000E+00  0.00000000000E+00  0.46473995534E+03  0.46473995534E+03  0.00000000000E+00 0.  1.
         21   -1    0    0  501  502 -0.00000000000E+00 -0.00000000000E+00 -0.11150872866E+03  0.11150872866E+03  0.00000000000E+00 0.  1.
      99926    2    1    2    0    0  0.00000000000E+00  0.00000000000E+00  0.35323122668E+03  0.57624868400E+03  0.45529138615E+03 0.  0.
      99925    2    3    3    0    0 -0.55505294281E+02 -0.92472613035E+02  0.26678069224E+03  0.38982651563E+03  0.26298432021E+03 0.  0.
         25    1    4    4    0    0 -0.69002719130E+02 -0.52337425210E+02  0.13984351364E+03  0.20665018202E+03  0.12509000000E+03 0.  0.
         25    1    3    3    0    0  0.55505294281E+02  0.92472613035E+02  0.86450534437E+02  0.18642216837E+03  0.12509000000E+03 0.  0.
         25    1    4    4    0    0  0.13497424849E+02 -0.40135187825E+02  0.12693717861E+03  0.18317633360E+03  0.12509000000E+03 0.  0.
<mgrwt>
<rscale>  2 0.45529139E+03</rscale>
<asrwt>0</asrwt>
<pdfrwt beam="1">  1       21 0.68344110E-01 0.45529139E+03</pdfrwt>
<pdfrwt beam="2">  1       21 0.16398343E-01 0.45529139E+03</pdfrwt>
<totfact> 0.60026160E+04</totfact>
</mgrwt>
</event>
<event>
 7    0  0.4709932E-002  0.4527636E+03  0.7546771E-02  0.1026901E+00
         21   -1    0    0  502  501  0.00000000000E+00  0.00000000000E+00  0.61774487820E+03  0.61774487820E+03  0.00000000000E+00 0.  1.
         21   -1    0    0  501  502 -0.00000000000E+00 -0.00000000000E+00 -0.82960979877E+02  0.82960979877E+02  0.00000000000E+00 0.  1.
      99926    2    1    2    0    0  0.00000000000E+00  0.00000000000E+00  0.53478389833E+03  0.70070585808E+03  0.45276360459E+03 0.  0.
      99925    2    3    3    0    0 -0.50751442373E+01  0.16658549013E+02  0.50687871486E+03  0.57136339905E+03  0.26310993491E+03 0.  0.
         25    1    4    4    0    0 -0.43818384014E+01  0.65079260669E+01  0.34137004927E+03  0.36365171834E+03  0.12509000000E+03 0.  0.
         25    1    4    4    0    0 -0.69330583590E+00  0.10150622946E+02  0.16550866559E+03  0.20771168071E+03  0.12509000000E+03 0.  0.
         25    1    3    3    0    0  0.50751442373E+01 -0.16658549013E+02  0.27905183466E+02  0.12934245903E+03  0.12509000000E+03 0.  0.
<mgrwt>
<rscale>  2 0.45276360E+03</rscale>
<asrwt>0</asrwt>
<pdfrwt beam="1">  1       21 0.90844832E-01 0.45276360E+03</pdfrwt>
<pdfrwt beam="2">  1       21 0.12200144E-01 0.45276360E+03</pdfrwt>
<totfact> 0.53805363E+04</totfact>
</mgrwt>
</event>
<event>
 7    0  0.4709932E-002  0.4495619E+03  0.7546771E-02  0.1027853E+00
         21   -1    0    0  502  501  0.00000000000E+00  0.00000000000E+00  0.43042080753E+03  0.43042080753E+03  0.00000000000E+00 0. -1.
         21   -1    0    0  501  502 -0.00000000000E+00 -0.00000000000E+00 -0.11738854056E+03  0.11738854056E+03  0.00000000000E+00 0. -1.
      99926    2    1    2    0    0  0.00000000000E+00  0.71054273576E-14  0.31303226697E+03  0.54780934809E+03  0.44956187748E+03 0.  0.
      99925    2    3    3    0    0  0.77336834269E+02 -0.25937620998E+02  0.11207399376E+03  0.29743865933E+03  0.26316426404E+03 0.  0.
         25    1    4    4    0    0  0.68108973070E+02  0.13130289165E+02  0.71715928590E+02  0.16000599745E+03  0.12509000000E+03 0.  0.
         25    1    3    3    0    0 -0.77336834269E+02  0.25937620998E+02  0.20095827321E+03  0.25037068876E+03  0.12509000000E+03 0.  0.
         25    1    4    4    0    0  0.92278611994E+01 -0.39067910163E+02  0.40358065171E+02  0.13743266188E+03  0.12509000000E+03 0.  0.
<mgrwt>
<rscale>  2 0.44956188E+03</rscale>
<asrwt>0</asrwt>
<pdfrwt beam="1">  1       21 0.63297177E-01 0.44956188E+03</pdfrwt>
<pdfrwt beam="2">  1       21 0.17263021E-01 0.44956188E+03</pdfrwt>
<totfact> 0.64753037E+04</totfact>
</mgrwt>
</event>
<event>
 7    0  0.4709932E-002  0.4549896E+03  0.7546771E-02  0.1026244E+00
         21   -1    0    0  502  501  0.00000000000E+00  0.00000000000E+00  0.89140897507E+02  0.89140897507E+02  0.00000000000E+00 0.  1.
         21   -1    0    0  501  502 -0.00000000000E+00 -0.00000000000E+00 -0.58058522641E+03  0.58058522641E+03  0.00000000000E+00 0.  1.
      99926    2    1    2    0    0  0.00000000000E+00  0.00000000000E+00 -0.49144432891E+03  0.66972612392E+03  0.45498961818E+03 0.  0.
      99925    2    3    3    0    0  0.19793403110E+02 -0.11179761413E+02 -0.14625084048E+03  0.30186362457E+03  0.26308852812E+03 0.  0.
         25    1    4    4    0    0 -0.66574536484E+01 -0.17687808399E+01 -0.11465522393E+03  0.16982573053E+03  0.12509000000E+03 0.  0.
         25    1    3    3    0    0 -0.19793403110E+02  0.11179761413E+02 -0.34519348843E+03  0.36786249935E+03  0.12509000000E+03 0.  0.
         25    1    4    4    0    0  0.26450856759E+02 -0.94109805727E+01 -0.31595616542E+02  0.13203789404E+03  0.12509000000E+03 0.  0.
<mgrwt>
<rscale>  2 0.45498962E+03</rscale>
<asrwt>0</asrwt>
<pdfrwt beam="1">  1       21 0.13108955E-01 0.45498962E+03</pdfrwt>
<pdfrwt beam="2">  1       21 0.85380183E-01 0.45498962E+03</pdfrwt>
<totfact> 0.54582178E+04</totfact>
</mgrwt>
</event>
<event>
 7    0  0.4709932E-002  0.4480861E+03  0.7546771E-02  0.1028294E+00
         21   -1    0    0  502  501  0.00000000000E+00  0.00000000000E+00  0.11709316829E+03  0.11709316829E+03  0.00000000000E+00 0. -1.
         21   -1    0    0  501  502 -0.00000000000E+00 -0.00000000000E+00 -0.42867811395E+03  0.42867811395E+03  0.00000000000E+00 0. -1.
      99926    2    1    2    0    0  0.00000000000E+00  0.00000000000E+00 -0.31158494566E+03  0.54577128224E+03  0.44808605664E+03 0.  0.
      99925    2    3    3    0    0 -0.33994702156E+02 -0.76984235606E+02 -0.27689678360E+03  0.39106837666E+03  0.26302173704E+03 0.  0.
         25    1    3    3    0    0  0.33994702156E+02  0.76984235606E+02 -0.34688162063E+02  0.15470290558E+03  0.12509000000E+03 0.  0.
         25    1    4    4    0    0 -0.33872036413E+02 -0.76452003983E+02 -0.16397687446E+03  0.22254920180E+03  0.12509000000E+03 0.  0.
         25    1    4    4    0    0 -0.12266574256E+00 -0.53223162302E+00 -0.11291990914E+03  0.16851917487E+03  0.12509000000E+03 0.  0.
<mgrwt>
<rscale>  2 0.44808606E+03</rscale>
<asrwt>0</asrwt>
<pdfrwt beam="1">  1       21 0.17219584E-01 0.44808606E+03</pdfrwt>
<pdfrwt beam="2">  1       21 0.63040899E-01 0.44808606E+03</pdfrwt>
<totfact> 0.65666203E+04</totfact>
</mgrwt>
</event>
<event>
 7    0  0.4709932E-002  0.4412317E+03  0.7546771E-02  0.1030370E+00
         21   -1    0    0  502  501  0.00000000000E+00  0.00000000000E+00  0.60156576782E+03  0.60156576782E+03  0.00000000000E+00 0. -1.
         21   -1    0    0  501  502 -0.00000000000E+00 -0.00000000000E+00 -0.80907768438E+02  0.80907768438E+02  0.00000000000E+00 0. -1.
      99926    2    1    2    0    0  0.00000000000E+00 -0.14210854715E-13  0.52065799938E+03  0.68247353625E+03  0.44123165726E+03 0.  0.
      99925    2    3    3    0    0 -0.35100093929E+02 -0.93293921494E+02  0.33801600533E+03  0.43969508072E+03  0.26294708929E+03 0.  0.
         25    1    4    4    0    0 -0.40747465585E+02 -0.16317125714E+02  0.13662195316E+03  0.19036719971E+03  0.12509000000E+03 0.  0.
         25    1    3    3    0    0  0.35100093929E+02  0.93293921494E+02  0.18264199404E+03  0.24277845553E+03  0.12509000000E+03 0.  0.
         25    1    4    4    0    0  0.56473716551E+01 -0.76976795780E+02  0.20139405218E+03  0.24932788101E+03  0.12509000000E+03 0.  0.
<mgrwt>
<rscale>  2 0.44123166E+03</rscale>
<asrwt>0</asrwt>
<pdfrwt beam="1">  1       21 0.88465552E-01 0.44123166E+03</pdfrwt>
<pdfrwt beam="2">  1       21 0.11898202E-01 0.44123166E+03</pdfrwt>
<totfact> 0.60122372E+04</totfact>
</mgrwt>
</event>
<event>
 7    0  0.4709932E-002  0.4509061E+03  0.7546771E-02  0.1027452E+00
         21   -1    0    0  502  501  0.00000000000E+00  0.00000000000E+00  0.65845633196E+03  0.65845633196E+03  0.00000000000E+00 0. -1.
         21   -1    0    0  501  502 -0.00000000000E+00 -0.00000000000E+00 -0.77194307933E+02  0.77194307933E+02  0.00000000000E+00 0. -1.
      99926    2    1    2    0    0 -0.35527136788E-14  0.14210854715E-13  0.58126202403E+03  0.73565063989E+03  0.45090611373E+03 0.  0.
      99925    2    3    3    0    0  0.26568887520E+02  0.10307407801E+03  0.32561017403E+03  0.43178299132E+03  0.26283910444E+03 0.  0.
         25    1    3    3    0    0 -0.26568887520E+02 -0.10307407801E+03  0.25565184999E+03  0.30386764857E+03  0.12509000000E+03 0.  0.
         25    1    4    4    0    0  0.43573091100E+02  0.81316754564E+02  0.18222611285E+03  0.23950969322E+03  0.12509000000E+03 0.  0.
         25    1    4    4    0    0 -0.17004203580E+02  0.21757323446E+02  0.14338406118E+03  0.19227329810E+03  0.12509000000E+03 0.  0.
<mgrwt>
<rscale>  2 0.45090611E+03</rscale>
<asrwt>0</asrwt>
<pdfrwt beam="1">  1       21 0.96831811E-01 0.45090611E+03</pdfrwt>
<pdfrwt beam="2">  1       21 0.11352104E-01 0.45090611E+03</pdfrwt>
<totfact> 0.52685185E+04</totfact>
</mgrwt>
</event>
<event>
 7    0  0.4709932E-002  0.4587682E+03  0.7546771E-02  0.1025139E+00
         21   -1    0    0  502  501  0.00000000000E+00  0.00000000000E+00  0.49533957741E+02  0.49533957741E+02  0.00000000000E+00 0. -1.
         21   -1    0    0  501  502 -0.00000000000E+00 -0.00000000000E+00 -0.10622423959E+04  0.10622423959E+04  0.00000000000E+00 0. -1.
      99926    2    1    2    0    0  0.00000000000E+00  0.00000000000E+00 -0.10127084382E+04  0.11117763537E+04  0.45876822013E+03 0.  0.
      99925    2    3    3    0    0 -0.88844915981E+02 -0.68874335262E+02 -0.71065119718E+03  0.76605511033E+03  0.26301751814E+03 0.  0.
         25    1    4    4    0    0 -0.69150365859E+02 -0.17295551669E+02 -0.29059482520E+03  0.32430505661E+03  0.12509000000E+03 0.  0.
         25    1    4    4    0    0 -0.19694550122E+02 -0.51578783592E+02 -0.42005637198E+03  0.44175005372E+03  0.12509000000E+03 0.  0.
         25    1    3    3    0    0  0.88844915981E+02  0.68874335262E+02 -0.30205724100E+03  0.34572124333E+03  0.12509000000E+03 0.  0.
<mgrwt>
<rscale>  2 0.45876822E+03</rscale>
<asrwt>0</asrwt>
<pdfrwt beam="1">  1       21 0.72844060E-02 0.45876822E+03</pdfrwt>
<pdfrwt beam="2">  1       21 0.15621211E+00 0.45876822E+03</pdfrwt>
<totfact> 0.34072304E+04</totfact>
</mgrwt>
</event>
<event>
 7    0  0.4709932E-002  0.4460834E+03  0.7546771E-02  0.1028896E+00
         21   -1    0    0  502  501  0.00000000000E+00  0.00000000000E+00  0.50062487488E+03  0.50062487488E+03  0.00000000000E+00 0. -1.
         21   -1    0    0  501  502 -0.00000000000E+00 -0.00000000000E+00 -0.99371011004E+02  0.99371011004E+02  0.00000000000E+00 0. -1.
      99926    2    1    2    0    0  0.00000000000E+00 -0.19984014443E-14  0.40125386388E+03  0.59999588589E+03  0.44608340005E+03 0.  0.
      99925    2    3    3    0    0  0.54032866170E+02  0.95804400737E+00  0.37500160530E+03  0.46122572463E+03  0.26302565770E+03 0.  0.
         25    1    4    4    0    0  0.24838463158E+02 -0.33745668450E+02  0.14938699763E+03  0.19929802446E+03  0.12509000000E+03 0.  0.
         25    1    4    4    0    0  0.29194403011E+02  0.34703712458E+02  0.22561460766E+03  0.26192770017E+03  0.12509000000E+03 0.  0.
         25    1    3    3    0    0 -0.54032866170E+02 -0.95804400737E+00  0.26252258583E+02  0.13877016126E+03  0.12509000000E+03 0.  0.
<mgrwt>
<rscale>  2 0.44608340E+03</rscale>
<asrwt>0</asrwt>
<pdfrwt beam="1">  1       21 0.73621304E-01 0.44608340E+03</pdfrwt>
<pdfrwt beam="2">  1       21 0.14613384E-01 0.44608340E+03</pdfrwt>
<totfact> 0.63000965E+04</totfact>
</mgrwt>
</event>
<event>
 7    0  0.4709932E-002  0.4621429E+03  0.7546771E-02  0.1024162E+00
         21   -1    0    0  502  501  0.00000000000E+00  0.00000000000E+00  0.12971313227E+03  0.12971313227E+03  0.00000000000E+00 0. -1.
         21   -1    0    0  501  502 -0.00000000000E+00 -0.00000000000E+00 -0.41163148884E+03  0.41163148884E+03  0.00000000000E+00 0. -1.
      99926    2    1    2    0    0 -0.14210854715E-13  0.00000000000E+00 -0.28191835657E+03  0.54134462111E+03  0.46214287729E+03 0.  0.
      99925    2    3    3    0    0  0.10570718991E+03 -0.54200391187E+02 -0.15842170977E+03  0.32918755129E+03  0.26297397854E+03 0.  0.
         25    1    4    4    0    0  0.84713507035E+02 -0.22402345607E+02 -0.11575724145E+03  0.19163895849E+03  0.12509000000E+03 0.  0.
         25    1    3    3    0    0 -0.10570718991E+03  0.54200391187E+02 -0.12349664680E+03  0.21215706982E+03  0.12509000000E+03 0.  0.
         25    1    4    4    0    0  0.20993682874E+02 -0.31798045580E+02 -0.42664468321E+02  0.13754859280E+03  0.12509000000E+03 0.  0.
<mgrwt>
<rscale>  2 0.46214288E+03</rscale>
<asrwt>0</asrwt>
<pdfrwt beam="1">  1       21 0.19075461E-01 0.46214288E+03</pdfrwt>
<pdfrwt beam="2">  1       21 0.60534042E-01 0.46214288E+03</pdfrwt>
<totfact> 0.59032042E+04</totfact>
</mgrwt>
</event>
<event>
 7    0  0.4709932E-002  0.4535494E+03  0.7546771E-02  0.1026669E+00
         21   -1    0    0  502  501  0.00000000000E+00  0.00000000000E+00  0.11040895376E+04  0.11040895376E+04  0.00000000000E+00 0.  1.
         21   -1    0    0  501  502 -0.00000000000E+00 -0.00000000000E+00 -0.46578440133E+02  0.46578440133E+02  0.00000000000E+00 0.  1.
      99926    2    1    2    0    0  0.00000000000E+00  0.71054273576E-14  0.10575110974E+04  0.11506679777E+04  0.45354941705E+03 0.  0.
      99925    2    3    3    0    0  0.88215308175E+02  0.50503231702E+02  0.54926955406E+03  0.61747993252E+03  0.26315757075E+03 0.  0.
         25    1    4    4    0    0  0.60489978868E+02  0.43216981090E+02  0.21684268656E+03  0.26114173127E+03  0.12509000000E+03 0.  0.
         25    1    3    3    0    0 -0.88215308175E+02 -0.50503231702E+02  0.50824154339E+03  0.53318804519E+03  0.12509000000E+03 0.  0.
         25    1    4    4    0    0  0.27725329307E+02  0.72862506116E+01  0.33242686750E+03  0.35633820125E+03  0.12509000000E+03 0.  0.
<mgrwt>
<rscale>  2 0.45354942E+03</rscale>
<asrwt>0</asrwt>
<pdfrwt beam="1">  1       21 0.16236609E+00 0.45354942E+03</pdfrwt>
<pdfrwt beam="2">  1       21 0.68497713E-02 0.45354942E+03</pdfrwt>
<totfact> 0.34144456E+04</totfact>
</mgrwt>
</event>
<event>
 7    0  0.4709932E-002  0.4550156E+03  0.7546771E-02  0.1026237E+00
         21   -1    0    0  502  501  0.00000000000E+00  0.00000000000E+00  0.10353547227E+04  0.10353547227E+04  0.00000000000E+00 0.  1.
         21   -1    0    0  501  502 -0.00000000000E+00 -0.00000000000E+00 -0.49992336282E+02  0.49992336282E+02  0.00000000000E+00 0.  1.
      99926    2    1    2    0    0  0.00000000000E+00  0.00000000000E+00  0.98536238642E+03  0.10853470590E+04  0.45501561058E+03 0.  0.
      99925    2    3    3    0    0  0.47266815112E+02  0.75770446476E+02  0.78617445517E+03  0.83375482456E+03  0.26287168188E+03 0.  0.
         25    1    4    4    0    0 -0.16168145731E+02  0.44834014447E+02  0.39244002769E+03  0.41464223280E+03  0.12509000000E+03 0.  0.
         25    1    3    3    0    0 -0.47266815112E+02 -0.75770446476E+02  0.19918793125E+03  0.25159223443E+03  0.12509000000E+03 0.  0.
         25    1    4    4    0    0  0.63434960843E+02  0.30936432028E+02  0.39373442748E+03  0.41911259175E+03  0.12509000000E+03 0.  0.
<mgrwt>
<rscale>  2 0.45501561E+03</rscale>
<asrwt>0</asrwt>
<pdfrwt beam="1">  1       21 0.15225803E+00 0.45501561E+03</pdfrwt>
<pdfrwt beam="2">  1       21 0.73518148E-02 0.45501561E+03</pdfrwt>
<totfact> 0.36002111E+04</totfact>
</mgrwt>
</event>
<event>
 7    0  0.4709932E-002  0.4236250E+03  0.7546771E-02  0.1035893E+00
         21   -1    0    0  502  501  0.00000000000E+00  0.00000000000E+00  0.18975406121E+03  0.18975406121E+03  0.00000000000E+00 0. -1.
         21   -1    0    0  501  502 -0.00000000000E+00 -0.00000000000E+00 -0.23643516724E+03  0.23643516724E+03  0.00000000000E+00 0. -1.
      99926    2    1    2    0    0  0.00000000000E+00  0.88817841970E-15 -0.46681106036E+02  0.42618922845E+03  0.42362499075E+03 0.  0.
      99925    2    3    3    0    0  0.69468987552E+02 -0.28453822985E+01  0.10098128701E+02  0.27222356336E+03  0.26300125439E+03 0.  0.
         25    1    4    4    0    0  0.61011836094E+02 -0.15448665531E+02 -0.23083160965E+02  0.14192056169E+03  0.12509000000E+03 0.  0.
         25    1    3    3    0    0 -0.69468987552E+02  0.28453822985E+01 -0.56779234737E+02  0.15396566510E+03  0.12509000000E+03 0.  0.
         25    1    4    4    0    0  0.84571514583E+01  0.12603283233E+02  0.33181289666E+02  0.13030300167E+03  0.12509000000E+03 0.  0.
<mgrwt>
<rscale>  2 0.42362499E+03</rscale>
<asrwt>0</asrwt>
<pdfrwt beam="1">  1       21 0.27905009E-01 0.42362499E+03</pdfrwt>
<pdfrwt beam="2">  1       21 0.34769877E-01 0.42362499E+03</pdfrwt>
<totfact> 0.91574752E+04</totfact>
</mgrwt>
</event>
<event>
 7    0  0.4709932E-002  0.4559648E+03  0.7546771E-02  0.1025958E+00
         21   -1    0    0  502  501  0.00000000000E+00  0.00000000000E+00  0.23106098779E+03  0.23106098779E+03  0.00000000000E+00 0.  1.
         21   -1    0    0  501  502 -0.00000000000E+00 -0.00000000000E+00 -0.22494484246E+03  0.22494484246E+03  0.00000000000E+00 0.  1.
      99926    2    1    2    0    0 -0.71054273576E-14  0.00000000000E+00  0.61161453327E+01  0.45600583026E+03  0.45596481223E+03 0.  0.
      99925    2    3    3    0    0  0.36600569427E+02 -0.31273155004E+02 -0.99326966969E+02  0.28546735970E+03  0.26326442066E+03 0.  0.
         25    1    3    3    0    0 -0.36600569427E+02  0.31273155004E+02  0.10544311230E+03  0.17053847055E+03  0.12509000000E+03 0.  0.
         25    1    4    4    0    0 -0.18479014895E+02 -0.16104411593E+02 -0.67810577129E+02  0.14438354662E+03  0.12509000000E+03 0.  0.
         25    1    4    4    0    0  0.55079584321E+02 -0.15168743411E+02 -0.31516389840E+02  0.14108381308E+03  0.12509000000E+03 0.  0.
<mgrwt>
<rscale>  2 0.45596481E+03</rscale>
<asrwt>0</asrwt>
<pdfrwt beam="1">  1       21 0.33979557E-01 0.45596481E+03</pdfrwt>
<pdfrwt beam="2">  1       21 0.33080124E-01 0.45596481E+03</pdfrwt>
<totfact> 0.67947587E+04</totfact>
</mgrwt>
</event>
<event>
 7    0  0.4709932E-002  0.4363741E+03  0.7546771E-02  0.1031865E+00
         21   -1    0    0  502  501  0.00000000000E+00  0.00000000000E+00  0.41743830716E+03  0.41743830716E+03  0.00000000000E+00 0.  1.
         21   -1    0    0  501  502 -0.00000000000E+00 -0.00000000000E+00 -0.11404222374E+03  0.11404222374E+03  0.00000000000E+00 0.  1.
      99926    2    1    2    0    0  0.71054273576E-14  0.00000000000E+00  0.30339608342E+03  0.53148053090E+03  0.43637411850E+03 0.  0.
      99925    2    3    3    0    0 -0.52173356137E+02 -0.77257997531E+02  0.21403656290E+03  0.35169318630E+03  0.26303153757E+03 0.  0.
         25    1    4    4    0    0 -0.49145879905E+02 -0.50882711234E+01  0.98017686744E+02  0.16642170240E+03  0.12509000000E+03 0.  0.
         25    1    4    4    0    0 -0.30274762325E+01 -0.72169726408E+02  0.11601887616E+03  0.18527148390E+03  0.12509000000E+03 0.  0.
         25    1    3    3    0    0  0.52173356137E+02  0.77257997531E+02  0.89359520514E+02  0.17978734460E+03  0.12509000000E+03 0.  0.
<mgrwt>
<rscale>  2 0.43637412E+03</rscale>
<asrwt>0</asrwt>
<pdfrwt beam="1">  1       21 0.61387986E-01 0.43637412E+03</pdfrwt>
<pdfrwt beam="2">  1       21 0.16770915E-01 0.43637412E+03</pdfrwt>
<totfact> 0.73335867E+04</totfact>
</mgrwt>
</event>
<event>
 7    0  0.4709932E-002  0.5444211E+03  0.7546771E-02  0.1002794E+00
         21   -1    0    0  502  501  0.00000000000E+00  0.00000000000E+00  0.97309479854E+02  0.97309479854E+02  0.00000000000E+00 0.  1.
         21   -1    0    0  501  502 -0.00000000000E+00 -0.00000000000E+00 -0.76147334569E+03  0.76147334569E+03  0.00000000000E+00 0.  1.
      99926    2    1    2    0    0  0.14210854715E-13  0.14210854715E-13 -0.66416386584E+03  0.85878282555E+03  0.54442106936E+03 0.  0.
      99925    2    3    3    0    0  0.92142793991E+02  0.12268113336E+03 -0.22969608490E+03  0.38134098014E+03  0.26290625088E+03 0.  0.
         25    1    4    4    0    0  0.21103580295E+02  0.22233724833E+02 -0.91186563030E+02  0.15780429968E+03  0.12509000000E+03 0.  0.
         25    1    3    3    0    0 -0.92142793991E+02 -0.12268113336E+03 -0.43446778094E+03  0.47744184540E+03  0.12509000000E+03 0.  0.
         25    1    4    4    0    0  0.71039213696E+02  0.10044740853E+03 -0.13850952187E+03  0.22353668046E+03  0.12509000000E+03 0.  0.
<mgrwt>
<rscale>  2 0.54442107E+03</rscale>
<asrwt>0</asrwt>
<pdfrwt beam="1">  1       21 0.14310217E-01 0.54442107E+03</pdfrwt>
<pdfrwt beam="2">  1       21 0.11198138E+00 0.54442107E+03</pdfrwt>
<totfact> 0.23599163E+04</totfact>
</mgrwt>
</event>
<event>
 7    0  0.4709932E-002  0.4105568E+03  0.7546771E-02  0.1040184E+00
         21   -1    0    0  502  501  0.00000000000E+00  0.00000000000E+00  0.70275860260E+02  0.70275860260E+02  0.00000000000E+00 0.  1.
         21   -1    0    0  501  502 -0.00000000000E+00 -0.00000000000E+00 -0.59962573094E+03  0.59962573094E+03  0.00000000000E+00 0.  1.
      99926    2    1    2    0    0  0.00000000000E+00  0.00000000000E+00 -0.52934987068E+03  0.66990159120E+03  0.41055676380E+03 0.  0.
      99925    2    3    3    0    0  0.54441215961E+02  0.31803432160E+02 -0.34523253729E+03  0.43855335834E+03  0.26299855326E+03 0.  0.
         25    1    4    4    0    0  0.11917780005E+02  0.19889826585E+02 -0.10858136765E+03  0.16725746674E+03  0.12509000000E+03 0.  0.
         25    1    3    3    0    0 -0.54441215961E+02 -0.31803432160E+02 -0.18411733339E+03  0.23134823286E+03  0.12509000000E+03 0.  0.
         25    1    4    4    0    0  0.42523435955E+02  0.11913605575E+02 -0.23665116964E+03  0.27129589160E+03  0.12509000000E+03 0.  0.
<mgrwt>
<rscale>  2 0.41055676E+03</rscale>
<asrwt>0</asrwt>
<pdfrwt beam="1">  1       21 0.10334685E-01 0.41055676E+03</pdfrwt>
<pdfrwt beam="2">  1       21 0.88180254E-01 0.41055676E+03</pdfrwt>
<totfact> 0.78710229E+04</totfact>
</mgrwt>
</event>
<event>
 7    0  0.4709932E-002  0.4545998E+03  0.7546771E-02  0.1026359E+00
         21   -1    0    0  502  501  0.00000000000E+00  0.00000000000E+00  0.27675315651E+03  0.27675315651E+03  0.00000000000E+00 0.  1.
         21   -1    0    0  501  502 -0.00000000000E+00 -0.00000000000E+00 -0.18668352398E+03  0.18668352398E+03  0.00000000000E+00 0.  1.
      99926    2    1    2    0    0  0.00000000000E+00  0.00000000000E+00  0.90069632528E+02  0.46343668049E+03  0.45459984395E+03 0.  0.
      99925    2    3    3    0    0 -0.50509122965E+01 -0.47806387904E+02  0.16101797034E+03  0.31180509678E+03  0.26264932736E+03 0.  0.
         25    1    4    4    0    0 -0.12406023771E+02  0.14752683423E+02  0.84877374758E+02  0.15239169249E+03  0.12509000000E+03 0.  0.
         25    1    3    3    0    0  0.50509122965E+01  0.47806387904E+02 -0.70948337815E+02  0.15163158371E+03  0.12509000000E+03 0.  0.
         25    1    4    4    0    0  0.73551114743E+01 -0.62559071327E+02  0.76140595586E+02  0.15941340429E+03  0.12509000000E+03 0.  0.
<mgrwt>
<rscale>  2 0.45459984E+03</rscale>
<asrwt>0</asrwt>
<pdfrwt beam="1">  1       21 0.40698994E-01 0.45459984E+03</pdfrwt>
<pdfrwt beam="2">  1       21 0.27453459E-01 0.45459984E+03</pdfrwt>
<totfact> 0.68142928E+04</totfact>
</mgrwt>
</event>
<event>
 7    0  0.4709932E-002  0.4548243E+03  0.7546771E-02  0.1026293E+00
         21   -1    0    0  502  501  0.00000000000E+00  0.00000000000E+00  0.82752150319E+02  0.82752150319E+02  0.00000000000E+00 0. -1.
         21   -1    0    0  501  502 -0.00000000000E+00 -0.00000000000E+00 -0.62495388595E+03  0.62495388595E+03  0.00000000000E+00 0. -1.
      99926    2    1    2    0    0  0.00000000000E+00  0.71054273576E-14 -0.54220173563E+03  0.70770603626E+03  0.45482426458E+03 0.  0.
      99925    2    3    3    0    0 -0.10039406876E+03  0.48964101134E+02 -0.36754787790E+03  0.46557398477E+03  0.26304227893E+03 0.  0.
         25    1    3    3    0    0  0.10039406876E+03 -0.48964101134E+02 -0.17465385773E+03  0.24213205149E+03  0.12509000000E+03 0.  0.
         25    1    4    4    0    0 -0.76986100256E+02  0.70647356187E+01 -0.23422808898E+03  0.27656296912E+03  0.12509000000E+03 0.  0.
         25    1    4    4    0    0 -0.23407968500E+02  0.41899365515E+02 -0.13331978892E+03  0.18901101565E+03  0.12509000000E+03 0.  0.
<mgrwt>
<rscale>  2 0.45482426E+03</rscale>
<asrwt>0</asrwt>
<pdfrwt beam="1">  1       21 0.12169434E-01 0.45482426E+03</pdfrwt>
<pdfrwt beam="2">  1       21 0.91904983E-01 0.45482426E+03</pdfrwt>
<totfact> 0.52559206E+04</totfact>
</mgrwt>
</event>
<event>
 7    0  0.4709932E-002  0.4487447E+03  0.7546771E-02  0.1028097E+00
         21   -1    0    0  502  501  0.00000000000E+00  0.00000000000E+00  0.71512316911E+02  0.71512316911E+02  0.00000000000E+00 0.  1.
         21   -1    0    0  501  502 -0.00000000000E+00 -0.00000000000E+00 -0.70397594111E+03  0.70397594111E+03  0.00000000000E+00 0.  1.
      99926    2    1    2    0    0  0.00000000000E+00 -0.14210854715E-13 -0.63246362420E+03  0.77548825802E+03  0.44874469623E+03 0.  0.
      99925    2    3    3    0    0 -0.71455860230E+02 -0.76731251937E+02 -0.36217728578E+03  0.45974178089E+03  0.26305226434E+03 0.  0.
         25    1    4    4    0    0 -0.80970047202E+00 -0.13696413843E+02 -0.17424561287E+03  0.21493554632E+03  0.12509000000E+03 0.  0.
         25    1    3    3    0    0  0.71455860230E+02  0.76731251937E+02 -0.27028633841E+03  0.31574647712E+03  0.12509000000E+03 0.  0.
         25    1    4    4    0    0 -0.70646159758E+02 -0.63034838094E+02 -0.18793167292E+03  0.24480623458E+03  0.12509000000E+03 0.  0.
<mgrwt>
<rscale>  2 0.44874470E+03</rscale>
<asrwt>0</asrwt>
<pdfrwt beam="1">  1       21 0.10516517E-01 0.44874470E+03</pdfrwt>
<pdfrwt beam="2">  1       21 0.10352588E+00 0.44874470E+03</pdfrwt>
<totfact> 0.51453629E+04</totfact>
</mgrwt>
</event>
<event>
 7    0  0.4709932E-002  0.4605268E+03  0.7546771E-02  0.1024629E+00
         21   -1    0    0  502  501  0.00000000000E+00  0.00000000000E+00  0.92014977347E+03  0.92014977347E+03  0.00000000000E+00 0.  1.
         21   -1    0    0  501  502 -0.00000000000E+00 -0.00000000000E+00 -0.57622388906E+02  0.57622388906E+02  0.00000000000E+00 0.  1.
      99926    2    1    2    0    0 -0.14210854715E-13  0.00000000000E+00  0.86252738456E+03  0.97777216237E+03  0.46052677707E+03 0.  0.
      99925    2    3    3    0    0 -0.10197428174E+03  0.56458313447E+02  0.49823924486E+03  0.57535490117E+03  0.26306771349E+03 0.  0.
         25    1    4    4    0    0 -0.10332097957E+02  0.30439820752E+02  0.25257207000E+03  0.28367850391E+03  0.12509000000E+03 0.  0.
         25    1    3    3    0    0  0.10197428174E+03 -0.56458313447E+02  0.36428813970E+03  0.40241726121E+03  0.12509000000E+03 0.  0.
         25    1    4    4    0    0 -0.91642183787E+02  0.26018492695E+02  0.24566717487E+03  0.29167639726E+03  0.12509000000E+03 0.  0.
<mgrwt>
<rscale>  2 0.46052678E+03</rscale>
<asrwt>0</asrwt>
<pdfrwt beam="1">  1       21 0.13531613E+00 0.46052678E+03</pdfrwt>
<pdfrwt beam="2">  1       21 0.84738813E-02 0.46052678E+03</pdfrwt>
<totfact> 0.38352159E+04</totfact>
</mgrwt>
</event>
<event>
 7    0  0.4709932E-002  0.4507762E+03  0.7546771E-02  0.1027491E+00
         21   -1    0    0  502  501  0.00000000000E+00  0.00000000000E+00  0.27067728621E+03  0.27067728621E+03  0.00000000000E+00 0.  1.
         21   -1    0    0  501  502 -0.00000000000E+00 -0.00000000000E+00 -0.18767665187E+03  0.18767665187E+03  0.00000000000E+00 0.  1.
      99926    2    1    2    0    0  0.00000000000E+00  0.00000000000E+00  0.83000634340E+02  0.45835393809E+03  0.45077624966E+03 0.  0.
      99925    2    3    3    0    0 -0.72908435256E+02 -0.80639153896E+02  0.61891448634E+02  0.29128682914E+03  0.26305731760E+03 0.  0.
         25    1    4    4    0    0 -0.26476537743E+02 -0.80591974937E+02  0.35982927676E+02  0.15536522346E+03  0.12509000000E+03 0.  0.
         25    1    4    4    0    0 -0.46431897513E+02 -0.47178959007E-01  0.25908520958E+02  0.13592160568E+03  0.12509000000E+03 0.  0.
         25    1    3    3    0    0  0.72908435256E+02  0.80639153896E+02  0.21109185705E+02  0.16706710895E+03  0.12509000000E+03 0.  0.
<mgrwt>
<rscale>  2 0.45077625E+03</rscale>
<asrwt>0</asrwt>
<pdfrwt beam="1">  1       21 0.39805483E-01 0.45077625E+03</pdfrwt>
<pdfrwt beam="2">  1       21 0.27599508E-01 0.45077625E+03</pdfrwt>
<totfact> 0.70648826E+04</totfact>
</mgrwt>
</event>
<event>
 7    0  0.4709932E-002  0.4478020E+03  0.7546771E-02  0.1028380E+00
         21   -1    0    0  502  501  0.00000000000E+00  0.00000000000E+00  0.31735728108E+03  0.31735728108E+03  0.00000000000E+00 0. -1.
         21   -1    0    0  501  502 -0.00000000000E+00 -0.00000000000E+00 -0.15796599036E+03  0.15796599036E+03  0.00000000000E+00 0. -1.
      99926    2    1    2    0    0 -0.14210854715E-13  0.00000000000E+00  0.15939129072E+03  0.47532327144E+03  0.44780199733E+03 0.  0.
      99925    2    3    3    0    0  0.91124711096E+02 -0.30582365724E+02  0.14883786607E+03  0.31721610229E+03  0.26312421232E+03 0.  0.
         25    1    4    4    0    0  0.91752249661E+01 -0.25086499854E+02  0.47301243773E+02  0.13637607191E+03  0.12509000000E+03 0.  0.
         25    1    4    4    0    0  0.81949486130E+02 -0.54958658699E+01  0.10153662229E+03  0.18084003037E+03  0.12509000000E+03 0.  0.
         25    1    3    3    0    0 -0.91124711096E+02  0.30582365724E+02  0.10553424655E+02  0.15810716915E+03  0.12509000000E+03 0.  0.
<mgrwt>
<rscale>  2 0.44780200E+03</rscale>
<asrwt>0</asrwt>
<pdfrwt beam="1">  1       21 0.46670188E-01 0.44780200E+03</pdfrwt>
<pdfrwt beam="2">  1       21 0.23230293E-01 0.44780200E+03</pdfrwt>
<totfact> 0.71013407E+04</totfact>
</mgrwt>
</event>
<event>
 7    0  0.4709932E-002  0.4475993E+03  0.7546771E-02  0.1028440E+00
         21   -1    0    0  502  501  0.00000000000E+00  0.00000000000E+00  0.29700114688E+02  0.29700114688E+02  0.00000000000E+00 0.  1.
         21   -1    0    0  501  502 -0.00000000000E+00 -0.00000000000E+00 -0.16864002855E+04  0.16864002855E+04  0.00000000000E+00 0.  1.
      99926    2    1    2    0    0  0.35527136788E-14  0.00000000000E+00 -0.16567001708E+04  0.17161004002E+04  0.44759929352E+03 0.  0.
      99925    2    3    3    0    0 -0.23573235559E+02  0.98930708185E+02 -0.93228672040E+03  0.97396474029E+03  0.26287982774E+03 0.  0.
         25    1    4    4    0    0  0.14498087147E+02  0.19061347203E+02 -0.46984296378E+03  0.48679918673E+03  0.12509000000E+03 0.  0.
         25    1    4    4    0    0 -0.38071322705E+02  0.79869360983E+02 -0.46244375662E+03  0.48716555356E+03  0.12509000000E+03 0.  0.
         25    1    3    3    0    0  0.23573235559E+02 -0.98930708185E+02 -0.72441345041E+03  0.74213565990E+03  0.12509000000E+03 0.  0.
<mgrwt>
<rscale>  2 0.44759929E+03</rscale>
<asrwt>0</asrwt>
<pdfrwt beam="1">  1       21 0.43676646E-02 0.44759929E+03</pdfrwt>
<pdfrwt beam="2">  1       21 0.24800000E+00 0.44759929E+03</pdfrwt>
<totfact> 0.20056526E+04</totfact>
</mgrwt>
</event>
<event>
 7    0  0.4709932E-002  0.4539088E+03  0.7546771E-02  0.1026563E+00
         21   -1    0    0  502  501  0.00000000000E+00  0.00000000000E+00  0.74837709456E+03  0.74837709456E+03  0.00000000000E+00 0. -1.
         21   -1    0    0  501  502 -0.00000000000E+00 -0.00000000000E+00 -0.68826663941E+02  0.68826663941E+02  0.00000000000E+00 0. -1.
      99926    2    1    2    0    0  0.14210854715E-13  0.14210854715E-13  0.67955043062E+03  0.81720375850E+03  0.45390879607E+03 0.  0.
      99925    2    3    3    0    0  0.68012317813E+02  0.88483591691E+02  0.44736738777E+03  0.53082726704E+03  0.26303039068E+03 0.  0.
         25    1    3    3    0    0 -0.68012317813E+02 -0.88483591691E+02  0.23218304284E+03  0.28637649145E+03  0.12509000000E+03 0.  0.
         25    1    4    4    0    0  0.11175356583E+02  0.11662428797E+02  0.16682347225E+03  0.20913746636E+03  0.12509000000E+03 0.  0.
         25    1    4    4    0    0  0.56836961230E+02  0.76821162894E+02  0.28054391552E+03  0.32168980069E+03  0.12509000000E+03 0.  0.
<mgrwt>
<rscale>  2 0.45390880E+03</rscale>
<asrwt>0</asrwt>
<pdfrwt beam="1">  1       21 0.11005545E+00 0.45390880E+03</pdfrwt>
<pdfrwt beam="2">  1       21 0.10121569E-01 0.45390880E+03</pdfrwt>
<totfact> 0.47348040E+04</totfact>
</mgrwt>
</event>
<event>
 7    0  0.4709932E-002  0.4438224E+03  0.7546771E-02  0.1029580E+00
         21   -1    0    0  502  501  0.00000000000E+00  0.00000000000E+00  0.74946401703E+03  0.74946401703E+03  0.00000000000E+00 0.  1.
         21   -1    0    0  501  502 -0.00000000000E+00 -0.00000000000E+00 -0.65706409301E+02  0.65706409301E+02  0.00000000000E+00 0.  1.
      99926    2    1    2    0    0  0.00000000000E+00  0.00000000000E+00  0.68375760773E+03  0.81517042633E+03  0.44382243954E+03 0.  0.
      99925    2    3    3    0    0 -0.42045663699E+02 -0.74529653066E+02  0.53824440489E+03  0.60506543514E+03  0.26282053647E+03 0.  0.
         25    1    4    4    0    0 -0.13241719759E+01 -0.37864963151E+02  0.34071242135E+03  0.36492186976E+03  0.12509000000E+03 0.  0.
         25    1    4    4    0    0 -0.40721491723E+02 -0.36664689915E+02  0.19753198354E+03  0.24014356538E+03  0.12509000000E+03 0.  0.
         25    1    3    3    0    0  0.42045663699E+02  0.74529653066E+02  0.14551320284E+03  0.21010499119E+03  0.12509000000E+03 0.  0.
<mgrwt>
<rscale>  2 0.44382244E+03</rscale>
<asrwt>0</asrwt>
<pdfrwt beam="1">  1       21 0.11021529E+00 0.44382244E+03</pdfrwt>
<pdfrwt beam="2">  1       21 0.96627076E-02 0.44382244E+03</pdfrwt>
<totfact> 0.51402118E+04</totfact>
</mgrwt>
</event>
<event>
 6    0  0.4709932E-002  0.4389751E+03  0.7546771E-02  0.1031062E+00
         21   -1    0    0  502  501  0.00000000000E+00  0.00000000000E+00  0.61299543606E+03  0.61299543606E+03  0.00000000000E+00 0.  1.
         21   -1    0    0  501  502 -0.00000000000E+00 -0.00000000000E+00 -0.78589146579E+02  0.78589146579E+02  0.00000000000E+00 0.  1.
      99926    2    1    2    0    0 -0.19984014443E-14  0.17763568394E-14  0.53440628949E+03  0.69158458264E+03  0.43897511628E+03 0.  0.
         25    1    3    3    0    0 -0.26093238166E+02  0.27704943782E+02  0.21813525090E+03  0.25432050010E+03  0.12509000000E+03 0.  0.
         25    1    3    3    0    0  0.24600297566E+02 -0.42516039665E+02  0.27261817748E+03  0.30394237457E+03  0.12509000000E+03 0.  0.
         25    1    3    3    0    0  0.14929406001E+01  0.14811095883E+02  0.43652861109E+02  0.13332170797E+03  0.12509000000E+03 0.  0.
<mgrwt>
<rscale>  2 0.43897512E+03</rscale>
<asrwt>0</asrwt>
<pdfrwt beam="1">  1       21 0.90146385E-01 0.43897512E+03</pdfrwt>
<pdfrwt beam="2">  1       21 0.11557228E-01 0.43897512E+03</pdfrwt>
<totfact> 0.60659239E+04</totfact>
</mgrwt>
</event>
<event>
 7    0  0.4709932E-002  0.4636865E+03  0.7546771E-02  0.1023717E+00
         21   -1    0    0  502  501  0.00000000000E+00  0.00000000000E+00  0.14368430595E+03  0.14368430595E+03  0.00000000000E+00 0. -1.
         21   -1    0    0  501  502 -0.00000000000E+00 -0.00000000000E+00 -0.37409306990E+03  0.37409306990E+03  0.00000000000E+00 0. -1.
      99926    2    1    2    0    0  0.00000000000E+00  0.00000000000E+00 -0.23040876395E+03  0.51777737585E+03  0.46368654546E+03 0.  0.
      99925    2    3    3    0    0 -0.89547668068E+02  0.80126943077E+02 -0.16480622663E+03  0.33233112254E+03  0.26238096504E+03 0.  0.
         25    1    4    4    0    0 -0.71302862814E+02  0.68486484307E+02 -0.71278273891E+02  0.17464992759E+03  0.12509000000E+03 0.  0.
         25    1    4    4    0    0 -0.18244805254E+02  0.11640458770E+02 -0.93527952736E+02  0.15768119495E+03  0.12509000000E+03 0.  0.
         25    1    3    3    0    0  0.89547668068E+02 -0.80126943077E+02 -0.65602537318E+02  0.18544625331E+03  0.12509000000E+03 0.  0.
<mgrwt>
<rscale>  2 0.46368655E+03</rscale>
<asrwt>0</asrwt>
<pdfrwt beam="1">  1       21 0.21130045E-01 0.46368655E+03</pdfrwt>
<pdfrwt beam="2">  1       21 0.55013687E-01 0.46368655E+03</pdfrwt>
<totfact> 0.59808594E+04</totfact>
</mgrwt>
</event>
<event>
 7    0  0.4709932E-002  0.4407815E+03  0.7546771E-02  0.1030507E+00
         21   -1    0    0  502  501  0.00000000000E+00  0.00000000000E+00  0.73750849587E+02  0.73750849587E+02  0.00000000000E+00 0.  1.
         21   -1    0    0  501  502 -0.00000000000E+00 -0.00000000000E+00 -0.65859693742E+03  0.65859693742E+03  0.00000000000E+00 0.  1.
      99926    2    1    2    0    0  0.00000000000E+00  0.00000000000E+00 -0.58484608783E+03  0.73234778701E+03  0.44078150447E+03 0.  0.
      99925    2    3    3    0    0  0.33850114071E+01 -0.34818082502E+02 -0.52730668769E+03  0.59028425249E+03  0.26298174591E+03 0.  0.
         25    1    3    3    0    0 -0.33850114071E+01  0.34818082502E+02 -0.57539400144E+02  0.14206353452E+03  0.12509000000E+03 0.  0.
         25    1    4    4    0    0 -0.21031130635E+01  0.16916724927E+02 -0.20634550401E+03  0.24190199212E+03  0.12509000000E+03 0.  0.
         25    1    4    4    0    0  0.54881244707E+01 -0.51734807429E+02 -0.32096118368E+03  0.34838226037E+03  0.12509000000E+03 0.  0.
<mgrwt>
<rscale>  2 0.44078150E+03</rscale>
<asrwt>0</asrwt>
<pdfrwt beam="1">  1       21 0.10845713E-01 0.44078150E+03</pdfrwt>
<pdfrwt beam="2">  1       21 0.96852494E-01 0.44078150E+03</pdfrwt>
<totfact> 0.57326930E+04</totfact>
</mgrwt>
</event>
<event>
 7    0  0.4709932E-002  0.4750261E+03  0.7546771E-02  0.1020511E+00
         21   -1    0    0  502  501  0.00000000000E+00  0.00000000000E+00  0.77130755473E+03  0.77130755473E+03  0.00000000000E+00 0.  1.
         21   -1    0    0  501  502 -0.00000000000E+00 -0.00000000000E+00 -0.73138732416E+02  0.73138732416E+02  0.00000000000E+00 0.  1.
      99926    2    1    2    0    0  0.00000000000E+00 -0.14210854715E-13  0.69816882232E+03  0.84444628715E+03  0.47502613341E+03 0.  0.
      99925    2    3    3    0    0  0.35358512976E+02  0.11474648694E+03  0.33772856270E+03  0.44446920086E+03  0.26282181747E+03 0.  0.
         25    1    3    3    0    0 -0.35358512976E+02 -0.11474648694E+03  0.36044025961E+03  0.39997708629E+03  0.12509000000E+03 0.  0.
         25    1    4    4    0    0  0.21020873055E+02  0.15661616203E+02  0.13235647815E+03  0.18399159963E+03  0.12509000000E+03 0.  0.
         25    1    4    4    0    0  0.14337639921E+02  0.99084870741E+02  0.20537208455E+03  0.26047760123E+03  0.12509000000E+03 0.  0.
<mgrwt>
<rscale>  2 0.47502613E+03</rscale>
<asrwt>0</asrwt>
<pdfrwt beam="1">  1       21 0.11342758E+00 0.47502613E+03</pdfrwt>
<pdfrwt beam="2">  1       21 0.10755696E-01 0.47502613E+03</pdfrwt>
<totfact> 0.39163510E+04</totfact>
</mgrwt>
</event>
<event>
 7    0  0.4709932E-002  0.4488358E+03  0.7546771E-02  0.1028070E+00
         21   -1    0    0  502  501  0.00000000000E+00  0.00000000000E+00  0.49447101355E+03  0.49447101355E+03  0.00000000000E+00 0. -1.
         21   -1    0    0  501  502 -0.00000000000E+00 -0.00000000000E+00 -0.10185306014E+03  0.10185306014E+03  0.00000000000E+00 0. -1.
      99926    2    1    2    0    0  0.00000000000E+00 -0.14210854715E-13  0.39261795341E+03  0.59632407369E+03  0.44883576452E+03 0.  0.
      99925    2    3    3    0    0 -0.50958535852E+01 -0.10686659690E+03  0.24480994141E+03  0.37509759749E+03  0.26328665552E+03 0.  0.
         25    1    3    3    0    0  0.50958535852E+01  0.10686659690E+03  0.14780801200E+03  0.22122647619E+03  0.12509000000E+03 0.  0.
         25    1    4    4    0    0 -0.15194604818E+02 -0.94567894666E+02  0.14749066564E+03  0.21581234272E+03  0.12509000000E+03 0.  0.
         25    1    4    4    0    0  0.10098751233E+02 -0.12298702235E+02  0.97319275766E+02  0.15928525478E+03  0.12509000000E+03 0.  0.
<mgrwt>
<rscale>  2 0.44883576E+03</rscale>
<asrwt>0</asrwt>
<pdfrwt beam="1">  1       21 0.72716325E-01 0.44883576E+03</pdfrwt>
<pdfrwt beam="2">  1       21 0.14978391E-01 0.44883576E+03</pdfrwt>
<totfact> 0.61863809E+04</totfact>
</mgrwt>
</event>
<event>
 7    0  0.4709932E-002  0.4681857E+03  0.7546771E-02  0.1022434E+00
         21   -1    0    0  502  501  0.00000000000E+00  0.00000000000E+00  0.85183761883E+03  0.85183761883E+03  0.00000000000E+00 0. -1.
         21   -1    0    0  501  502 -0.00000000000E+00 -0.00000000000E+00 -0.64330877798E+02  0.64330877798E+02  0.00000000000E+00 0. -1.
      99926    2    1    2    0    0  0.35527136788E-14  0.00000000000E+00  0.78750674103E+03  0.91616849663E+03  0.46818569718E+03 0.  0.
      99925    2    3    3    0    0 -0.22757080277E+02  0.58518119660E+02  0.70169728265E+03  0.75199472808E+03  0.26301091147E+03 0.  0.
         25    1    3    3    0    0  0.22757080277E+02 -0.58518119660E+02  0.85809458382E+02  0.16417376855E+03  0.12509000000E+03 0.  0.
         25    1    4    4    0    0 -0.48261912085E+02  0.22008992730E+02  0.39751786488E+03  0.42009709463E+03  0.12509000000E+03 0.  0.
         25    1    4    4    0    0  0.25504831808E+02  0.36509126930E+02  0.30417941777E+03  0.33189763345E+03  0.12509000000E+03 0.  0.
<mgrwt>
<rscale>  2 0.46818570E+03</rscale>
<asrwt>0</asrwt>
<pdfrwt beam="1">  1       21 0.12527023E+00 0.46818570E+03</pdfrwt>
<pdfrwt beam="2">  1       21 0.94604237E-02 0.46818570E+03</pdfrwt>
<totfact> 0.38420296E+04</totfact>
</mgrwt>
</event>
<event>
 7    0  0.4709932E-002  0.4467415E+03  0.7546771E-02  0.1028698E+00
         21   -1    0    0  502  501  0.00000000000E+00  0.00000000000E+00  0.48261195540E+03  0.48261195540E+03  0.00000000000E+00 0. -1.
         21   -1    0    0  501  502 -0.00000000000E+00 -0.00000000000E+00 -0.10338429123E+03  0.10338429123E+03  0.00000000000E+00 0. -1.
      99926    2    1    2    0    0  0.00000000000E+00 -0.14210854715E-13  0.37922766417E+03  0.58599624663E+03  0.44674151340E+03 0.  0.
      99925    2    3    3    0    0 -0.53482731148E+02 -0.79856210460E+02  0.18390390718E+03  0.33492594766E+03  0.26290174298E+03 0.  0.
         25    1    3    3    0    0  0.53482731148E+02  0.79856210460E+02  0.19532375699E+03  0.25107029897E+03  0.12509000000E+03 0.  0.
         25    1    4    4    0    0 -0.30381738630E+01 -0.56153767707E+01  0.70723826547E+02  0.14384064342E+03  0.12509000000E+03 0.  0.
         25    1    4    4    0    0 -0.50444557285E+02 -0.74240833689E+02  0.11318008063E+03  0.19108530425E+03  0.12509000000E+03 0.  0.
<mgrwt>
<rscale>  2 0.44674151E+03</rscale>
<asrwt>0</asrwt>
<pdfrwt beam="1">  1       21 0.70972345E-01 0.44674151E+03</pdfrwt>
<pdfrwt beam="2">  1       21 0.15203572E-01 0.44674151E+03</pdfrwt>
<totfact> 0.63599610E+04</totfact>
</mgrwt>
</event>
<event>
 7    0  0.4709932E-002  0.4637246E+03  0.7546771E-02  0.1023706E+00
         21   -1    0    0  502  501  0.00000000000E+00  0.00000000000E+00  0.16108145161E+04  0.16108145161E+04  0.00000000000E+00 0.  1.
         21   -1    0    0  501  502 -0.00000000000E+00 -0.00000000000E+00 -0.33374503595E+02  0.33374503595E+02  0.00000000000E+00 0.  1.
      99926    2    1    2    0    0  0.00000000000E+00  0.00000000000E+00  0.15774400125E+04  0.16441890197E+04  0.46372463751E+03 0.  0.
      99925    2    3    3    0    0 -0.96005837077E+02  0.59433299310E+02  0.82913309379E+03  0.87714261268E+03  0.26299817098E+03 0.  0.
         25    1    4    4    0    0 -0.13089346910E+02  0.70276997582E+01  0.32582193137E+03  0.34932529056E+03  0.12509000000E+03 0.  0.
         25    1    4    4    0    0 -0.82916490168E+02  0.52405599552E+02  0.50331116242E+03  0.52781732212E+03  0.12509000000E+03 0.  0.
         25    1    3    3    0    0  0.96005837077E+02 -0.59433299310E+02  0.74830691871E+03  0.76704640702E+03  0.12509000000E+03 0.  0.
<mgrwt>
<rscale>  2 0.46372464E+03</rscale>
<asrwt>0</asrwt>
<pdfrwt beam="1">  1       21 0.23688444E+00 0.46372464E+03</pdfrwt>
<pdfrwt beam="2">  1       21 0.49080163E-02 0.46372464E+03</pdfrwt>
<totfact> 0.19120950E+04</totfact>
</mgrwt>
</event>
<event>
 7    0  0.4709932E-002  0.4529347E+03  0.7546771E-02  0.1026850E+00
         21   -1    0    0  502  501  0.00000000000E+00  0.00000000000E+00  0.10405054977E+04  0.10405054977E+04  0.00000000000E+00 0. -1.
         21   -1    0    0  501  502 -0.00000000000E+00 -0.00000000000E+00 -0.49290900598E+02  0.49290900598E+02  0.00000000000E+00 0. -1.
      99926    2    1    2    0    0  0.00000000000E+00  0.88817841970E-15  0.99121459714E+03  0.10897963983E+04  0.45293466664E+03 0.  0.
      99925    2    3    3    0    0  0.50791896089E+02 -0.48465984323E+01  0.86259203996E+03  0.90326335424E+03  0.26309001024E+03 0.  0.
         25    1    3    3    0    0 -0.50791896089E+02  0.48465984323E+01  0.12862255719E+03  0.18653304410E+03  0.12509000000E+03 0.  0.
         25    1    4    4    0    0 -0.71520113187E+01  0.86186582565E+01  0.33424670025E+03  0.35706273575E+03  0.12509000000E+03 0.  0.
         25    1    4    4    0    0  0.57943907407E+02 -0.13465256689E+02  0.52834533971E+03  0.54620061848E+03  0.12509000000E+03 0.  0.
<mgrwt>
<rscale>  2 0.45293467E+03</rscale>
<asrwt>0</asrwt>
<pdfrwt beam="1">  1       21 0.15301550E+00 0.45293467E+03</pdfrwt>
<pdfrwt beam="2">  1       21 0.72486625E-02 0.45293467E+03</pdfrwt>
<totfact> 0.36433629E+04</totfact>
</mgrwt>
</event>
<event>
 7    0  0.4709932E-002  0.4332517E+03  0.7546771E-02  0.1032838E+00
         21   -1    0    0  502  501  0.00000000000E+00  0.00000000000E+00  0.39152320521E+03  0.39152320521E+03  0.00000000000E+00 0. -1.
         21   -1    0    0  501  502 -0.00000000000E+00 -0.00000000000E+00 -0.11985691164E+03  0.11985691164E+03  0.00000000000E+00 0. -1.
      99926    2    1    2    0    0 -0.14210854715E-13  0.00000000000E+00  0.27166629357E+03  0.51138011685E+03  0.43325171534E+03 0.  0.
      99925    2    3    3    0    0 -0.71700445795E+02 -0.55837677339E+02  0.16437140461E+03  0.32318207904E+03  0.26300170612E+03 0.  0.
         25    1    4    4    0    0 -0.52169763868E+01 -0.41995979085E+02  0.10603306204E+03  0.16935583087E+03  0.12509000000E+03 0.  0.
         25    1    4    4    0    0 -0.66483469408E+02 -0.13841698253E+02  0.58338342563E+02  0.15382624818E+03  0.12509000000E+03 0.  0.
         25    1    3    3    0    0  0.71700445795E+02  0.55837677339E+02  0.10729488896E+03  0.18819803781E+03  0.12509000000E+03 0.  0.
<mgrwt>
<rscale>  2 0.43325172E+03</rscale>
<asrwt>0</asrwt>
<pdfrwt beam="1">  1       21 0.57576942E-01 0.43325172E+03</pdfrwt>
<pdfrwt beam="2">  1       21 0.17626017E-01 0.43325172E+03</pdfrwt>
<totfact> 0.76907802E+04</totfact>
</mgrwt>
</event>
<event>
 6    0  0.4709932E-002  0.5469333E+03  0.7546771E-02  0.1002206E+00
         21   -1    0    0  502  501  0.00000000000E+00  0.00000000000E+00  0.25624513470E+03  0.25624513470E+03  0.00000000000E+00 0. -1.
         21   -1    0    0  501  502 -0.00000000000E+00 -0.00000000000E+00 -0.29184559291E+03  0.29184559291E+03  0.00000000000E+00 0. -1.
      99926    2    1    2    0    0 -0.14210854715E-13  0.88817841970E-15 -0.35600458206E+02  0.54809072760E+03  0.54693331683E+03 0.  0.
         25    1    3    3    0    0  0.66583028845E+02 -0.49091508258E+01 -0.19400604859E+03  0.24029826150E+03  0.12509000000E+03 0.  0.
         25    1    3    3    0    0 -0.56902387121E+02 -0.38676084420E+01  0.71906664118E+02  0.15514804704E+03  0.12509000000E+03 0.  0.
         25    1    3    3    0    0 -0.96806417235E+01  0.87767592678E+01  0.86498926262E+02  0.15264441907E+03  0.12509000000E+03 0.  0.
<mgrwt>
<rscale>  2 0.54693332E+03</rscale>
<asrwt>0</asrwt>
<pdfrwt beam="1">  1       21 0.37683108E-01 0.54693332E+03</pdfrwt>
<pdfrwt beam="2">  1       21 0.42918469E-01 0.54693332E+03</pdfrwt>
<totfact> 0.31724466E+04</totfact>
</mgrwt>
</event>
<event>
 7    0  0.4709932E-002  0.4567888E+03  0.7546771E-02  0.1025717E+00
         21   -1    0    0  502  501  0.00000000000E+00  0.00000000000E+00  0.48106432301E+03  0.48106432301E+03  0.00000000000E+00 0. -1.
         21   -1    0    0  501  502 -0.00000000000E+00 -0.00000000000E+00 -0.10843458659E+03  0.10843458659E+03  0.00000000000E+00 0. -1.
      99926    2    1    2    0    0  0.00000000000E+00  0.00000000000E+00  0.37262973642E+03  0.58949890961E+03  0.45678883958E+03 0.  0.
      99925    2    3    3    0    0 -0.50099031392E+01 -0.11110127192E+03  0.27099072732E+03  0.39367606103E+03  0.26301383041E+03 0.  0.
         25    1    4    4    0    0 -0.26831876939E+02 -0.52811887516E+02  0.17951157323E+03  0.22667368199E+03  0.12509000000E+03 0.  0.
         25    1    3    3    0    0  0.50099031392E+01  0.11110127192E+03  0.10163900911E+03  0.19582284857E+03  0.12509000000E+03 0.  0.
         25    1    4    4    0    0  0.21821973800E+02 -0.58289384400E+02  0.91479154085E+02  0.16700237904E+03  0.12509000000E+03 0.  0.
<mgrwt>
<rscale>  2 0.45678884E+03</rscale>
<asrwt>0</asrwt>
<pdfrwt beam="1">  1       21 0.70744752E-01 0.45678884E+03</pdfrwt>
<pdfrwt beam="2">  1       21 0.15946263E-01 0.45678884E+03</pdfrwt>
<totfact> 0.58497870E+04</totfact>
</mgrwt>
</event>
<event>
 7    0  0.4709932E-002  0.4568455E+03  0.7546771E-02  0.1025700E+00
         21   -1    0    0  502  501  0.00000000000E+00  0.00000000000E+00  0.20698006263E+03  0.20698006263E+03  0.00000000000E+00 0. -1.
         21   -1    0    0  501  502 -0.00000000000E+00 -0.00000000000E+00 -0.25208685571E+03  0.25208685571E+03  0.00000000000E+00 0. -1.
      99926    2    1    2    0    0 -0.71054273576E-14 -0.14210854715E-13 -0.45106793082E+02  0.45906691835E+03  0.45684550205E+03 0.  0.
      99925    2    3    3    0    0 -0.41675748954E+02 -0.63676755503E+02 -0.11407588019E+03  0.29721562759E+03  0.26368963879E+03 0.  0.
         25    1    4    4    0    0  0.12381525840E+02 -0.47531692469E+01 -0.46728492835E+02  0.13418999569E+03  0.12509000000E+03 0.  0.
         25    1    4    4    0    0 -0.54057274794E+02 -0.58923586256E+02 -0.67347387353E+02  0.16302563191E+03  0.12509000000E+03 0.  0.
         25    1    3    3    0    0  0.41675748954E+02  0.63676755503E+02  0.68969087106E+02  0.16185129075E+03  0.12509000000E+03 0.  0.
<mgrwt>
<rscale>  2 0.45684550E+03</rscale>
<asrwt>0</asrwt>
<pdfrwt beam="1">  1       21 0.30438245E-01 0.45684550E+03</pdfrwt>
<pdfrwt beam="2">  1       21 0.37071596E-01 0.45684550E+03</pdfrwt>
<totfact> 0.67253134E+04</totfact>
</mgrwt>
</event>
<event>
 7    0  0.4709932E-002  0.4156492E+03  0.7546771E-02  0.1038492E+00
         21   -1    0    0  502  501  0.00000000000E+00  0.00000000000E+00  0.91078362266E+02  0.91078362266E+02  0.00000000000E+00 0. -1.
         21   -1    0    0  501  502 -0.00000000000E+00 -0.00000000000E+00 -0.47421868845E+03  0.47421868845E+03  0.00000000000E+00 0. -1.
      99926    2    1    2    0    0 -0.17763568394E-14 -0.17763568394E-14 -0.38314032619E+03  0.56529705072E+03  0.41564918621E+03 0.  0.
      99925    2    3    3    0    0  0.13694553435E+02  0.14304149114E+02 -0.15928195714E+03  0.30809629845E+03  0.26298372150E+03 0.  0.
         25    1    4    4    0    0  0.44640858052E+02  0.13666425525E+02 -0.96589578425E+02  0.16479269448E+03  0.12509000000E+03 0.  0.
         25    1    4    4    0    0 -0.30946304616E+02  0.63772358945E+00 -0.62692378710E+02  0.14330360396E+03  0.12509000000E+03 0.  0.
         25    1    3    3    0    0 -0.13694553435E+02 -0.14304149114E+02 -0.22385836905E+03  0.25720075227E+03  0.12509000000E+03 0.  0.
<mgrwt>
<rscale>  2 0.41564919E+03</rscale>
<asrwt>0</asrwt>
<pdfrwt beam="1">  1       21 0.13393877E-01 0.41564919E+03</pdfrwt>
<pdfrwt beam="2">  1       21 0.69738042E-01 0.41564919E+03</pdfrwt>
<totfact> 0.84153810E+04</totfact>
</mgrwt>
</event>
<event>
 7    0  0.4709932E-002  0.4542400E+03  0.7546771E-02  0.1026465E+00
         21   -1    0    0  502  501  0.00000000000E+00  0.00000000000E+00  0.54333447330E+02  0.54333447330E+02  0.00000000000E+00 0.  1.
         21   -1    0    0  501  502 -0.00000000000E+00 -0.00000000000E+00 -0.94938768436E+03  0.94938768436E+03  0.00000000000E+00 0.  1.
      99926    2    1    2    0    0  0.00000000000E+00  0.00000000000E+00 -0.89505423703E+03  0.10037211317E+04  0.45424004994E+03 0.  0.
      99925    2    3    3    0    0  0.27746864417E+02  0.95092292177E+02 -0.68133786670E+03  0.73701037532E+03  0.26296496385E+03 0.  0.
         25    1    4    4    0    0 -0.24880021141E+02  0.50103545624E+02 -0.30239695485E+03  0.33199519144E+03  0.12509000000E+03 0.  0.
         25    1    4    4    0    0  0.52626885558E+02  0.44988746553E+02 -0.37894091185E+03  0.40501518388E+03  0.12509000000E+03 0.  0.
         25    1    3    3    0    0 -0.27746864417E+02 -0.95092292177E+02 -0.21371637033E+03  0.26671075637E+03  0.12509000000E+03 0.  0.
<mgrwt>
<rscale>  2 0.45424005E+03</rscale>
<asrwt>0</asrwt>
<pdfrwt beam="1">  1       21 0.79902122E-02 0.45424005E+03</pdfrwt>
<pdfrwt beam="2">  1       21 0.13961585E+00 0.45424005E+03</pdfrwt>
<totfact> 0.39254819E+04</totfact>
</mgrwt>
</event>
<event>
 7    0  0.4709932E-002  0.4535224E+03  0.7546771E-02  0.1026677E+00
         21   -1    0    0  502  501  0.00000000000E+00  0.00000000000E+00  0.53747960736E+03  0.53747960736E+03  0.00000000000E+00 0. -1.
         21   -1    0    0  501  502 -0.00000000000E+00 -0.00000000000E+00 -0.95669947477E+02  0.95669947477E+02  0.00000000000E+00 0. -1.
      99926    2    1    2    0    0  0.00000000000E+00  0.00000000000E+00  0.44180965988E+03  0.63314955484E+03  0.45352241755E+03 0.  0.
      99925    2    3    3    0    0  0.66561306729E+02 -0.69362142481E+02  0.19909559037E+03  0.34366874027E+03  0.26311144895E+03 0.  0.
         25    1    4    4    0    0  0.68555872881E+02 -0.55984875055E+02  0.12416554417E+03  0.19722779824E+03  0.12509000000E+03 0.  0.
         25    1    3    3    0    0 -0.66561306729E+02  0.69362142481E+02  0.24271406951E+03  0.28948081456E+03  0.12509000000E+03 0.  0.
         25    1    4    4    0    0 -0.19945661523E+01 -0.13377267426E+02  0.74930046205E+02  0.14644094203E+03  0.12509000000E+03 0.  0.
<mgrwt>
<rscale>  2 0.45352242E+03</rscale>
<asrwt>0</asrwt>
<pdfrwt beam="1">  1       21 0.79041118E-01 0.45352242E+03</pdfrwt>
<pdfrwt beam="2">  1       21 0.14069110E-01 0.45352242E+03</pdfrwt>
<totfact> 0.57348768E+04</totfact>
</mgrwt>
</event>
<event>
 7    0  0.4709932E-002  0.4356715E+03  0.7546771E-02  0.1032083E+00
         21   -1    0    0  502  501  0.00000000000E+00  0.00000000000E+00  0.20342739512E+03  0.20342739512E+03  0.00000000000E+00 0. -1.
         21   -1    0    0  501  502 -0.00000000000E+00 -0.00000000000E+00 -0.23326466281E+03  0.23326466281E+03  0.00000000000E+00 0. -1.
      99926    2    1    2    0    0 -0.71054273576E-14 -0.71054273576E-14 -0.29837267688E+02  0.43669205793E+03  0.43567154017E+03 0.  0.
      99925    2    3    3    0    0  0.53241767091E+02 -0.51989541543E+02  0.38206301828E+02  0.27602148301E+03  0.26304094622E+03 0.  0.
         25    1    4    4    0    0 -0.32930394603E+01  0.26220733404E+01  0.25564366317E+02  0.12774491889E+03  0.12509000000E+03 0.  0.
         25    1    3    3    0    0 -0.53241767091E+02  0.51989541543E+02 -0.68043569516E+02  0.16067057492E+03  0.12509000000E+03 0.  0.
         25    1    4    4    0    0  0.56534806551E+02 -0.54611614883E+02  0.12641935511E+02  0.14827656411E+03  0.12509000000E+03 0.  0.
<mgrwt>
<rscale>  2 0.43567154E+03</rscale>
<asrwt>0</asrwt>
<pdfrwt beam="1">  1       21 0.29915794E-01 0.43567154E+03</pdfrwt>
<pdfrwt beam="2">  1       21 0.34303627E-01 0.43567154E+03</pdfrwt>
<totfact> 0.81816462E+04</totfact>
</mgrwt>
</event>
<event>
 6    0  0.4709932E-002  0.4558188E+03  0.7546771E-02  0.1026001E+00
         21   -1    0    0  502  501  0.00000000000E+00  0.00000000000E+00  0.23774901178E+04  0.23774901178E+04  0.00000000000E+00 0.  1.
         21   -1    0    0  501  502 -0.00000000000E+00 -0.00000000000E+00 -0.21847703320E+02  0.21847703320E+02  0.00000000000E+00 0.  1.
      99926    2    1    2    0    0  0.14210854715E-13  0.00000000000E+00  0.23556424145E+04  0.23993378212E+04  0.45581881813E+03 0.  0.
         25    1    3    3    0    0  0.35711595548E+02  0.22663404314E+01  0.38898542509E+03  0.41016779907E+03  0.12509000000E+03 0.  0.
         25    1    3    3    0    0  0.54360386357E+02  0.27107136618E+02  0.79804938345E+03  0.81007417869E+03  0.12509000000E+03 0.  0.
         25    1    3    3    0    0 -0.90071981905E+02 -0.29373477050E+02  0.11686076060E+04  0.11790958434E+04  0.12509000000E+03 0.  0.
<mgrwt>
<rscale>  2 0.45581882E+03</rscale>
<asrwt>0</asrwt>
<pdfrwt beam="1">  1       21 0.34963072E+00 0.45581882E+03</pdfrwt>
<pdfrwt beam="2">  1       21 0.32128992E-02 0.45581882E+03</pdfrwt>
<totfact> 0.81651702E+03</totfact>
</mgrwt>
</event>
<event>
 7    0  0.4709932E-002  0.4609475E+03  0.7546771E-02  0.1024507E+00
         21   -1    0    0  502  501  0.00000000000E+00  0.00000000000E+00  0.93591770372E+02  0.93591770372E+02  0.00000000000E+00 0.  1.
         21   -1    0    0  501  502 -0.00000000000E+00 -0.00000000000E+00 -0.56755155584E+03  0.56755155584E+03  0.00000000000E+00 0.  1.
      99926    2    1    2    0    0 -0.35527136788E-14 -0.35527136788E-14 -0.47395978547E+03  0.66114332621E+03  0.46094752364E+03 0.  0.
      99925    2    3    3    0    0 -0.17549564537E+02  0.10041685994E+02 -0.12889237413E+03  0.29354592532E+03  0.26295844442E+03 0.  0.
         25    1    4    4    0    0  0.35823842642E+01  0.43359490466E+02 -0.60150694047E+02  0.14545959228E+03  0.12509000000E+03 0.  0.
         25    1    4    4    0    0 -0.21131948802E+02 -0.33317804472E+02 -0.68741680085E+02  0.14808633305E+03  0.12509000000E+03 0.  0.
         25    1    3    3    0    0  0.17549564537E+02 -0.10041685994E+02 -0.34506741133E+03  0.36759740088E+03  0.12509000000E+03 0.  0.
<mgrwt>
<rscale>  2 0.46094752E+03</rscale>
<asrwt>0</asrwt>
<pdfrwt beam="1">  1       21 0.13763495E-01 0.46094752E+03</pdfrwt>
<pdfrwt beam="2">  1       21 0.83463468E-01 0.46094752E+03</pdfrwt>
<totfact> 0.52554954E+04</totfact>
</mgrwt>
</event>
<event>
 7    0  0.4709932E-002  0.4404006E+03  0.7546771E-02  0.1030624E+00
         21   -1    0    0  502  501  0.00000000000E+00  0.00000000000E+00  0.56406192920E+02  0.56406192920E+02  0.00000000000E+00 0.  1.
         21   -1    0    0  501  502 -0.00000000000E+00 -0.00000000000E+00 -0.85962507011E+03  0.85962507011E+03  0.00000000000E+00 0.  1.
      99926    2    1    2    0    0 -0.71054273576E-14  0.71054273576E-14 -0.80321887719E+03  0.91603126302E+03  0.44040062463E+03 0.  0.
      99925    2    3    3    0    0 -0.26555025715E+02  0.49807424233E+02 -0.34478221655E+03  0.43749429600E+03  0.26332590697E+03 0.  0.
         25    1    3    3    0    0  0.26555025715E+02 -0.49807424233E+02 -0.45843666063E+03  0.47853696703E+03  0.12509000000E+03 0.  0.
         25    1    4    4    0    0 -0.35356787219E+02  0.19464876080E+02 -0.11827795916E+03  0.17682241805E+03  0.12509000000E+03 0.  0.
         25    1    4    4    0    0  0.88017615031E+01  0.30342548153E+02 -0.22650425739E+03  0.26067187794E+03  0.12509000000E+03 0.  0.
<mgrwt>
<rscale>  2 0.44040062E+03</rscale>
<asrwt>0</asrwt>
<pdfrwt beam="1">  1       21 0.82950288E-02 0.44040062E+03</pdfrwt>
<pdfrwt beam="2">  1       21 0.12641544E+00 0.44040062E+03</pdfrwt>
<totfact> 0.47775102E+04</totfact>
</mgrwt>
</event>
<event>
 7    0  0.4709932E-002  0.4517234E+03  0.7546771E-02  0.1027209E+00
         21   -1    0    0  502  501  0.00000000000E+00  0.00000000000E+00  0.16830681144E+03  0.16830681144E+03  0.00000000000E+00 0. -1.
         21   -1    0    0  501  502 -0.00000000000E+00 -0.00000000000E+00 -0.30309835132E+03  0.30309835132E+03  0.00000000000E+00 0. -1.
      99926    2    1    2    0    0  0.26645352591E-14  0.88817841970E-15 -0.13479153988E+03  0.47140516276E+03  0.45172344222E+03 0.  0.
      99925    2    3    3    0    0  0.12104633275E+01 -0.10951803465E+01  0.29431805188E+02  0.26496030376E+03  0.26331552702E+03 0.  0.
         25    1    4    4    0    0 -0.22787385580E+02  0.23242244931E+02 -0.93963956001E+01  0.12959655567E+03  0.12509000000E+03 0.  0.
         25    1    3    3    0    0 -0.12104633275E+01  0.10951803465E+01 -0.16422334507E+03  0.20644485900E+03  0.12509000000E+03 0.  0.
         25    1    4    4    0    0  0.23997848907E+02 -0.24337425278E+02  0.38828200789E+02  0.13536374809E+03  0.12509000000E+03 0.  0.
<mgrwt>
<rscale>  2 0.45172344E+03</rscale>
<asrwt>0</asrwt>
<pdfrwt beam="1">  1       21 0.24751002E-01 0.45172344E+03</pdfrwt>
<pdfrwt beam="2">  1       21 0.44573287E-01 0.45172344E+03</pdfrwt>
<totfact> 0.69110763E+04</totfact>
</mgrwt>
</event>
<event>
 7    0  0.4709932E-002  0.4600564E+03  0.7546771E-02  0.1024765E+00
         21   -1    0    0  502  501  0.00000000000E+00  0.00000000000E+00  0.10894896477E+03  0.10894896477E+03  0.00000000000E+00 0. -1.
         21   -1    0    0  501  502 -0.00000000000E+00 -0.00000000000E+00 -0.48566761348E+03  0.48566761348E+03  0.00000000000E+00 0. -1.
      99926    2    1    2    0    0  0.00000000000E+00  0.00000000000E+00 -0.37671864871E+03  0.59461657825E+03  0.46005644745E+03 0.  0.
      99925    2    3    3    0    0 -0.53439115086E+02 -0.38350453318E+02 -0.10959827829E+03  0.29241251360E+03  0.26299581597E+03 0.  0.
         25    1    4    4    0    0  0.32276880400E+01 -0.46407551707E+02 -0.50565803541E+02  0.14271820982E+03  0.12509000000E+03 0.  0.
         25    1    4    4    0    0 -0.56666803126E+02  0.80570983888E+01 -0.59032474747E+02  0.14969430379E+03  0.12509000000E+03 0.  0.
         25    1    3    3    0    0  0.53439115086E+02  0.38350453318E+02 -0.26712037043E+03  0.30220406464E+03  0.12509000000E+03 0.  0.
<mgrwt>
<rscale>  2 0.46005645E+03</rscale>
<asrwt>0</asrwt>
<pdfrwt beam="1">  1       21 0.16021906E-01 0.46005645E+03</pdfrwt>
<pdfrwt beam="2">  1       21 0.71421709E-01 0.46005645E+03</pdfrwt>
<totfact> 0.56710538E+04</totfact>
</mgrwt>
</event>
<event>
 7    0  0.4709932E-002  0.4534252E+03  0.7546771E-02  0.1026706E+00
         21   -1    0    0  502  501  0.00000000000E+00  0.00000000000E+00  0.46654707609E+03  0.46654707609E+03  0.00000000000E+00 0. -1.
         21   -1    0    0  501  502 -0.00000000000E+00 -0.00000000000E+00 -0.11016808229E+03  0.11016808229E+03  0.00000000000E+00 0. -1.
      99926    2    1    2    0    0 -0.35527136788E-14  0.00000000000E+00  0.35637899380E+03  0.57671515838E+03  0.45342517209E+03 0.  0.
      99925    2    3    3    0    0 -0.17672765724E+02  0.10685854629E+03  0.25964631780E+03  0.38504931826E+03  0.26289863366E+03 0.  0.
         25    1    4    4    0    0  0.16172186676E+02  0.19175809667E+02  0.12530251037E+03  0.17882247762E+03  0.12509000000E+03 0.  0.
         25    1    4    4    0    0 -0.33844952400E+02  0.87682736623E+02  0.13434380743E+03  0.20622684064E+03  0.12509000000E+03 0.  0.
         25    1    3    3    0    0  0.17672765724E+02 -0.10685854629E+03  0.96732675996E+02  0.19166584012E+03  0.12509000000E+03 0.  0.
<mgrwt>
<rscale>  2 0.45342517E+03</rscale>
<asrwt>0</asrwt>
<pdfrwt beam="1">  1       21 0.68609863E-01 0.45342517E+03</pdfrwt>
<pdfrwt beam="2">  1       21 0.16201189E-01 0.45342517E+03</pdfrwt>
<totfact> 0.60889512E+04</totfact>
</mgrwt>
</event>
<event>
 7    0  0.4709932E-002  0.4543312E+03  0.7546771E-02  0.1026438E+00
         21   -1    0    0  502  501  0.00000000000E+00  0.00000000000E+00  0.48359818510E+02  0.48359818510E+02  0.00000000000E+00 0.  1.
         21   -1    0    0  501  502 -0.00000000000E+00 -0.00000000000E+00 -0.10670884361E+04  0.10670884361E+04  0.00000000000E+00 0.  1.
      99926    2    1    2    0    0  0.00000000000E+00  0.00000000000E+00 -0.10187286176E+04  0.11154482546E+04  0.45433117041E+03 0.  0.
      99925    2    3    3    0    0  0.65968123611E+02  0.24395144913E+02 -0.85587368315E+03  0.89838569634E+03  0.26387531421E+03 0.  0.
         25    1    4    4    0    0  0.56048847192E+02  0.46381800272E+02 -0.41690368723E+03  0.44130367911E+03  0.12509000000E+03 0.  0.
         25    1    4    4    0    0  0.99192764193E+01 -0.21986655360E+02 -0.43896999591E+03  0.45708201722E+03  0.12509000000E+03 0.  0.
         25    1    3    3    0    0 -0.65968123611E+02 -0.24395144913E+02 -0.16285493441E+03  0.21706255824E+03  0.12509000000E+03 0.  0.
<mgrwt>
<rscale>  2 0.45433117E+03</rscale>
<asrwt>0</asrwt>
<pdfrwt beam="1">  1       21 0.71117383E-02 0.45433117E+03</pdfrwt>
<pdfrwt beam="2">  1       21 0.15692476E+00 0.45433117E+03</pdfrwt>
<totfact> 0.35139980E+04</totfact>
</mgrwt>
</event>
<event>
 7    0  0.4709932E-002  0.4510239E+03  0.7546771E-02  0.1027417E+00
         21   -1    0    0  502  501  0.00000000000E+00  0.00000000000E+00  0.19769964615E+04  0.19769964615E+04  0.00000000000E+00 0.  1.
         21   -1    0    0  501  502 -0.00000000000E+00 -0.00000000000E+00 -0.25723690137E+02  0.25723690137E+02  0.00000000000E+00 0.  1.
      99926    2    1    2    0    0 -0.71054273576E-14  0.00000000000E+00  0.19512727714E+04  0.20027201517E+04  0.45102392122E+03 0.  0.
      99925    2    3    3    0    0  0.57351619996E+02  0.73083599306E+02  0.14886310498E+04  0.15145446797E+04  0.26304517382E+03 0.  0.
         25    1    4    4    0    0 -0.92373109659E+01  0.45726605921E+02  0.64733150406E+03  0.66095524406E+03  0.12509000000E+03 0.  0.
         25    1    4    4    0    0  0.66588930962E+02  0.27356993385E+02  0.84129954578E+03  0.85358943564E+03  0.12509000000E+03 0.  0.
         25    1    3    3    0    0 -0.57351619996E+02 -0.73083599306E+02  0.46264172157E+03  0.48817547198E+03  0.12509000000E+03 0.  0.
<mgrwt>
<rscale>  2 0.45102392E+03</rscale>
<asrwt>0</asrwt>
<pdfrwt beam="1">  1       21 0.29073467E+00 0.45102392E+03</pdfrwt>
<pdfrwt beam="2">  1       21 0.37828970E-02 0.45102392E+03</pdfrwt>
<totfact> 0.14095335E+04</totfact>
</mgrwt>
</event>
<event>
 7    0  0.4709932E-002  0.4513987E+03  0.7546771E-02  0.1027306E+00
         21   -1    0    0  502  501  0.00000000000E+00  0.00000000000E+00  0.48148082954E+02  0.48148082954E+02  0.00000000000E+00 0.  1.
         21   -1    0    0  501  502 -0.00000000000E+00 -0.00000000000E+00 -0.10579903529E+04  0.10579903529E+04  0.00000000000E+00 0.  1.
      99926    2    1    2    0    0  0.00000000000E+00  0.00000000000E+00 -0.10098422700E+04  0.11061384359E+04  0.45139874735E+03 0.  0.
      99925    2    3    3    0    0  0.31710410130E+02  0.69218855684E+02 -0.82936512875E+03  0.87372435134E+03  0.26410400457E+03 0.  0.
         25    1    4    4    0    0  0.37440430353E+02  0.72896754673E+02 -0.45879633961E+03  0.48255291110E+03  0.12509000000E+03 0.  0.
         25    1    4    4    0    0 -0.57300202234E+01 -0.36778989888E+01 -0.37056878914E+03  0.39117144024E+03  0.12509000000E+03 0.  0.
         25    1    3    3    0    0 -0.31710410130E+02 -0.69218855684E+02 -0.18047714122E+03  0.23241408455E+03  0.12509000000E+03 0.  0.
<mgrwt>
<rscale>  2 0.45139875E+03</rscale>
<asrwt>0</asrwt>
<pdfrwt beam="1">  1       21 0.70806012E-02 0.45139875E+03</pdfrwt>
<pdfrwt beam="2">  1       21 0.15558680E+00 0.45139875E+03</pdfrwt>
<totfact> 0.36289239E+04</totfact>
</mgrwt>
</event>
<event>
 7    0  0.4709932E-002  0.4539187E+03  0.7546771E-02  0.1026560E+00
         21   -1    0    0  502  501  0.00000000000E+00  0.00000000000E+00  0.74673981375E+02  0.74673981375E+02  0.00000000000E+00 0.  1.
         21   -1    0    0  501  502 -0.00000000000E+00 -0.00000000000E+00 -0.68980573117E+03  0.68980573117E+03  0.00000000000E+00 0.  1.
      99926    2    1    2    0    0  0.14210854715E-13 -0.35527136788E-14 -0.61513174979E+03  0.76447971254E+03  0.45391867255E+03 0.  0.
      99925    2    3    3    0    0  0.96598839905E+02 -0.20533480365E+02 -0.47721657217E+03  0.55371666074E+03  0.26289451105E+03 0.  0.
         25    1    3    3    0    0 -0.96598839905E+02  0.20533480365E+02 -0.13791517762E+03  0.21076305180E+03  0.12509000000E+03 0.  0.
         25    1    4    4    0    0  0.14269935475E+02  0.14767091408E+02 -0.22629596250E+03  0.25938209034E+03  0.12509000000E+03 0.  0.
         25    1    4    4    0    0  0.82328904430E+02 -0.35300571773E+02 -0.25092060968E+03  0.29433457040E+03  0.12509000000E+03 0.  0.
<mgrwt>
<rscale>  2 0.45391867E+03</rscale>
<asrwt>0</asrwt>
<pdfrwt beam="1">  1       21 0.10981468E-01 0.45391867E+03</pdfrwt>
<pdfrwt beam="2">  1       21 0.10144202E+00 0.45391867E+03</pdfrwt>
<totfact> 0.49953368E+04</totfact>
</mgrwt>
</event>
<event>
 7    0  0.4709932E-002  0.4508384E+03  0.7546771E-02  0.1027472E+00
         21   -1    0    0  502  501  0.00000000000E+00  0.00000000000E+00  0.18241615925E+03  0.18241615925E+03  0.00000000000E+00 0. -1.
         21   -1    0    0  501  502 -0.00000000000E+00 -0.00000000000E+00 -0.27855981962E+03  0.27855981962E+03  0.00000000000E+00 0. -1.
      99926    2    1    2    0    0  0.00000000000E+00  0.71054273576E-14 -0.96143660379E+02  0.46097597887E+03  0.45083838530E+03 0.  0.
      99925    2    3    3    0    0 -0.33790843884E+02  0.55554703215E+02  0.28736535472E+02  0.27263926552E+03  0.26320758814E+03 0.  0.
         25    1    4    4    0    0 -0.91627473383E+01  0.29985642142E+02 -0.26005913024E+02  0.13155573072E+03  0.12509000000E+03 0.  0.
         25    1    4    4    0    0 -0.24628096546E+02  0.25569061073E+02  0.54742448497E+02  0.14108353480E+03  0.12509000000E+03 0.  0.
         25    1    3    3    0    0  0.33790843884E+02 -0.55554703215E+02 -0.12488019585E+03  0.18833671335E+03  0.12509000000E+03 0.  0.
<mgrwt>
<rscale>  2 0.45083839E+03</rscale>
<asrwt>0</asrwt>
<pdfrwt beam="1">  1       21 0.26825906E-01 0.45083839E+03</pdfrwt>
<pdfrwt beam="2">  1       21 0.40964679E-01 0.45083839E+03</pdfrwt>
<totfact> 0.70409057E+04</totfact>
</mgrwt>
</event>
<event>
 7    0  0.4709932E-002  0.4575814E+03  0.7546771E-02  0.1025485E+00
         21   -1    0    0  502  501  0.00000000000E+00  0.00000000000E+00  0.57167424073E+03  0.57167424073E+03  0.00000000000E+00 0. -1.
         21   -1    0    0  501  502 -0.00000000000E+00 -0.00000000000E+00 -0.91564701054E+02  0.91564701054E+02  0.00000000000E+00 0. -1.
      99926    2    1    2    0    0  0.00000000000E+00  0.00000000000E+00  0.48010953967E+03  0.66323894178E+03  0.45758138490E+03 0.  0.
      99925    2    3    3    0    0  0.43839819533E+02  0.91348482867E+02  0.22117001948E+03  0.35833951850E+03  0.26310560219E+03 0.  0.
         25    1    4    4    0    0  0.18561556630E+02  0.56305095172E+02  0.62954251902E+02  0.15207084224E+03  0.12509000000E+03 0.  0.
         25    1    3    3    0    0 -0.43839819533E+02 -0.91348482867E+02  0.25893952019E+03  0.30489942328E+03  0.12509000000E+03 0.  0.
         25    1    4    4    0    0  0.25278262903E+02  0.35043387695E+02  0.15821576758E+03  0.20626867626E+03  0.12509000000E+03 0.  0.
<mgrwt>
<rscale>  2 0.45758138E+03</rscale>
<asrwt>0</asrwt>
<pdfrwt beam="1">  1       21 0.84069740E-01 0.45758138E+03</pdfrwt>
<pdfrwt beam="2">  1       21 0.13465397E-01 0.45758138E+03</pdfrwt>
<totfact> 0.53840140E+04</totfact>
</mgrwt>
</event>
<event>
 7    0  0.4709932E-002  0.4498419E+03  0.7546771E-02  0.1027769E+00
         21   -1    0    0  502  501  0.00000000000E+00  0.00000000000E+00  0.35914785954E+03  0.35914785954E+03  0.00000000000E+00 0. -1.
         21   -1    0    0  501  502 -0.00000000000E+00 -0.00000000000E+00 -0.14085964493E+03  0.14085964493E+03  0.00000000000E+00 0. -1.
      99926    2    1    2    0    0  0.00000000000E+00 -0.17763568394E-14  0.21828821461E+03  0.50000750447E+03  0.44984192767E+03 0.  0.
      99925    2    3    3    0    0  0.38020417849E+02  0.89436021129E+01  0.25807602935E+02  0.26715168178E+03  0.26301796234E+03 0.  0.
         25    1    4    4    0    0 -0.21233015530E+02 -0.13958591521E+01  0.17697208474E+02  0.12811513829E+03  0.12509000000E+03 0.  0.
         25    1    4    4    0    0  0.59253433379E+02  0.10339461265E+02  0.81103944611E+01  0.13903654349E+03  0.12509000000E+03 0.  0.
         25    1    3    3    0    0 -0.38020417849E+02 -0.89436021129E+01  0.19248061168E+03  0.23285582270E+03  0.12509000000E+03 0.  0.
<mgrwt>
<rscale>  2 0.44984193E+03</rscale>
<asrwt>0</asrwt>
<pdfrwt beam="1">  1       21 0.52815862E-01 0.44984193E+03</pdfrwt>
<pdfrwt beam="2">  1       21 0.20714654E-01 0.44984193E+03</pdfrwt>
<totfact> 0.68012388E+04</totfact>
</mgrwt>
</event>
<event>
 7    0  0.4709932E-002  0.4655128E+03  0.7546771E-02  0.1023194E+00
         21   -1    0    0  502  501  0.00000000000E+00  0.00000000000E+00  0.47591164244E+02  0.47591164244E+02  0.00000000000E+00 0.  1.
         21   -1    0    0  501  502 -0.00000000000E+00 -0.00000000000E+00 -0.11383527511E+04  0.11383527511E+04  0.00000000000E+00 0.  1.
      99926    2    1    2    0    0  0.00000000000E+00  0.00000000000E+00 -0.10907615868E+04  0.11859439153E+04  0.46551276134E+03 0.  0.
      99925    2    3    3    0    0 -0.60465334833E+02  0.78311053257E+02 -0.49473048574E+03  0.56894370515E+03  0.26296389169E+03 0.  0.
         25    1    3    3    0    0  0.60465334833E+02 -0.78311053257E+02 -0.59603110107E+03  0.61700021015E+03  0.12509000000E+03 0.  0.
         25    1    4    4    0    0 -0.26562223129E+02  0.65738670652E+02 -0.32188349177E+03  0.35253881331E+03  0.12509000000E+03 0.  0.
         25    1    4    4    0    0 -0.33903111704E+02  0.12572382605E+02 -0.17284699397E+03  0.21640489184E+03  0.12509000000E+03 0.  0.
<mgrwt>
<rscale>  2 0.46551276E+03</rscale>
<asrwt>0</asrwt>
<pdfrwt beam="1">  1       21 0.69987018E-02 0.46551276E+03</pdfrwt>
<pdfrwt beam="2">  1       21 0.16740479E+00 0.46551276E+03</pdfrwt>
<totfact> 0.30065594E+04</totfact>
</mgrwt>
</event>
<event>
 7    0  0.4709932E-002  0.4559786E+03  0.7546771E-02  0.1025954E+00
         21   -1    0    0  502  501  0.00000000000E+00  0.00000000000E+00  0.18196866484E+03  0.18196866484E+03  0.00000000000E+00 0. -1.
         21   -1    0    0  501  502 -0.00000000000E+00 -0.00000000000E+00 -0.28564876226E+03  0.28564876226E+03  0.00000000000E+00 0. -1.
      99926    2    1    2    0    0  0.00000000000E+00  0.00000000000E+00 -0.10368009742E+03  0.46761742710E+03  0.45597861301E+03 0.  0.
      99925    2    3    3    0    0 -0.29752025911E+02 -0.77797868889E+02  0.14776960926E+02  0.27626102083E+03  0.26299068730E+03 0.  0.
         25    1    3    3    0    0  0.29752025911E+02  0.77797868889E+02 -0.11845705834E+03  0.19135640627E+03  0.12509000000E+03 0.  0.
         25    1    4    4    0    0 -0.21791826327E+01 -0.36956177566E+02 -0.31268882555E+02  0.13414827250E+03  0.12509000000E+03 0.  0.
         25    1    4    4    0    0 -0.27572843278E+02 -0.40841691323E+02  0.46045843481E+02  0.14211274833E+03  0.12509000000E+03 0.  0.
<mgrwt>
<rscale>  2 0.45597861E+03</rscale>
<asrwt>0</asrwt>
<pdfrwt beam="1">  1       21 0.26760098E-01 0.45597861E+03</pdfrwt>
<pdfrwt beam="2">  1       21 0.42007170E-01 0.45597861E+03</pdfrwt>
<totfact> 0.67091315E+04</totfact>
</mgrwt>
</event>
<event>
 7    0  0.4709932E-002  0.4533826E+03  0.7546771E-02  0.1026718E+00
         21   -1    0    0  502  501  0.00000000000E+00  0.00000000000E+00  0.77578427854E+03  0.77578427854E+03  0.00000000000E+00 0. -1.
         21   -1    0    0  501  502 -0.00000000000E+00 -0.00000000000E+00 -0.66241281855E+02  0.66241281855E+02  0.00000000000E+00 0. -1.
      99926    2    1    2    0    0  0.14210854715E-13  0.00000000000E+00  0.70954299668E+03  0.84202556039E+03  0.45338259805E+03 0.  0.
      99925    2    3    3    0    0  0.95315077971E+02  0.36607676637E+02  0.36325334775E+03  0.45994034067E+03  0.26299626659E+03 0.  0.
         25    1    4    4    0    0  0.31450814227E+02  0.49875940614E+02  0.14779235934E+03  0.20240269945E+03  0.12509000000E+03 0.  0.
         25    1    3    3    0    0 -0.95315077971E+02 -0.36607676637E+02  0.34628964893E+03  0.38208521973E+03  0.12509000000E+03 0.  0.
         25    1    4    4    0    0  0.63864263744E+02 -0.13268263976E+02  0.21546098842E+03  0.25753764121E+03  0.12509000000E+03 0.  0.
<mgrwt>
<rscale>  2 0.45338260E+03</rscale>
<asrwt>0</asrwt>
<pdfrwt beam="1">  1       21 0.11408592E+00 0.45338260E+03</pdfrwt>
<pdfrwt beam="2">  1       21 0.97413654E-02 0.45338260E+03</pdfrwt>
<totfact> 0.46384000E+04</totfact>
</mgrwt>
</event>
<event>
 7    0  0.4709932E-002  0.4653321E+03  0.7546771E-02  0.1023246E+00
         21   -1    0    0  502  501  0.00000000000E+00  0.00000000000E+00  0.52636913149E+03  0.52636913149E+03  0.00000000000E+00 0. -1.
         21   -1    0    0  501  502 -0.00000000000E+00 -0.00000000000E+00 -0.10284318985E+03  0.10284318985E+03  0.00000000000E+00 0. -1.
      99926    2    1    2    0    0  0.71054273576E-14 -0.71054273576E-14  0.42352594164E+03  0.62921232134E+03  0.46533205572E+03 0.  0.
      99925    2    3    3    0    0  0.52534263968E+02 -0.37373666321E+02  0.40511464155E+03  0.48728584778E+03  0.26300757560E+03 0.  0.
         25    1    4    4    0    0  0.37757172177E+02 -0.49625101309E+00  0.26402582724E+03  0.29458953794E+03  0.12509000000E+03 0.  0.
         25    1    4    4    0    0  0.14777091791E+02 -0.36877415308E+02  0.14108881431E+03  0.19269630984E+03  0.12509000000E+03 0.  0.
         25    1    3    3    0    0 -0.52534263968E+02  0.37373666321E+02  0.18411300088E+02  0.14192647356E+03  0.12509000000E+03 0.  0.
<mgrwt>
<rscale>  2 0.46533206E+03</rscale>
<asrwt>0</asrwt>
<pdfrwt beam="1">  1       21 0.77407225E-01 0.46533206E+03</pdfrwt>
<pdfrwt beam="2">  1       21 0.15123999E-01 0.46533206E+03</pdfrwt>
<totfact> 0.52499979E+04</totfact>
</mgrwt>
</event>
<event>
 7    0  0.4709932E-002  0.4267426E+03  0.7546771E-02  0.1034894E+00
         21   -1    0    0  502  501  0.00000000000E+00  0.00000000000E+00  0.33543597384E+03  0.33543597384E+03  0.00000000000E+00 0.  1.
         21   -1    0    0  501  502 -0.00000000000E+00 -0.00000000000E+00 -0.13572575895E+03  0.13572575895E+03  0.00000000000E+00 0.  1.
      99926    2    1    2    0    0  0.00000000000E+00 -0.39968028887E-14  0.19971021489E+03  0.47116173279E+03  0.42674255532E+03 0.  0.
      99925    2    3    3    0    0  0.42659995240E+02  0.21668109267E+01  0.49438153373E+02  0.27102735085E+03  0.26303445333E+03 0.  0.
         25    1    4    4    0    0  0.19357156790E+02 -0.32648886689E+02  0.16892717245E+01  0.13073259372E+03  0.12509000000E+03 0.  0.
         25    1    4    4    0    0  0.23302838449E+02  0.34815697616E+02  0.47748881648E+02  0.14029475713E+03  0.12509000000E+03 0.  0.
         25    1    3    3    0    0 -0.42659995240E+02 -0.21668109267E+01  0.15027206152E+03  0.20013438194E+03  0.12509000000E+03 0.  0.
<mgrwt>
<rscale>  2 0.42674256E+03</rscale>
<asrwt>0</asrwt>
<pdfrwt beam="1">  1       21 0.49328820E-01 0.42674256E+03</pdfrwt>
<pdfrwt beam="2">  1       21 0.19959670E-01 0.42674256E+03</pdfrwt>
<totfact> 0.84841773E+04</totfact>
</mgrwt>
</event>
<event>
 7    0  0.4709932E-002  0.4688329E+03  0.7546771E-02  0.1022250E+00
         21   -1    0    0  502  501  0.00000000000E+00  0.00000000000E+00  0.20314791472E+04  0.20314791472E+04  0.00000000000E+00 0. -1.
         21   -1    0    0  501  502 -0.00000000000E+00 -0.00000000000E+00 -0.27049788218E+02  0.27049788218E+02  0.00000000000E+00 0. -1.
      99926    2    1    2    0    0 -0.14210854715E-13  0.71054273576E-14  0.20044293590E+04  0.20585289355E+04  0.46883293699E+03 0.  0.
      99925    2    3    3    0    0  0.11454463243E+03 -0.51601453412E+02  0.12278160161E+04  0.12619368345E+04  0.26300042214E+03 0.  0.
         25    1    3    3    0    0 -0.11454463243E+03  0.51601453412E+02  0.77661334293E+03  0.79659210097E+03  0.12509000000E+03 0.  0.
         25    1    4    4    0    0  0.34981936515E+02 -0.38536919662E+02  0.72532569120E+03  0.73787105681E+03  0.12509000000E+03 0.  0.
         25    1    4    4    0    0  0.79562695918E+02 -0.13064533750E+02  0.50249032489E+03  0.52406577768E+03  0.12509000000E+03 0.  0.
<mgrwt>
<rscale>  2 0.46883294E+03</rscale>
<asrwt>0</asrwt>
<pdfrwt beam="1">  1       21 0.29874683E+00 0.46883294E+03</pdfrwt>
<pdfrwt beam="2">  1       21 0.39779114E-02 0.46883294E+03</pdfrwt>
<totfact> 0.11493059E+04</totfact>
</mgrwt>
</event>
<event>
 7    0  0.4709932E-002  0.4603853E+03  0.7546771E-02  0.1024670E+00
         21   -1    0    0  502  501  0.00000000000E+00  0.00000000000E+00  0.75217958291E+02  0.75217958291E+02  0.00000000000E+00 0.  1.
         21   -1    0    0  501  502 -0.00000000000E+00 -0.00000000000E+00 -0.70446819149E+03  0.70446819149E+03  0.00000000000E+00 0.  1.
      99926    2    1    2    0    0  0.14210854715E-13 -0.35527136788E-14 -0.62925023320E+03  0.77968614978E+03  0.46038531273E+03 0.  0.
      99925    2    3    3    0    0  0.11596870949E+03 -0.11237318824E+02 -0.36783199356E+03  0.46733694932E+03  0.26368244119E+03 0.  0.
         25    1    4    4    0    0  0.63316218946E+02  0.35578841854E+02 -0.17967937229E+03  0.23066638787E+03  0.12509000000E+03 0.  0.
         25    1    4    4    0    0  0.52652490544E+02 -0.46816160678E+02 -0.18815262128E+03  0.23667056144E+03  0.12509000000E+03 0.  0.
         25    1    3    3    0    0 -0.11596870949E+03  0.11237318824E+02 -0.26141823963E+03  0.31234920046E+03  0.12509000000E+03 0.  0.
<mgrwt>
<rscale>  2 0.46038531E+03</rscale>
<asrwt>0</asrwt>
<pdfrwt beam="1">  1       21 0.11061464E-01 0.46038531E+03</pdfrwt>
<pdfrwt beam="2">  1       21 0.10359827E+00 0.46038531E+03</pdfrwt>
<totfact> 0.46755197E+04</totfact>
</mgrwt>
</event>
<event>
 7    0  0.4709932E-002  0.4549563E+03  0.7546771E-02  0.1026254E+00
         21   -1    0    0  502  501  0.00000000000E+00  0.00000000000E+00  0.14460600619E+03  0.14460600619E+03  0.00000000000E+00 0. -1.
         21   -1    0    0  501  502 -0.00000000000E+00 -0.00000000000E+00 -0.35784346650E+03  0.35784346650E+03  0.00000000000E+00 0. -1.
      99926    2    1    2    0    0 -0.71054273576E-14  0.00000000000E+00 -0.21323746031E+03  0.50244947269E+03  0.45495632551E+03 0.  0.
      99925    2    3    3    0    0 -0.55171776061E+02  0.32113579696E+02 -0.23733104895E+03  0.35996011874E+03  0.26300200268E+03 0.  0.
         25    1    4    4    0    0  0.67724391277E+01  0.56855852528E+01 -0.13885591883E+03  0.18710068441E+03  0.12509000000E+03 0.  0.
         25    1    3    3    0    0  0.55171776061E+02 -0.32113579696E+02  0.24093588642E+02  0.14248935395E+03  0.12509000000E+03 0.  0.
         25    1    4    4    0    0 -0.61944215188E+02  0.26427994444E+02 -0.98475130118E+02  0.17285943433E+03  0.12509000000E+03 0.  0.
<mgrwt>
<rscale>  2 0.45495633E+03</rscale>
<asrwt>0</asrwt>
<pdfrwt beam="1">  1       21 0.21265590E-01 0.45495633E+03</pdfrwt>
<pdfrwt beam="2">  1       21 0.52624038E-01 0.45495633E+03</pdfrwt>
<totfact> 0.65121494E+04</totfact>
</mgrwt>
</event>
<event>
 7    0  0.4709932E-002  0.4596275E+03  0.7546771E-02  0.1024889E+00
         21   -1    0    0  502  501  0.00000000000E+00  0.00000000000E+00  0.76819597999E+02  0.76819597999E+02  0.00000000000E+00 0. -1.
         21   -1    0    0  501  502 -0.00000000000E+00 -0.00000000000E+00 -0.68751156262E+03  0.68751156262E+03  0.00000000000E+00 0. -1.
      99926    2    1    2    0    0  0.00000000000E+00  0.88817841970E-15 -0.61069196462E+03  0.76433116062E+03  0.45962750945E+03 0.  0.
      99925    2    3    3    0    0 -0.11716425238E+03  0.73351694365E+01 -0.38923285639E+03  0.48420099183E+03  0.26299642061E+03 0.  0.
         25    1    4    4    0    0 -0.44710914200E+02  0.17727373616E+02 -0.12727573392E+03  0.18482409521E+03  0.12509000000E+03 0.  0.
         25    1    3    3    0    0  0.11716425238E+03 -0.73351694365E+01 -0.22145910824E+03  0.28013016879E+03  0.12509000000E+03 0.  0.
         25    1    4    4    0    0 -0.72453338179E+02 -0.10392204180E+02 -0.26195712247E+03  0.29937689662E+03  0.12509000000E+03 0.  0.
<mgrwt>
<rscale>  2 0.45962751E+03</rscale>
<asrwt>0</asrwt>
<pdfrwt beam="1">  1       21 0.11297000E-01 0.45962751E+03</pdfrwt>
<pdfrwt beam="2">  1       21 0.10110464E+00 0.45962751E+03</pdfrwt>
<totfact> 0.47778671E+04</totfact>
</mgrwt>
</event>
<event>
 7    0  0.4709932E-002  0.4541770E+03  0.7546771E-02  0.1026484E+00
         21   -1    0    0  502  501  0.00000000000E+00  0.00000000000E+00  0.70531444803E+02  0.70531444803E+02  0.00000000000E+00 0.  1.
         21   -1    0    0  501  502 -0.00000000000E+00 -0.00000000000E+00 -0.73115158132E+03  0.73115158132E+03  0.00000000000E+00 0.  1.
      99926    2    1    2    0    0  0.00000000000E+00  0.00000000000E+00 -0.66062013651E+03  0.80168302612E+03  0.45417695846E+03 0.  0.
      99925    2    3    3    0    0  0.99899582827E+01  0.10134406109E+03 -0.49992269349E+03  0.57399553353E+03  0.26301664409E+03 0.  0.
         25    1    4    4    0    0  0.18666259864E+02  0.59742415116E+02 -0.33252019214E+03  0.36074197386E+03  0.12509000000E+03 0.  0.
         25    1    3    3    0    0 -0.99899582827E+01 -0.10134406109E+03 -0.16069744303E+03  0.22768749259E+03  0.12509000000E+03 0.  0.
         25    1    4    4    0    0 -0.86763015815E+01  0.41601645976E+02 -0.16740250135E+03  0.21325355968E+03  0.12509000000E+03 0.  0.
<mgrwt>
<rscale>  2 0.45417696E+03</rscale>
<asrwt>0</asrwt>
<pdfrwt beam="1">  1       21 0.10372271E-01 0.45417696E+03</pdfrwt>
<pdfrwt beam="2">  1       21 0.10752230E+00 0.45417696E+03</pdfrwt>
<totfact> 0.47992740E+04</totfact>
</mgrwt>
</event>
<event>
 7    0  0.4709932E-002  0.4508403E+03  0.7546771E-02  0.1027472E+00
         21   -1    0    0  502  501  0.00000000000E+00  0.00000000000E+00  0.81400074946E+02  0.81400074946E+02  0.00000000000E+00 0. -1.
         21   -1    0    0  501  502 -0.00000000000E+00 -0.00000000000E+00 -0.62425308410E+03  0.62425308410E+03  0.00000000000E+00 0. -1.
      99926    2    1    2    0    0  0.00000000000E+00  0.00000000000E+00 -0.54285300915E+03  0.70565315904E+03  0.45084031688E+03 0.  0.
      99925    2    3    3    0    0  0.35631475019E+02 -0.13338527378E+02 -0.50312696230E+03  0.56900329544E+03  0.26302184644E+03 0.  0.
         25    1    3    3    0    0 -0.35631475019E+02  0.13338527378E+02 -0.39726046854E+02  0.13664986361E+03  0.12509000000E+03 0.  0.
         25    1    4    4    0    0 -0.37964860524E+01  0.41494230067E+01 -0.17484037890E+03  0.21505417274E+03  0.12509000000E+03 0.  0.
         25    1    4    4    0    0  0.39427961071E+02 -0.17487950385E+02 -0.32828658340E+03  0.35394912270E+03  0.12509000000E+03 0.  0.
<mgrwt>
<rscale>  2 0.45084032E+03</rscale>
<asrwt>0</asrwt>
<pdfrwt beam="1">  1       21 0.11970599E-01 0.45084032E+03</pdfrwt>
<pdfrwt beam="2">  1       21 0.91801926E-01 0.45084032E+03</pdfrwt>
<totfact> 0.54354420E+04</totfact>
</mgrwt>
</event>
<event>
 7    0  0.4709932E-002  0.4742849E+03  0.7546771E-02  0.1020718E+00
         21   -1    0    0  502  501  0.00000000000E+00  0.00000000000E+00  0.41641603055E+02  0.41641603055E+02  0.00000000000E+00 0. -1.
         21   -1    0    0  501  502 -0.00000000000E+00 -0.00000000000E+00 -0.13504890716E+04  0.13504890716E+04  0.00000000000E+00 0. -1.
      99926    2    1    2    0    0  0.00000000000E+00  0.00000000000E+00 -0.13088474685E+04  0.13921306747E+04  0.47428485049E+03 0.  0.
      99925    2    3    3    0    0  0.36566909589E+02  0.12516179515E+03 -0.79477204752E+03  0.84722365466E+03  0.26291196178E+03 0.  0.
         25    1    3    3    0    0 -0.36566909589E+02 -0.12516179515E+03 -0.51407542103E+03  0.54490702001E+03  0.12509000000E+03 0.  0.
         25    1    4    4    0    0  0.29416629648E+02  0.20802190351E+02 -0.36965543788E+03  0.39190651956E+03  0.12509000000E+03 0.  0.
         25    1    4    4    0    0  0.71502799417E+01  0.10435960480E+03 -0.42511660964E+03  0.45531713509E+03  0.12509000000E+03 0.  0.
<mgrwt>
<rscale>  2 0.47428485E+03</rscale>
<asrwt>0</asrwt>
<pdfrwt beam="1">  1       21 0.61237659E-02 0.47428485E+03</pdfrwt>
<pdfrwt beam="2">  1       21 0.19860131E+00 0.47428485E+03</pdfrwt>
<totfact> 0.22911449E+04</totfact>
</mgrwt>
</event>
<event>
 7    0  0.4709932E-002  0.4558071E+03  0.7546771E-02  0.1026004E+00
         21   -1    0    0  502  501  0.00000000000E+00  0.00000000000E+00  0.29297374766E+02  0.29297374766E+02  0.00000000000E+00 0. -1.
         21   -1    0    0  501  502 -0.00000000000E+00 -0.00000000000E+00 -0.17728562646E+04  0.17728562646E+04  0.00000000000E+00 0. -1.
      99926    2    1    2    0    0  0.71054273576E-14 -0.14210854715E-13 -0.17435588899E+04  0.18021536394E+04  0.45580712759E+03 0.  0.
      99925    2    3    3    0    0 -0.53565972988E+02  0.97810186629E+02 -0.11886255736E+04  0.12224686908E+04  0.26298821193E+03 0.  0.
         25    1    3    3    0    0  0.53565972988E+02 -0.97810186629E+02 -0.55493331626E+03  0.57968494862E+03  0.12509000000E+03 0.  0.
         25    1    4    4    0    0 -0.43948571108E+02  0.22535131158E+02 -0.45797288744E+03  0.47731120117E+03  0.12509000000E+03 0.  0.
         25    1    4    4    0    0 -0.96174018800E+01  0.75275055471E+02 -0.73065268617E+03  0.74515748959E+03  0.12509000000E+03 0.  0.
<mgrwt>
<rscale>  2 0.45580713E+03</rscale>
<asrwt>0</asrwt>
<pdfrwt beam="1">  1       21 0.43084362E-02 0.45580713E+03</pdfrwt>
<pdfrwt beam="2">  1       21 0.26071423E+00 0.45580713E+03</pdfrwt>
<totfact> 0.17110627E+04</totfact>
</mgrwt>
</event>
<event>
 7    0  0.4709932E-002  0.4406063E+03  0.7546771E-02  0.1030561E+00
         21   -1    0    0  502  501  0.00000000000E+00  0.00000000000E+00  0.52191196070E+03  0.52191196070E+03  0.00000000000E+00 0. -1.
         21   -1    0    0  501  502 -0.00000000000E+00 -0.00000000000E+00 -0.92991690678E+02  0.92991690678E+02  0.00000000000E+00 0. -1.
      99926    2    1    2    0    0  0.00000000000E+00  0.71054273576E-14  0.42892027002E+03  0.61490365138E+03  0.44060628961E+03 0.  0.
      99925    2    3    3    0    0 -0.73548730191E+02  0.59034056240E+02  0.23085688339E+03  0.36237434865E+03  0.26291791960E+03 0.  0.
         25    1    4    4    0    0 -0.35925461132E+02  0.68617619285E+02  0.10520729945E+03  0.18087316106E+03  0.12509000000E+03 0.  0.
         25    1    4    4    0    0 -0.37623269059E+02 -0.95835630451E+01  0.12564958393E+03  0.18150118759E+03  0.12509000000E+03 0.  0.
         25    1    3    3    0    0  0.73548730191E+02 -0.59034056240E+02  0.19806338664E+03  0.25252930273E+03  0.12509000000E+03 0.  0.
<mgrwt>
<rscale>  2 0.44060629E+03</rscale>
<asrwt>0</asrwt>
<pdfrwt beam="1">  1       21 0.76751758E-01 0.44060629E+03</pdfrwt>
<pdfrwt beam="2">  1       21 0.13675249E-01 0.44060629E+03</pdfrwt>
<totfact> 0.64831059E+04</totfact>
</mgrwt>
</event>
<event>
 7    0  0.4709932E-002  0.4551623E+03  0.7546771E-02  0.1026194E+00
         21   -1    0    0  502  501  0.00000000000E+00  0.00000000000E+00  0.18061279592E+03  0.18061279592E+03  0.00000000000E+00 0. -1.
         21   -1    0    0  501  502 -0.00000000000E+00 -0.00000000000E+00 -0.28676361924E+03  0.28676361924E+03  0.00000000000E+00 0. -1.
      99926    2    1    2    0    0  0.00000000000E+00  0.00000000000E+00 -0.10615082332E+03  0.46737641516E+03  0.45516229650E+03 0.  0.
      99925    2    3    3    0    0 -0.92801399136E+02  0.61706462564E+02 -0.91114150677E+02  0.29917000378E+03  0.26226154027E+03 0.  0.
         25    1    3    3    0    0  0.92801399136E+02 -0.61706462564E+02 -0.15036672647E+02  0.16820641138E+03  0.12509000000E+03 0.  0.
         25    1    4    4    0    0 -0.83487797666E+02  0.17340582629E+02 -0.57483217955E+02  0.16193435896E+03  0.12509000000E+03 0.  0.
         25    1    4    4    0    0 -0.93136014691E+01  0.44365879935E+02 -0.33630932722E+02  0.13723564482E+03  0.12509000000E+03 0.  0.
<mgrwt>
<rscale>  2 0.45516230E+03</rscale>
<asrwt>0</asrwt>
<pdfrwt beam="1">  1       21 0.26560706E-01 0.45516230E+03</pdfrwt>
<pdfrwt beam="2">  1       21 0.42171120E-01 0.45516230E+03</pdfrwt>
<totfact> 0.67544563E+04</totfact>
</mgrwt>
</event>
<event>
 7    0  0.4709932E-002  0.4548348E+03  0.7546771E-02  0.1026290E+00
         21   -1    0    0  502  501  0.00000000000E+00  0.00000000000E+00  0.61217817978E+03  0.61217817978E+03  0.00000000000E+00 0.  1.
         21   -1    0    0  501  502 -0.00000000000E+00 -0.00000000000E+00 -0.84483054947E+02  0.84483054947E+02  0.00000000000E+00 0.  1.
      99926    2    1    2    0    0  0.00000000000E+00  0.00000000000E+00  0.52769512483E+03  0.69666123472E+03  0.45483483947E+03 0.  0.
      99925    2    3    3    0    0  0.10361468311E+03  0.27553557643E+02  0.38673477863E+03  0.47983750817E+03  0.26303050043E+03 0.  0.
         25    1    4    4    0    0  0.32777261544E+02  0.49429505517E+02  0.19750374476E+03  0.24119051015E+03  0.12509000000E+03 0.  0.
         25    1    3    3    0    0 -0.10361468311E+03 -0.27553557643E+02  0.14096034620E+03  0.21682372655E+03  0.12509000000E+03 0.  0.
         25    1    4    4    0    0  0.70837421561E+02 -0.21875947874E+02  0.18923103386E+03  0.23864699802E+03  0.12509000000E+03 0.  0.
<mgrwt>
<rscale>  2 0.45483484E+03</rscale>
<asrwt>0</asrwt>
<pdfrwt beam="1">  1       21 0.90026200E-01 0.45483484E+03</pdfrwt>
<pdfrwt beam="2">  1       21 0.12423979E-01 0.45483484E+03</pdfrwt>
<totfact> 0.53153683E+04</totfact>
</mgrwt>
</event>
<event>
 7    0  0.4709932E-002  0.4593904E+03  0.7546771E-02  0.1024958E+00
         21   -1    0    0  502  501  0.00000000000E+00  0.00000000000E+00  0.11282115679E+03  0.11282115679E+03  0.00000000000E+00 0. -1.
         21   -1    0    0  501  502 -0.00000000000E+00 -0.00000000000E+00 -0.46764166409E+03  0.46764166409E+03  0.00000000000E+00 0. -1.
      99926    2    1    2    0    0  0.00000000000E+00  0.00000000000E+00 -0.35482050730E+03  0.58046282088E+03  0.45939035038E+03 0.  0.
      99925    2    3    3    0    0  0.10015826288E+03 -0.55105779432E+02 -0.25368117314E+03  0.38311795127E+03  0.26335698667E+03 0.  0.
         25    1    3    3    0    0 -0.10015826288E+03  0.55105779432E+02 -0.10113933415E+03  0.19734486961E+03  0.12509000000E+03 0.  0.
         25    1    4    4    0    0  0.50833834930E+02 -0.68864041921E+02 -0.14367047613E+03  0.20884216254E+03  0.12509000000E+03 0.  0.
         25    1    4    4    0    0  0.49324427948E+02  0.13758262489E+02 -0.11001069701E+03  0.17427578873E+03  0.12509000000E+03 0.  0.
<mgrwt>
<rscale>  2 0.45939035E+03</rscale>
<asrwt>0</asrwt>
<pdfrwt beam="1">  1       21 0.16591347E-01 0.45939035E+03</pdfrwt>
<pdfrwt beam="2">  1       21 0.68770832E-01 0.45939035E+03</pdfrwt>
<totfact> 0.57862588E+04</totfact>
</mgrwt>
</event>
<event>
 7    0  0.4709932E-002  0.4525029E+03  0.7546771E-02  0.1026978E+00
         21   -1    0    0  502  501  0.00000000000E+00  0.00000000000E+00  0.22855181380E+03  0.22855181380E+03  0.00000000000E+00 0.  1.
         21   -1    0    0  501  502 -0.00000000000E+00 -0.00000000000E+00 -0.22397426031E+03  0.22397426031E+03  0.00000000000E+00 0.  1.
      99926    2    1    2    0    0 -0.71054273576E-14  0.00000000000E+00  0.45775534847E+01  0.45252607411E+03  0.45250292127E+03 0.  0.
      99925    2    3    3    0    0 -0.60329660810E+02 -0.87589164685E+02 -0.26832845231E+02  0.28535654642E+03  0.26343277559E+03 0.  0.
         25    1    4    4    0    0 -0.45228105044E+02 -0.47691692498E+01 -0.70953047500E+01  0.13328982673E+03  0.12509000000E+03 0.  0.
         25    1    4    4    0    0 -0.15101555765E+02 -0.82819995435E+02 -0.19737540481E+02  0.15206671968E+03  0.12509000000E+03 0.  0.
         25    1    3    3    0    0  0.60329660810E+02  0.87589164685E+02  0.31410398716E+02  0.16716952770E+03  0.12509000000E+03 0.  0.
<mgrwt>
<rscale>  2 0.45250292E+03</rscale>
<asrwt>0</asrwt>
<pdfrwt beam="1">  1       21 0.33610561E-01 0.45250292E+03</pdfrwt>
<pdfrwt beam="2">  1       21 0.32937391E-01 0.45250292E+03</pdfrwt>
<totfact> 0.70113988E+04</totfact>
</mgrwt>
</event>
<event>
 7    0  0.4709932E-002  0.4356831E+03  0.7546771E-02  0.1032080E+00
         21   -1    0    0  502  501  0.00000000000E+00  0.00000000000E+00  0.18644636442E+03  0.18644636442E+03  0.00000000000E+00 0.  1.
         21   -1    0    0  501  502 -0.00000000000E+00 -0.00000000000E+00 -0.25452333885E+03  0.25452333885E+03  0.00000000000E+00 0.  1.
      99926    2    1    2    0    0  0.00000000000E+00  0.00000000000E+00 -0.68076974430E+02  0.44096970327E+03  0.43568314720E+03 0.  0.
      99925    2    3    3    0    0  0.43154536631E+02 -0.80721104841E+02 -0.64357738524E+02  0.28592276968E+03  0.26311917626E+03 0.  0.
         25    1    4    4    0    0  0.56228427597E+02 -0.37408945304E+02 -0.10938577617E+02  0.14257708736E+03  0.12509000000E+03 0.  0.
         25    1    3    3    0    0 -0.43154536631E+02  0.80721104841E+02 -0.37192359061E+01  0.15504693359E+03  0.12509000000E+03 0.  0.
         25    1    4    4    0    0 -0.13073890966E+02 -0.43312159538E+02 -0.53419160907E+02  0.14334568232E+03  0.12509000000E+03 0.  0.
<mgrwt>
<rscale>  2 0.43568315E+03</rscale>
<asrwt>0</asrwt>
<pdfrwt beam="1">  1       21 0.27418583E-01 0.43568315E+03</pdfrwt>
<pdfrwt beam="2">  1       21 0.37429903E-01 0.43568315E+03</pdfrwt>
<totfact> 0.81429348E+04</totfact>
</mgrwt>
</event>
<event>
 7    0  0.4709932E-002  0.4531112E+03  0.7546771E-02  0.1026798E+00
         21   -1    0    0  502  501  0.00000000000E+00  0.00000000000E+00  0.19251603729E+04  0.19251603729E+04  0.00000000000E+00 0. -1.
         21   -1    0    0  501  502 -0.00000000000E+00 -0.00000000000E+00 -0.26661383200E+02  0.26661383200E+02  0.00000000000E+00 0. -1.
      99926    2    1    2    0    0  0.00000000000E+00  0.00000000000E+00  0.18984989897E+04  0.19518217561E+04  0.45311119352E+03 0.  0.
      99925    2    3    3    0    0  0.41881555507E+02  0.62517261561E+02  0.15505115425E+04  0.15744555624E+04  0.26298631458E+03 0.  0.
         25    1    4    4    0    0  0.54700790382E+02  0.43534723763E+02  0.70304830889E+03  0.71750392429E+03  0.12509000000E+03 0.  0.
         25    1    3    3    0    0 -0.41881555507E+02 -0.62517261561E+02  0.34798744715E+03  0.37736619371E+03  0.12509000000E+03 0.  0.
         25    1    4    4    0    0 -0.12819234876E+02  0.18982537797E+02  0.84746323365E+03  0.85695163808E+03  0.12509000000E+03 0.  0.
<mgrwt>
<rscale>  2 0.45311119E+03</rscale>
<asrwt>0</asrwt>
<pdfrwt beam="1">  1       21 0.28311173E+00 0.45311119E+03</pdfrwt>
<pdfrwt beam="2">  1       21 0.39207929E-02 0.45311119E+03</pdfrwt>
<totfact> 0.14727353E+04</totfact>
</mgrwt>
</event>
<event>
 7    0  0.4709932E-002  0.4591514E+03  0.7546771E-02  0.1025028E+00
         21   -1    0    0  502  501  0.00000000000E+00  0.00000000000E+00  0.14912306934E+03  0.14912306934E+03  0.00000000000E+00 0.  1.
         21   -1    0    0  501  502 -0.00000000000E+00 -0.00000000000E+00 -0.35343285090E+03  0.35343285090E+03  0.00000000000E+00 0.  1.
      99926    2    1    2    0    0  0.00000000000E+00  0.00000000000E+00 -0.20430978156E+03  0.50255592023E+03  0.45915135426E+03 0.  0.
      99925    2    3    3    0    0 -0.38946879781E+02 -0.50330807773E+02 -0.20771160676E+02  0.27150617859E+03  0.26312376221E+03 0.  0.
         25    1    3    3    0    0  0.38946879781E+02  0.50330807773E+02 -0.18353862089E+03  0.23104974164E+03  0.12509000000E+03 0.  0.
         25    1    4    4    0    0 -0.30507447615E+02 -0.55805902274E+02  0.14694109089E+02  0.14109722900E+03  0.12509000000E+03 0.  0.
         25    1    4    4    0    0 -0.84394321655E+01  0.54750945008E+01 -0.35465269764E+02  0.13040894960E+03  0.12509000000E+03 0.  0.
<mgrwt>
<rscale>  2 0.45915135E+03</rscale>
<asrwt>0</asrwt>
<pdfrwt beam="1">  1       21 0.21929863E-01 0.45915135E+03</pdfrwt>
<pdfrwt beam="2">  1       21 0.51975419E-01 0.45915135E+03</pdfrwt>
<totfact> 0.62989996E+04</totfact>
</mgrwt>
</event>
<event>
 7    0  0.4709932E-002  0.4349771E+03  0.7546771E-02  0.1032299E+00
         21   -1    0    0  502  501  0.00000000000E+00  0.00000000000E+00  0.95319197454E+03  0.95319197454E+03  0.00000000000E+00 0. -1.
         21   -1    0    0  501  502 -0.00000000000E+00 -0.00000000000E+00 -0.49624079806E+02  0.49624079806E+02  0.00000000000E+00 0. -1.
      99926    2    1    2    0    0  0.00000000000E+00 -0.14210854715E-13  0.90356789473E+03  0.10028160543E+04  0.43497712407E+03 0.  0.
      99925    2    3    3    0    0 -0.31287011386E+02  0.81510406394E+02  0.50480064094E+03  0.57586681353E+03  0.26301345290E+03 0.  0.
         25    1    4    4    0    0 -0.44475438095E+02  0.23031411861E+02  0.29552771756E+03  0.32479632152E+03  0.12509000000E+03 0.  0.
         25    1    3    3    0    0  0.31287011386E+02 -0.81510406394E+02  0.39876725380E+03  0.42694924082E+03  0.12509000000E+03 0.  0.
         25    1    4    4    0    0  0.13188426708E+02  0.58478994534E+02  0.20927292338E+03  0.25107049201E+03  0.12509000000E+03 0.  0.
<mgrwt>
<rscale>  2 0.43497712E+03</rscale>
<asrwt>0</asrwt>
<pdfrwt beam="1">  1       21 0.14017528E+00 0.43497712E+03</pdfrwt>
<pdfrwt beam="2">  1       21 0.72976594E-02 0.43497712E+03</pdfrwt>
<totfact> 0.45812623E+04</totfact>
</mgrwt>
</event>
<event>
 7    0  0.4709932E-002  0.4562887E+03  0.7546771E-02  0.1025863E+00
         21   -1    0    0  502  501  0.00000000000E+00  0.00000000000E+00  0.43204768823E+02  0.43204768823E+02  0.00000000000E+00 0. -1.
         21   -1    0    0  501  502 -0.00000000000E+00 -0.00000000000E+00 -0.12047246565E+04  0.12047246565E+04  0.00000000000E+00 0. -1.
      99926    2    1    2    0    0  0.00000000000E+00  0.00000000000E+00 -0.11615198877E+04  0.12479294253E+04  0.45628872560E+03 0.  0.
      99925    2    3    3    0    0  0.97037835280E+02  0.58343307771E+02 -0.68644927283E+03  0.74378670721E+03  0.26303189656E+03 0.  0.
         25    1    4    4    0    0  0.32099317526E+02  0.57857755627E+02 -0.28262446396E+03  0.31607274764E+03  0.12509000000E+03 0.  0.
         25    1    3    3    0    0 -0.97037835280E+02 -0.58343307771E+02 -0.47507061482E+03  0.50414271809E+03  0.12509000000E+03 0.  0.
         25    1    4    4    0    0  0.64938517755E+02  0.48555214404E+00 -0.40382480887E+03  0.42771395957E+03  0.12509000000E+03 0.  0.
<mgrwt>
<rscale>  2 0.45628873E+03</rscale>
<asrwt>0</asrwt>
<pdfrwt beam="1">  1       21 0.63536435E-02 0.45628873E+03</pdfrwt>
<pdfrwt beam="2">  1       21 0.17716536E+00 0.45628873E+03</pdfrwt>
<totfact> 0.30359499E+04</totfact>
</mgrwt>
</event>
<event>
 7    0  0.4709932E-002  0.4556024E+03  0.7546771E-02  0.1026064E+00
         21   -1    0    0  502  501  0.00000000000E+00  0.00000000000E+00  0.15325652650E+03  0.15325652650E+03  0.00000000000E+00 0. -1.
         21   -1    0    0  501  502 -0.00000000000E+00 -0.00000000000E+00 -0.33860467866E+03  0.33860467866E+03  0.00000000000E+00 0. -1.
      99926    2    1    2    0    0  0.00000000000E+00  0.00000000000E+00 -0.18534815216E+03  0.49186120515E+03  0.45560235691E+03 0.  0.
      99925    2    3    3    0    0  0.60069347463E+02  0.13591895922E+02 -0.21978745145E+03  0.34824143084E+03  0.26300666189E+03 0.  0.
         25    1    4    4    0    0 -0.78921175225E+01  0.91667519407E+01 -0.81917356042E+02  0.15001425326E+03  0.12509000000E+03 0.  0.
         25    1    4    4    0    0  0.67961464985E+02  0.44251439812E+01 -0.13787009541E+03  0.19822717758E+03  0.12509000000E+03 0.  0.
         25    1    3    3    0    0 -0.60069347463E+02 -0.13591895922E+02  0.34439299289E+02  0.14361977432E+03  0.12509000000E+03 0.  0.
<mgrwt>
<rscale>  2 0.45560236E+03</rscale>
<asrwt>0</asrwt>
<pdfrwt beam="1">  1       21 0.22537725E-01 0.45560236E+03</pdfrwt>
<pdfrwt beam="2">  1       21 0.49794805E-01 0.45560236E+03</pdfrwt>
<totfact> 0.65532368E+04</totfact>
</mgrwt>
</event>
<event>
 7    0  0.4709932E-002  0.4496474E+03  0.7546771E-02  0.1027827E+00
         21   -1    0    0  502  501  0.00000000000E+00  0.00000000000E+00  0.20441953344E+03  0.20441953344E+03  0.00000000000E+00 0. -1.
         21   -1    0    0  501  502 -0.00000000000E+00 -0.00000000000E+00 -0.24726449753E+03  0.24726449753E+03  0.00000000000E+00 0. -1.
      99926    2    1    2    0    0  0.00000000000E+00  0.35527136788E-14 -0.42844964082E+02  0.45168403097E+03  0.44964738728E+03 0.  0.
      99925    2    3    3    0    0 -0.10332681387E+03 -0.31835973236E+02 -0.32974630465E+02  0.28604921808E+03  0.26276770968E+03 0.  0.
         25    1    4    4    0    0 -0.56745920132E+02 -0.46513179356E+02 -0.43354320280E+02  0.15136274473E+03  0.12509000000E+03 0.  0.
         25    1    4    4    0    0 -0.46580893742E+02  0.14677206120E+02  0.10379689816E+02  0.13468647334E+03  0.12509000000E+03 0.  0.
         25    1    3    3    0    0  0.10332681387E+03  0.31835973236E+02 -0.98703336175E+01  0.16563481290E+03  0.12509000000E+03 0.  0.
<mgrwt>
<rscale>  2 0.44964739E+03</rscale>
<asrwt>0</asrwt>
<pdfrwt beam="1">  1       21 0.30061696E-01 0.44964739E+03</pdfrwt>
<pdfrwt beam="2">  1       21 0.36362426E-01 0.44964739E+03</pdfrwt>
<totfact> 0.71807386E+04</totfact>
</mgrwt>
</event>
<event>
 7    0  0.4709932E-002  0.4575288E+03  0.7546771E-02  0.1025500E+00
         21   -1    0    0  502  501  0.00000000000E+00  0.00000000000E+00  0.83255603318E+02  0.83255603318E+02  0.00000000000E+00 0.  1.
         21   -1    0    0  501  502 -0.00000000000E+00 -0.00000000000E+00 -0.62858420635E+03  0.62858420635E+03  0.00000000000E+00 0.  1.
      99926    2    1    2    0    0  0.00000000000E+00  0.00000000000E+00 -0.54532860303E+03  0.71183980967E+03  0.45752882897E+03 0.  0.
      99925    2    3    3    0    0 -0.21022446400E+02  0.35922171443E+02 -0.17399902804E+03  0.31780236600E+03  0.26266011577E+03 0.  0.
         25    1    3    3    0    0  0.21022446400E+02 -0.35922171443E+02 -0.37132957499E+03  0.39403744367E+03  0.12509000000E+03 0.  0.
         25    1    4    4    0    0 -0.39612852229E+02  0.63716184859E+01 -0.57738994839E+02  0.14349590659E+03  0.12509000000E+03 0.  0.
         25    1    4    4    0    0  0.18590405829E+02  0.29550552958E+02 -0.11626003321E+03  0.17430645940E+03  0.12509000000E+03 0.  0.
<mgrwt>
<rscale>  2 0.45752883E+03</rscale>
<asrwt>0</asrwt>
<pdfrwt beam="1">  1       21 0.12243472E-01 0.45752883E+03</pdfrwt>
<pdfrwt beam="2">  1       21 0.92438848E-01 0.45752883E+03</pdfrwt>
<totfact> 0.51237843E+04</totfact>
</mgrwt>
</event>
<event>
 7    0  0.4709932E-002  0.4567529E+03  0.7546771E-02  0.1025727E+00
         21   -1    0    0  502  501  0.00000000000E+00  0.00000000000E+00  0.13964783626E+03  0.13964783626E+03  0.00000000000E+00 0. -1.
         21   -1    0    0  501  502 -0.00000000000E+00 -0.00000000000E+00 -0.37348094702E+03  0.37348094702E+03  0.00000000000E+00 0. -1.
      99926    2    1    2    0    0 -0.71054273576E-14  0.00000000000E+00 -0.23383311076E+03  0.51312878328E+03  0.45675291411E+03 0.  0.
      99925    2    3    3    0    0  0.59895291041E+02  0.88171958870E+02 -0.99065319461E+02  0.30059265484E+03  0.26302141815E+03 0.  0.
         25    1    4    4    0    0  0.24986280794E+02  0.55273317419E+02 -0.93084463715E+01  0.13933272810E+03  0.12509000000E+03 0.  0.
         25    1    3    3    0    0 -0.59895291041E+02 -0.88171958870E+02 -0.13476779130E+03  0.21253612844E+03  0.12509000000E+03 0.  0.
         25    1    4    4    0    0  0.34909010247E+02  0.32898641452E+02 -0.89756873089E+02  0.16125992674E+03  0.12509000000E+03 0.  0.
<mgrwt>
<rscale>  2 0.45675291E+03</rscale>
<asrwt>0</asrwt>
<pdfrwt beam="1">  1       21 0.20536447E-01 0.45675291E+03</pdfrwt>
<pdfrwt beam="2">  1       21 0.54923667E-01 0.45675291E+03</pdfrwt>
<totfact> 0.63470294E+04</totfact>
</mgrwt>
</event>
<event>
 7    0  0.4709932E-002  0.4508880E+03  0.7546771E-02  0.1027458E+00
         21   -1    0    0  502  501  0.00000000000E+00  0.00000000000E+00  0.21054452822E+03  0.21054452822E+03  0.00000000000E+00 0. -1.
         21   -1    0    0  501  502 -0.00000000000E+00 -0.00000000000E+00 -0.24139785837E+03  0.24139785837E+03  0.00000000000E+00 0. -1.
      99926    2    1    2    0    0  0.35527136788E-14 -0.13322676296E-14 -0.30853330152E+02  0.45194238659E+03  0.45088800474E+03 0.  0.
      99925    2    3    3    0    0 -0.24372551252E+02 -0.24178293636E+01  0.87153969817E+02  0.27823833339E+03  0.26309862896E+03 0.  0.
         25    1    3    3    0    0  0.24372551252E+02  0.24178293636E+01 -0.11800729997E+03  0.17370405320E+03  0.12509000000E+03 0.  0.
         25    1    4    4    0    0  0.11952887800E+02 -0.13305330023E+02  0.10712537706E+02  0.12681549550E+03  0.12509000000E+03 0.  0.
         25    1    4    4    0    0 -0.36325439052E+02  0.10887500660E+02  0.76441432111E+02  0.15142283789E+03  0.12509000000E+03 0.  0.
<mgrwt>
<rscale>  2 0.45088800E+03</rscale>
<asrwt>0</asrwt>
<pdfrwt beam="1">  1       21 0.30962431E-01 0.45088800E+03</pdfrwt>
<pdfrwt beam="2">  1       21 0.35499685E-01 0.45088800E+03</pdfrwt>
<totfact> 0.71073779E+04</totfact>
</mgrwt>
</event>
<event>
 7    0  0.4709932E-002  0.4347966E+03  0.7546771E-02  0.1032355E+00
         21   -1    0    0  502  501  0.00000000000E+00  0.00000000000E+00  0.60063081070E+03  0.60063081070E+03  0.00000000000E+00 0. -1.
         21   -1    0    0  501  502 -0.00000000000E+00 -0.00000000000E+00 -0.78687296997E+02  0.78687296997E+02  0.00000000000E+00 0. -1.
      99926    2    1    2    0    0  0.00000000000E+00  0.00000000000E+00  0.52194351371E+03  0.67931810770E+03  0.43479657307E+03 0.  0.
      99925    2    3    3    0    0 -0.55655245727E+02  0.73436011287E+02  0.31634567546E+03  0.42161996389E+03  0.26305598917E+03 0.  0.
         25    1    4    4    0    0  0.55257494825E+01  0.11271120367E+02  0.13028401447E+03  0.18104972960E+03  0.12509000000E+03 0.  0.
         25    1    3    3    0    0  0.55655245727E+02 -0.73436011287E+02  0.20559783825E+03  0.25769814381E+03  0.12509000000E+03 0.  0.
         25    1    4    4    0    0 -0.61180995209E+02  0.62164890919E+02  0.18606166099E+03  0.24057023429E+03  0.12509000000E+03 0.  0.
<mgrwt>
<rscale>  2 0.43479657E+03</rscale>
<asrwt>0</asrwt>
<pdfrwt beam="1">  1       21 0.88328058E-01 0.43479657E+03</pdfrwt>
<pdfrwt beam="2">  1       21 0.11571662E-01 0.43479657E+03</pdfrwt>
<totfact> 0.63565201E+04</totfact>
</mgrwt>
</event>
<event>
 7    0  0.4709932E-002  0.4521042E+03  0.7546771E-02  0.1027096E+00
         21   -1    0    0  502  501  0.00000000000E+00  0.00000000000E+00  0.27062734065E+03  0.27062734065E+03  0.00000000000E+00 0. -1.
         21   -1    0    0  501  502 -0.00000000000E+00 -0.00000000000E+00 -0.18881889374E+03  0.18881889374E+03  0.00000000000E+00 0. -1.
      99926    2    1    2    0    0  0.00000000000E+00  0.35527136788E-14  0.81808446912E+02  0.45944623440E+03  0.45210421400E+03 0.  0.
      99925    2    3    3    0    0  0.41201797877E+02 -0.18949148260E+02  0.15388693816E+03  0.30812050834E+03  0.26305968820E+03 0.  0.
         25    1    4    4    0    0  0.61066828970E-01  0.16134228253E+02  0.45799415650E+02  0.13418424507E+03  0.12509000000E+03 0.  0.
         25    1    3    3    0    0 -0.41201797877E+02  0.18949148260E+02 -0.72078491244E+02  0.15132572606E+03  0.12509000000E+03 0.  0.
         25    1    4    4    0    0  0.41140731048E+02 -0.35083376513E+02  0.10808752251E+03  0.17393626327E+03  0.12509000000E+03 0.  0.
<mgrwt>
<rscale>  2 0.45210421E+03</rscale>
<asrwt>0</asrwt>
<pdfrwt beam="1">  1       21 0.39798138E-01 0.45210421E+03</pdfrwt>
<pdfrwt beam="2">  1       21 0.27767484E-01 0.45210421E+03</pdfrwt>
<totfact> 0.69817775E+04</totfact>
</mgrwt>
</event>
<event>
 7    0  0.4709932E-002  0.4483072E+03  0.7546771E-02  0.1028228E+00
         21   -1    0    0  502  501  0.00000000000E+00  0.00000000000E+00  0.72291311227E+02  0.72291311227E+02  0.00000000000E+00 0. -1.
         21   -1    0    0  501  502 -0.00000000000E+00 -0.00000000000E+00 -0.69503271089E+03  0.69503271089E+03  0.00000000000E+00 0. -1.
      99926    2    1    2    0    0  0.00000000000E+00  0.00000000000E+00 -0.62274139966E+03  0.76732402212E+03  0.44830715371E+03 0.  0.
      99925    2    3    3    0    0  0.29552470730E+02  0.10266970213E+03 -0.39648852462E+03  0.48758791821E+03  0.26291521746E+03 0.  0.
         25    1    3    3    0    0 -0.29552470730E+02 -0.10266970213E+03 -0.22625287504E+03  0.27973610391E+03  0.12509000000E+03 0.  0.
         25    1    4    4    0    0  0.38650012767E+02  0.20061412082E+02 -0.20788250960E+03  0.24649326490E+03  0.12509000000E+03 0.  0.
         25    1    4    4    0    0 -0.90975420364E+01  0.82608290052E+02 -0.18860601502E+03  0.24109465332E+03  0.12509000000E+03 0.  0.
<mgrwt>
<rscale>  2 0.44830715E+03</rscale>
<asrwt>0</asrwt>
<pdfrwt beam="1">  1       21 0.10631075E-01 0.44830715E+03</pdfrwt>
<pdfrwt beam="2">  1       21 0.10221070E+00 0.44830715E+03</pdfrwt>
<totfact> 0.52068145E+04</totfact>
</mgrwt>
</event>
<event>
 7    0  0.4709932E-002  0.4604536E+03  0.7546771E-02  0.1024650E+00
         21   -1    0    0  502  501  0.00000000000E+00  0.00000000000E+00  0.16225636434E+02  0.16225636434E+02  0.00000000000E+00 0.  1.
         21   -1    0    0  501  502 -0.00000000000E+00 -0.00000000000E+00 -0.32667054250E+04  0.32667054250E+04  0.00000000000E+00 0.  1.
      99926    2    1    2    0    0  0.00000000000E+00  0.00000000000E+00 -0.32504797886E+04  0.32829310615E+04  0.46045357883E+03 0.  0.
      99925    2    3    3    0    0 -0.71003394847E+02  0.60798552656E+02 -0.25515720776E+04  0.25667904030E+04  0.26297330621E+03 0.  0.
         25    1    3    3    0    0  0.71003394847E+02 -0.60798552656E+02 -0.69890771102E+03  0.71614065847E+03  0.12509000000E+03 0.  0.
         25    1    4    4    0    0 -0.17126188476E+02  0.54688787452E+02 -0.10356782163E+04  0.10447779887E+04  0.12509000000E+03 0.  0.
         25    1    4    4    0    0 -0.53877206371E+02  0.61097652038E+01 -0.15158938613E+04  0.15220124143E+04  0.12509000000E+03 0.  0.
<mgrwt>
<rscale>  2 0.46045358E+03</rscale>
<asrwt>0</asrwt>
<pdfrwt beam="1">  1       21 0.23861203E-02 0.46045358E+03</pdfrwt>
<pdfrwt beam="2">  1       21 0.48039840E+00 0.46045358E+03</pdfrwt>
<totfact> 0.18752856E+03</totfact>
</mgrwt>
</event>
<event>
 7    0  0.4709932E-002  0.4285609E+03  0.7546771E-02  0.1034316E+00
         21   -1    0    0  502  501  0.00000000000E+00  0.00000000000E+00  0.36529301177E+03  0.36529301177E+03  0.00000000000E+00 0. -1.
         21   -1    0    0  501  502 -0.00000000000E+00 -0.00000000000E+00 -0.12569668081E+03  0.12569668081E+03  0.00000000000E+00 0. -1.
      99926    2    1    2    0    0 -0.17763568394E-14  0.88817841970E-15  0.23959633096E+03  0.49098969258E+03  0.42856093664E+03 0.  0.
      99925    2    3    3    0    0  0.71527719332E+01  0.55140969267E+01  0.56672885229E+02  0.26920136442E+03  0.26301329106E+03 0.  0.
         25    1    3    3    0    0 -0.71527719332E+01 -0.55140969267E+01  0.18292344573E+03  0.22178832817E+03  0.12509000000E+03 0.  0.
         25    1    4    4    0    0 -0.33570187071E+02  0.17288685403E+02  0.35836080182E+02  0.13549017989E+03  0.12509000000E+03 0.  0.
         25    1    4    4    0    0  0.40722959005E+02 -0.11774588477E+02  0.20836805047E+02  0.13371118453E+03  0.12509000000E+03 0.  0.
<mgrwt>
<rscale>  2 0.42856094E+03</rscale>
<asrwt>0</asrwt>
<pdfrwt beam="1">  1       21 0.53719560E-01 0.42856094E+03</pdfrwt>
<pdfrwt beam="2">  1       21 0.18484806E-01 0.42856094E+03</pdfrwt>
<totfact> 0.81763993E+04</totfact>
</mgrwt>
</event>
<event>
 7    0  0.4709932E-002  0.4521948E+03  0.7546771E-02  0.1027070E+00
         21   -1    0    0  502  501  0.00000000000E+00  0.00000000000E+00  0.91234845976E+02  0.91234845976E+02  0.00000000000E+00 0. -1.
         21   -1    0    0  501  502 -0.00000000000E+00 -0.00000000000E+00 -0.56031260037E+03  0.56031260037E+03  0.00000000000E+00 0. -1.
      99926    2    1    2    0    0  0.00000000000E+00  0.00000000000E+00 -0.46907775440E+03  0.65154744635E+03  0.45219479782E+03 0.  0.
      99925    2    3    3    0    0  0.44703599026E+02 -0.99280403143E+02 -0.32409347614E+03  0.43126817075E+03  0.26287001278E+03 0.  0.
         25    1    4    4    0    0  0.41660051482E+02 -0.58257054967E+02 -0.11604801486E+03  0.18505159874E+03  0.12509000000E+03 0.  0.
         25    1    4    4    0    0  0.30435475446E+01 -0.41023348176E+02 -0.20804546128E+03  0.24621657202E+03  0.12509000000E+03 0.  0.
         25    1    3    3    0    0 -0.44703599026E+02  0.99280403143E+02 -0.14498427826E+03  0.22027927560E+03  0.12509000000E+03 0.  0.
<mgrwt>
<rscale>  2 0.45219480E+03</rscale>
<asrwt>0</asrwt>
<pdfrwt beam="1">  1       21 0.13416890E-01 0.45219480E+03</pdfrwt>
<pdfrwt beam="2">  1       21 0.82398906E-01 0.45219480E+03</pdfrwt>
<totfact> 0.56860255E+04</totfact>
</mgrwt>
</event>
<event>
 7    0  0.4709932E-002  0.4528397E+03  0.7546771E-02  0.1026879E+00
         21   -1    0    0  502  501  0.00000000000E+00  0.00000000000E+00  0.55318305681E+03  0.55318305681E+03  0.00000000000E+00 0.  1.
         21   -1    0    0  501  502 -0.00000000000E+00 -0.00000000000E+00 -0.92674466055E+02  0.92674466055E+02  0.00000000000E+00 0.  1.
      99926    2    1    2    0    0  0.00000000000E+00 -0.14210854715E-13  0.46050859075E+03  0.64585752286E+03  0.45283968210E+03 0.  0.
      99925    2    3    3    0    0  0.18473742651E+02  0.80791897841E+02  0.39594243981E+03  0.48250237029E+03  0.26300097295E+03 0.  0.
         25    1    4    4    0    0 -0.14697912197E+02  0.69928624010E+02  0.23573238035E+03  0.27626672678E+03  0.12509000000E+03 0.  0.
         25    1    4    4    0    0  0.33171654848E+02  0.10863273832E+02  0.16021005946E+03  0.20623564351E+03  0.12509000000E+03 0.  0.
         25    1    3    3    0    0 -0.18473742651E+02 -0.80791897841E+02  0.64566150944E+02  0.16335515257E+03  0.12509000000E+03 0.  0.
<mgrwt>
<rscale>  2 0.45283968E+03</rscale>
<asrwt>0</asrwt>
<pdfrwt beam="1">  1       21 0.81350448E-01 0.45283968E+03</pdfrwt>
<pdfrwt beam="2">  1       21 0.13628598E-01 0.45283968E+03</pdfrwt>
<totfact> 0.56904503E+04</totfact>
</mgrwt>
</event>
<event>
 7    0  0.4709932E-002  0.4480056E+03  0.7546771E-02  0.1028318E+00
         21   -1    0    0  502  501  0.00000000000E+00  0.00000000000E+00  0.17105949194E+03  0.17105949194E+03  0.00000000000E+00 0. -1.
         21   -1    0    0  501  502 -0.00000000000E+00 -0.00000000000E+00 -0.29333222298E+03  0.29333222298E+03  0.00000000000E+00 0. -1.
      99926    2    1    2    0    0 -0.71054273576E-14  0.00000000000E+00 -0.12227273104E+03  0.46439171491E+03  0.44800562957E+03 0.  0.
      99925    2    3    3    0    0  0.63970581517E+02  0.73954127817E+02 -0.33696944231E+02  0.28258240154E+03  0.26297505830E+03 0.  0.
         25    1    3    3    0    0 -0.63970581517E+02 -0.73954127817E+02 -0.88575786808E+02  0.18180931337E+03  0.12509000000E+03 0.  0.
         25    1    4    4    0    0  0.30058650436E+02  0.58590582342E+02 -0.52344477298E+02  0.15074425763E+03  0.12509000000E+03 0.  0.
         25    1    4    4    0    0  0.33911931081E+02  0.15363545475E+02  0.18647533067E+02  0.13183814391E+03  0.12509000000E+03 0.  0.
<mgrwt>
<rscale>  2 0.44800563E+03</rscale>
<asrwt>0</asrwt>
<pdfrwt beam="1">  1       21 0.25155808E-01 0.44800563E+03</pdfrwt>
<pdfrwt beam="2">  1       21 0.43137092E-01 0.44800563E+03</pdfrwt>
<totfact> 0.71754597E+04</totfact>
</mgrwt>
</event>
<event>
 7    0  0.4709932E-002  0.4411859E+03  0.7546771E-02  0.1030384E+00
         21   -1    0    0  502  501  0.00000000000E+00  0.00000000000E+00  0.10493998964E+04  0.10493998964E+04  0.00000000000E+00 0.  1.
         21   -1    0    0  501  502 -0.00000000000E+00 -0.00000000000E+00 -0.46370548346E+02  0.46370548346E+02  0.00000000000E+00 0.  1.
      99926    2    1    2    0    0  0.00000000000E+00  0.00000000000E+00  0.10030293481E+04  0.10957704448E+04  0.44118589566E+03 0.  0.
      99925    2    3    3    0    0  0.86966533833E+02 -0.39451698464E+02  0.56840972151E+03  0.63353528556E+03  0.26297857711E+03 0.  0.
         25    1    3    3    0    0 -0.86966533833E+02  0.39451698464E+02  0.43461962659E+03  0.46223515923E+03  0.12509000000E+03 0.  0.
         25    1    4    4    0    0  0.70260529249E+02  0.52727626306E+01  0.25325730629E+03  0.29112044807E+03  0.12509000000E+03 0.  0.
         25    1    4    4    0    0  0.16706004585E+02 -0.44724461094E+02  0.31515241522E+03  0.34241483748E+03  0.12509000000E+03 0.  0.
<mgrwt>
<rscale>  2 0.44118590E+03</rscale>
<asrwt>0</asrwt>
<pdfrwt beam="1">  1       21 0.15432350E+00 0.44118590E+03</pdfrwt>
<pdfrwt beam="2">  1       21 0.68191990E-02 0.44118590E+03</pdfrwt>
<totfact> 0.39755949E+04</totfact>
</mgrwt>
</event>
<event>
 7    0  0.4709932E-002  0.4565398E+03  0.7546771E-02  0.1025790E+00
         21   -1    0    0  502  501  0.00000000000E+00  0.00000000000E+00  0.18104563849E+04  0.18104563849E+04  0.00000000000E+00 0.  1.
         21   -1    0    0  501  502 -0.00000000000E+00 -0.00000000000E+00 -0.28781223181E+02  0.28781223181E+02  0.00000000000E+00 0.  1.
      99926    2    1    2    0    0  0.00000000000E+00  0.00000000000E+00  0.17816751617E+04  0.18392376081E+04  0.45653980888E+03 0.  0.
      99925    2    3    3    0    0 -0.36433573663E+02  0.76258366712E+02  0.14313442635E+04  0.14577641619E+04  0.26303461242E+03 0.  0.
         25    1    4    4    0    0 -0.53680451666E+02  0.28944737225E+02  0.63358877316E+03  0.64869224620E+03  0.12509000000E+03 0.  0.
         25    1    4    4    0    0  0.17246878003E+02  0.47313629488E+02  0.79775549033E+03  0.80907191570E+03  0.12509000000E+03 0.  0.
         25    1    3    3    0    0  0.36433573663E+02 -0.76258366712E+02  0.35033089826E+03  0.38147344620E+03  0.12509000000E+03 0.  0.
<mgrwt>
<rscale>  2 0.45653981E+03</rscale>
<asrwt>0</asrwt>
<pdfrwt beam="1">  1       21 0.26624351E+00 0.45653981E+03</pdfrwt>
<pdfrwt beam="2">  1       21 0.42325341E-02 0.45653981E+03</pdfrwt>
<totfact> 0.16321376E+04</totfact>
</mgrwt>
</event>
<event>
 7    0  0.4709932E-002  0.4538617E+03  0.7546771E-02  0.1026577E+00
         21   -1    0    0  502  501  0.00000000000E+00  0.00000000000E+00  0.12548607558E+03  0.12548607558E+03  0.00000000000E+00 0.  1.
         21   -1    0    0  501  502 -0.00000000000E+00 -0.00000000000E+00 -0.41038498897E+03  0.41038498897E+03  0.00000000000E+00 0.  1.
      99926    2    1    2    0    0  0.00000000000E+00  0.00000000000E+00 -0.28489891339E+03  0.53587106455E+03  0.45386166062E+03 0.  0.
      99925    2    3    3    0    0  0.86305430301E+02  0.71386459899E+02 -0.17420327696E+03  0.33475993612E+03  0.26300718464E+03 0.  0.
         25    1    4    4    0    0  0.46651464225E+02  0.77602779153E+02 -0.90458343436E+02  0.17896583597E+03  0.12509000000E+03 0.  0.
         25    1    4    4    0    0  0.39653966076E+02 -0.62163192542E+01 -0.83744933527E+02  0.15579410015E+03  0.12509000000E+03 0.  0.
         25    1    3    3    0    0 -0.86305430301E+02 -0.71386459899E+02 -0.11069563642E+03  0.20111112843E+03  0.12509000000E+03 0.  0.
<mgrwt>
<rscale>  2 0.45386166E+03</rscale>
<asrwt>0</asrwt>
<pdfrwt beam="1">  1       21 0.18453835E-01 0.45386166E+03</pdfrwt>
<pdfrwt beam="2">  1       21 0.60350733E-01 0.45386166E+03</pdfrwt>
<totfact> 0.63379026E+04</totfact>
</mgrwt>
</event>
<event>
 7    0  0.4709932E-002  0.4623927E+03  0.7546771E-02  0.1024090E+00
         21   -1    0    0  502  501  0.00000000000E+00  0.00000000000E+00  0.77052613603E+03  0.77052613603E+03  0.00000000000E+00 0. -1.
         21   -1    0    0  501  502 -0.00000000000E+00 -0.00000000000E+00 -0.69370462615E+02  0.69370462615E+02  0.00000000000E+00 0. -1.
      99926    2    1    2    0    0  0.00000000000E+00  0.14210854715E-13  0.70115567341E+03  0.83989659864E+03  0.46239270978E+03 0.  0.
      99925    2    3    3    0    0 -0.52410545935E+02  0.93755756451E+02  0.53522330377E+03  0.60597766699E+03  0.26307402151E+03 0.  0.
         25    1    4    4    0    0 -0.24085623690E+02  0.89716324576E+02  0.28937874709E+03  0.32865894714E+03  0.12509000000E+03 0.  0.
         25    1    3    3    0    0  0.52410545935E+02 -0.93755756451E+02  0.16593236964E+03  0.23391893166E+03  0.12509000000E+03 0.  0.
         25    1    4    4    0    0 -0.28324922245E+02  0.40394318745E+01  0.24584455668E+03  0.27731871985E+03  0.12509000000E+03 0.  0.
<mgrwt>
<rscale>  2 0.46239271E+03</rscale>
<asrwt>0</asrwt>
<pdfrwt beam="1">  1       21 0.11331266E+00 0.46239271E+03</pdfrwt>
<pdfrwt beam="2">  1       21 0.10201539E-01 0.46239271E+03</pdfrwt>
<totfact> 0.43326658E+04</totfact>
</mgrwt>
</event>
<event>
 7    0  0.4709932E-002  0.4529182E+03  0.7546771E-02  0.1026855E+00
         21   -1    0    0  502  501  0.00000000000E+00  0.00000000000E+00  0.31423915834E+02  0.31423915834E+02  0.00000000000E+00 0.  1.
         21   -1    0    0  501  502 -0.00000000000E+00 -0.00000000000E+00 -0.16319964871E+04  0.16319964871E+04  0.00000000000E+00 0.  1.
      99926    2    1    2    0    0  0.00000000000E+00  0.14210854715E-13 -0.16005725712E+04  0.16634204029E+04  0.45291818357E+03 0.  0.
      99925    2    3    3    0    0  0.34493810252E+02 -0.94601402593E+02 -0.11822320920E+04  0.12153182795E+04  0.26303336833E+03 0.  0.
         25    1    3    3    0    0 -0.34493810252E+02  0.94601402593E+02 -0.41834047926E+03  0.44810212341E+03  0.12509000000E+03 0.  0.
         25    1    4    4    0    0 -0.64031975657E+01 -0.30110064841E+02 -0.42748559158E+03  0.44647402617E+03  0.12509000000E+03 0.  0.
         25    1    4    4    0    0  0.40897007817E+02 -0.64491337753E+02 -0.75474650040E+03  0.76884425332E+03  0.12509000000E+03 0.  0.
<mgrwt>
<rscale>  2 0.45291818E+03</rscale>
<asrwt>0</asrwt>
<pdfrwt beam="1">  1       21 0.46211619E-02 0.45291818E+03</pdfrwt>
<pdfrwt beam="2">  1       21 0.23999959E+00 0.45291818E+03</pdfrwt>
<totfact> 0.20360981E+04</totfact>
</mgrwt>
</event>
<event>
 7    0  0.4709932E-002  0.4541014E+03  0.7546771E-02  0.1026506E+00
         21   -1    0    0  502  501  0.00000000000E+00  0.00000000000E+00  0.13218175711E+04  0.13218175711E+04  0.00000000000E+00 0.  1.
         21   -1    0    0  501  502 -0.00000000000E+00 -0.00000000000E+00 -0.39000866266E+02  0.39000866266E+02  0.00000000000E+00 0.  1.
      99926    2    1    2    0    0  0.14210854715E-13 -0.71054273576E-14  0.12828167049E+04  0.13608184374E+04  0.45410144382E+03 0.  0.
      99925    2    3    3    0    0  0.87525491203E+02 -0.23461714441E+02  0.60986578783E+03  0.67036814339E+03  0.26314635634E+03 0.  0.
         25    1    4    4    0    0  0.75541784718E+02 -0.32051297817E+02  0.28374259254E+03  0.32076660340E+03  0.12509000000E+03 0.  0.
         25    1    4    4    0    0  0.11983706485E+02  0.85895833761E+01  0.32612319529E+03  0.34960154000E+03  0.12509000000E+03 0.  0.
         25    1    3    3    0    0 -0.87525491203E+02  0.23461714441E+02  0.67295091705E+03  0.69045029402E+03  0.12509000000E+03 0.  0.
<mgrwt>
<rscale>  2 0.45410144E+03</rscale>
<asrwt>0</asrwt>
<pdfrwt beam="1">  1       21 0.19438491E+00 0.45410144E+03</pdfrwt>
<pdfrwt beam="2">  1       21 0.57354224E-02 0.45410144E+03</pdfrwt>
<totfact> 0.27587276E+04</totfact>
</mgrwt>
</event>
<event>
 7    0  0.4709932E-002  0.4306250E+03  0.7546771E-02  0.1033663E+00
         21   -1    0    0  502  501  0.00000000000E+00  0.00000000000E+00  0.64989473460E+03  0.64989473460E+03  0.00000000000E+00 0. -1.
         21   -1    0    0  501  502 -0.00000000000E+00 -0.00000000000E+00 -0.71333806686E+02  0.71333806686E+02  0.00000000000E+00 0. -1.
      99926    2    1    2    0    0  0.00000000000E+00  0.00000000000E+00  0.57856092791E+03  0.72122854129E+03  0.43062496613E+03 0.  0.
      99925    2    3    3    0    0  0.25112106709E+02  0.77070408723E+02  0.31478607324E+03  0.41825140047E+03  0.26319858715E+03 0.  0.
         25    1    4    4    0    0  0.44789367335E+02  0.20093801457E+02  0.12869243714E+03  0.18606208577E+03  0.12509000000E+03 0.  0.
         25    1    3    3    0    0 -0.25112106709E+02 -0.77070408723E+02  0.26377485467E+03  0.30297714082E+03  0.12509000000E+03 0.  0.
         25    1    4    4    0    0 -0.19677260626E+02  0.56976607266E+02  0.18609363610E+03  0.23218931470E+03  0.12509000000E+03 0.  0.
<mgrwt>
<rscale>  2 0.43062497E+03</rscale>
<asrwt>0</asrwt>
<pdfrwt beam="1">  1       21 0.95572752E-01 0.43062497E+03</pdfrwt>
<pdfrwt beam="2">  1       21 0.10490266E-01 0.43062497E+03</pdfrwt>
<totfact> 0.63002974E+04</totfact>
</mgrwt>
</event>
<event>
 7    0  0.4709932E-002  0.4533971E+03  0.7546771E-02  0.1026714E+00
         21   -1    0    0  502  501  0.00000000000E+00  0.00000000000E+00  0.14233998527E+04  0.14233998527E+04  0.00000000000E+00 0.  1.
         21   -1    0    0  501  502 -0.00000000000E+00 -0.00000000000E+00 -0.36105267088E+02  0.36105267088E+02  0.00000000000E+00 0.  1.
      99926    2    1    2    0    0 -0.14210854715E-13 -0.71054273576E-14  0.13872945856E+04  0.14595051198E+04  0.45339709683E+03 0.  0.
      99925    2    3    3    0    0  0.10382600410E+03  0.33410794006E+02  0.95121264490E+03  0.99290991257E+03  0.26299900832E+03 0.  0.
         25    1    3    3    0    0 -0.10382600410E+03 -0.33410794006E+02  0.43608194072E+03  0.46659520722E+03  0.12509000000E+03 0.  0.
         25    1    4    4    0    0  0.17429364766E+02  0.18202334198E+02  0.52010009464E+03  0.53552471863E+03  0.12509000000E+03 0.  0.
         25    1    4    4    0    0  0.86396639333E+02  0.15208459807E+02  0.43111255026E+03  0.45738519394E+03  0.12509000000E+03 0.  0.
<mgrwt>
<rscale>  2 0.45339710E+03</rscale>
<asrwt>0</asrwt>
<pdfrwt beam="1">  1       21 0.20932347E+00 0.45339710E+03</pdfrwt>
<pdfrwt beam="2">  1       21 0.53095991E-02 0.45339710E+03</pdfrwt>
<totfact> 0.25099561E+04</totfact>
</mgrwt>
</event>
<event>
 7    0  0.4709932E-002  0.4662544E+03  0.7546771E-02  0.1022983E+00
         21   -1    0    0  502  501  0.00000000000E+00  0.00000000000E+00  0.18399288829E+03  0.18399288829E+03  0.00000000000E+00 0. -1.
         21   -1    0    0  501  502 -0.00000000000E+00 -0.00000000000E+00 -0.29538251370E+03  0.29538251370E+03  0.00000000000E+00 0. -1.
      99926    2    1    2    0    0  0.71054273576E-14 -0.14210854715E-13 -0.11138962541E+03  0.47937540200E+03  0.46625435911E+03 0.  0.
      99925    2    3    3    0    0 -0.39157952395E+02  0.11068142612E+03 -0.10827596711E+03  0.30779181802E+03  0.26311289376E+03 0.  0.
         25    1    4    4    0    0 -0.46007215975E+01  0.19470576413E+02 -0.26863634624E+02  0.12949684533E+03  0.12509000000E+03 0.  0.
         25    1    4    4    0    0 -0.34557230798E+02  0.91210849706E+02 -0.81412332486E+02  0.17829497269E+03  0.12509000000E+03 0.  0.
         25    1    3    3    0    0  0.39157952395E+02 -0.11068142612E+03 -0.31136583021E+01  0.17158358398E+03  0.12509000000E+03 0.  0.
<mgrwt>
<rscale>  2 0.46625436E+03</rscale>
<asrwt>0</asrwt>
<pdfrwt beam="1">  1       21 0.27057778E-01 0.46625436E+03</pdfrwt>
<pdfrwt beam="2">  1       21 0.43438605E-01 0.46625436E+03</pdfrwt>
<totfact> 0.61104062E+04</totfact>
</mgrwt>
</event>
<event>
 7    0  0.4709932E-002  0.4558223E+03  0.7546771E-02  0.1026000E+00
         21   -1    0    0  502  501  0.00000000000E+00  0.00000000000E+00  0.76244481077E+03  0.76244481077E+03  0.00000000000E+00 0.  1.
         21   -1    0    0  501  502 -0.00000000000E+00 -0.00000000000E+00 -0.68127557954E+02  0.68127557954E+02  0.00000000000E+00 0.  1.
      99926    2    1    2    0    0  0.00000000000E+00  0.00000000000E+00  0.69431725282E+03  0.83057236873E+03  0.45582234712E+03 0.  0.
      99925    2    3    3    0    0 -0.49681150899E+02  0.52540243503E+02  0.27629582206E+03  0.38828499765E+03  0.26305353860E+03 0.  0.
         25    1    4    4    0    0 -0.33217024917E+02  0.51730489820E+02  0.10022353780E+03  0.17167317772E+03  0.12509000000E+03 0.  0.
         25    1    4    4    0    0 -0.16464125982E+02  0.80975368328E+00  0.17607228427E+03  0.21661181993E+03  0.12509000000E+03 0.  0.
         25    1    3    3    0    0  0.49681150899E+02 -0.52540243503E+02  0.41802143076E+03  0.44228737108E+03  0.12509000000E+03 0.  0.
<mgrwt>
<rscale>  2 0.45582235E+03</rscale>
<asrwt>0</asrwt>
<pdfrwt beam="1">  1       21 0.11212423E+00 0.45582235E+03</pdfrwt>
<pdfrwt beam="2">  1       21 0.10018759E-01 0.45582235E+03</pdfrwt>
<totfact> 0.46023672E+04</totfact>
</mgrwt>
</event>
<event>
 7    0  0.4709932E-002  0.4570707E+03  0.7546771E-02  0.1025634E+00
         21   -1    0    0  502  501  0.00000000000E+00  0.00000000000E+00  0.35075265050E+02  0.35075265050E+02  0.00000000000E+00 0.  1.
         21   -1    0    0  501  502 -0.00000000000E+00 -0.00000000000E+00 -0.14890379687E+04  0.14890379687E+04  0.00000000000E+00 0.  1.
      99926    2    1    2    0    0  0.00000000000E+00  0.00000000000E+00 -0.14539627036E+04  0.15241132337E+04  0.45707067909E+03 0.  0.
      99925    2    3    3    0    0  0.10283958983E+03  0.51647835941E+02 -0.90845478694E+03  0.95273780946E+03  0.26301283896E+03 0.  0.
         25    1    4    4    0    0  0.63290629292E+02  0.53189407925E+02 -0.57949281727E+03  0.59857685408E+03  0.12509000000E+03 0.  0.
         25    1    4    4    0    0  0.39548960536E+02 -0.15415719839E+01 -0.32896196967E+03  0.35416095537E+03  0.12509000000E+03 0.  0.
         25    1    3    3    0    0 -0.10283958983E+03 -0.51647835941E+02 -0.54550791666E+03  0.57137542425E+03  0.12509000000E+03 0.  0.
<mgrwt>
<rscale>  2 0.45707068E+03</rscale>
<asrwt>0</asrwt>
<pdfrwt beam="1">  1       21 0.51581283E-02 0.45707068E+03</pdfrwt>
<pdfrwt beam="2">  1       21 0.21897612E+00 0.45707068E+03</pdfrwt>
<totfact> 0.22824994E+04</totfact>
</mgrwt>
</event>
<event>
 7    0  0.4709932E-002  0.4517946E+03  0.7546771E-02  0.1027188E+00
         21   -1    0    0  502  501  0.00000000000E+00  0.00000000000E+00  0.76952628180E+03  0.76952628180E+03  0.00000000000E+00 0.  1.
         21   -1    0    0  501  502 -0.00000000000E+00 -0.00000000000E+00 -0.66312983146E+02  0.66312983146E+02  0.00000000000E+00 0.  1.
      99926    2    1    2    0    0  0.00000000000E+00  0.00000000000E+00  0.70321329865E+03  0.83583926494E+03  0.45179456993E+03 0.  0.
      99925    2    3    3    0    0  0.10772326457E+03 -0.21769274421E+02  0.43774700755E+03  0.52247356349E+03  0.26320710265E+03 0.  0.
         25    1    3    3    0    0 -0.10772326457E+03  0.21769274421E+02  0.26546629110E+03  0.31336570145E+03  0.12509000000E+03 0.  0.
         25    1    4    4    0    0  0.52104194452E+02 -0.58723111241E+01  0.29155850538E+03  0.32156368153E+03  0.12509000000E+03 0.  0.
         25    1    4    4    0    0  0.55619070117E+02 -0.15896963297E+02  0.14618850217E+03  0.20090988196E+03  0.12509000000E+03 0.  0.
<mgrwt>
<rscale>  2 0.45179457E+03</rscale>
<asrwt>0</asrwt>
<pdfrwt beam="1">  1       21 0.11316562E+00 0.45179457E+03</pdfrwt>
<pdfrwt beam="2">  1       21 0.97519097E-02 0.45179457E+03</pdfrwt>
<totfact> 0.47256920E+04</totfact>
</mgrwt>
</event>
<event>
 7    0  0.4709932E-002  0.4516945E+03  0.7546771E-02  0.1027218E+00
         21   -1    0    0  502  501  0.00000000000E+00  0.00000000000E+00  0.39640518425E+03  0.39640518425E+03  0.00000000000E+00 0. -1.
         21   -1    0    0  501  502 -0.00000000000E+00 -0.00000000000E+00 -0.12867386364E+03  0.12867386364E+03  0.00000000000E+00 0. -1.
      99926    2    1    2    0    0  0.00000000000E+00  0.35527136788E-14  0.26773132062E+03  0.52507904789E+03  0.45169452786E+03 0.  0.
      99925    2    3    3    0    0 -0.10684455087E+03 -0.25912666631E+02  0.17355372758E+03  0.33375693345E+03  0.26303149988E+03 0.  0.
         25    1    4    4    0    0 -0.52915890252E+02 -0.16571707563E+02  0.39514314062E+02  0.14242051133E+03  0.12509000000E+03 0.  0.
         25    1    3    3    0    0  0.10684455087E+03  0.25912666631E+02  0.94177593031E+02  0.19132211444E+03  0.12509000000E+03 0.  0.
         25    1    4    4    0    0 -0.53928660620E+02 -0.93409590678E+01  0.13403941352E+03  0.19133642212E+03  0.12509000000E+03 0.  0.
<mgrwt>
<rscale>  2 0.45169453E+03</rscale>
<asrwt>0</asrwt>
<pdfrwt beam="1">  1       21 0.58294880E-01 0.45169453E+03</pdfrwt>
<pdfrwt beam="2">  1       21 0.18922627E-01 0.45169453E+03</pdfrwt>
<totfact> 0.65233419E+04</totfact>
</mgrwt>
</event>
<event>
 6    0  0.4709932E-002  0.4675205E+03  0.7546771E-02  0.1022622E+00
         21   -1    0    0  502  501  0.00000000000E+00  0.00000000000E+00  0.57946689919E+03  0.57946689919E+03  0.00000000000E+00 0. -1.
         21   -1    0    0  501  502 -0.00000000000E+00 -0.00000000000E+00 -0.94300202506E+02  0.94300202506E+02  0.00000000000E+00 0. -1.
      99926    2    1    2    0    0  0.00000000000E+00  0.00000000000E+00  0.48516669668E+03  0.67376710169E+03  0.46752046346E+03 0.  0.
         25    1    3    3    0    0  0.56957072085E+02  0.62887237235E+02  0.14444930334E+03  0.20907420215E+03  0.12509000000E+03 0.  0.
         25    1    3    3    0    0  0.31216105455E+02  0.27529229606E+02  0.19214777880E+03  0.23302485001E+03  0.12509000000E+03 0.  0.
         25    1    3    3    0    0 -0.88173177540E+02 -0.90416466842E+02  0.14856961454E+03  0.23166804954E+03  0.12509000000E+03 0.  0.
<mgrwt>
<rscale>  2 0.46752046E+03</rscale>
<asrwt>0</asrwt>
<pdfrwt beam="1">  1       21 0.85215719E-01 0.46752046E+03</pdfrwt>
<pdfrwt beam="2">  1       21 0.13867677E-01 0.46752046E+03</pdfrwt>
<totfact> 0.49301641E+04</totfact>
</mgrwt>
</event>
<event>
 7    0  0.4709932E-002  0.4482249E+03  0.7546771E-02  0.1028253E+00
         21   -1    0    0  502  501  0.00000000000E+00  0.00000000000E+00  0.16117566090E+04  0.16117566090E+04  0.00000000000E+00 0.  1.
         21   -1    0    0  501  502 -0.00000000000E+00 -0.00000000000E+00 -0.31162510819E+02  0.31162510819E+02  0.00000000000E+00 0.  1.
      99926    2    1    2    0    0 -0.35527136788E-14  0.44408920985E-15  0.15805940982E+04  0.16429191198E+04  0.44822486662E+03 0.  0.
      99925    2    3    3    0    0 -0.27950985340E+02  0.22075765210E+01  0.13781643728E+04  0.14033122902E+04  0.26298709936E+03 0.  0.
         25    1    4    4    0    0 -0.10601958243E+02  0.14086751275E+02  0.48482792870E+03  0.50101543552E+03  0.12509000000E+03 0.  0.
         25    1    3    3    0    0  0.27950985340E+02 -0.22075765210E+01  0.20242972538E+03  0.23960682960E+03  0.12509000000E+03 0.  0.
         25    1    4    4    0    0 -0.17349027096E+02 -0.11879174754E+02  0.89333644408E+03  0.90229685467E+03  0.12509000000E+03 0.  0.
<mgrwt>
<rscale>  2 0.44822487E+03</rscale>
<asrwt>0</asrwt>
<pdfrwt beam="1">  1       21 0.23702297E+00 0.44822487E+03</pdfrwt>
<pdfrwt beam="2">  1       21 0.45827233E-02 0.44822487E+03</pdfrwt>
<totfact> 0.21590724E+04</totfact>
</mgrwt>
</event>
<event>
 7    0  0.4709932E-002  0.4558975E+03  0.7546771E-02  0.1025978E+00
         21   -1    0    0  502  501  0.00000000000E+00  0.00000000000E+00  0.17720780340E+03  0.17720780340E+03  0.00000000000E+00 0. -1.
         21   -1    0    0  501  502 -0.00000000000E+00 -0.00000000000E+00 -0.29321865553E+03  0.29321865553E+03  0.00000000000E+00 0. -1.
      99926    2    1    2    0    0  0.35527136788E-14  0.14210854715E-13 -0.11601085213E+03  0.47042645893E+03  0.45589750542E+03 0.  0.
      99925    2    3    3    0    0  0.22673748320E+02  0.10314950799E+03 -0.28692041072E+02  0.28488400361E+03  0.26302422404E+03 0.  0.
         25    1    4    4    0    0  0.47631192244E+01  0.78373163502E+02  0.16051236109E+02  0.14856039291E+03  0.12509000000E+03 0.  0.
         25    1    4    4    0    0  0.17910629096E+02  0.24776344487E+02 -0.44743277181E+02  0.13632361070E+03  0.12509000000E+03 0.  0.
         25    1    3    3    0    0 -0.22673748320E+02 -0.10314950799E+03 -0.87318811057E+02  0.18554245532E+03  0.12509000000E+03 0.  0.
<mgrwt>
<rscale>  2 0.45589751E+03</rscale>
<asrwt>0</asrwt>
<pdfrwt beam="1">  1       21 0.26059971E-01 0.45589751E+03</pdfrwt>
<pdfrwt beam="2">  1       21 0.43120390E-01 0.45589751E+03</pdfrwt>
<totfact> 0.66926242E+04</totfact>
</mgrwt>
</event>
<event>
 7    0  0.4709932E-002  0.4695734E+03  0.7546771E-02  0.1022041E+00
         21   -1    0    0  502  501  0.00000000000E+00  0.00000000000E+00  0.45333884918E+03  0.45333884918E+03  0.00000000000E+00 0. -1.
         21   -1    0    0  501  502 -0.00000000000E+00 -0.00000000000E+00 -0.12159732175E+03  0.12159732175E+03  0.00000000000E+00 0. -1.
      99926    2    1    2    0    0  0.00000000000E+00 -0.71054273576E-14  0.33174152743E+03  0.57493617093E+03  0.46957338044E+03 0.  0.
      99925    2    3    3    0    0 -0.10900564121E+03  0.55290617057E+02  0.16560175681E+03  0.33371176579E+03  0.26267911721E+03 0.  0.
         25    1    4    4    0    0 -0.58413765959E+02  0.20606017739E+02  0.12804196191E+03  0.18941760248E+03  0.12509000000E+03 0.  0.
         25    1    3    3    0    0  0.10900564121E+03 -0.55290617057E+02  0.16613977062E+03  0.24122440514E+03  0.12509000000E+03 0.  0.
         25    1    4    4    0    0 -0.50591875255E+02  0.34684599318E+02  0.37559794897E+02  0.14429416331E+03  0.12509000000E+03 0.  0.
<mgrwt>
<rscale>  2 0.46957338E+03</rscale>
<asrwt>0</asrwt>
<pdfrwt beam="1">  1       21 0.66667478E-01 0.46957338E+03</pdfrwt>
<pdfrwt beam="2">  1       21 0.17881959E-01 0.46957338E+03</pdfrwt>
<totfact> 0.53777946E+04</totfact>
</mgrwt>
</event>
<event>
 7    0  0.4709932E-002  0.4425579E+03  0.7546771E-02  0.1029965E+00
         21   -1    0    0  502  501  0.00000000000E+00  0.00000000000E+00  0.41432969795E+03  0.41432969795E+03  0.00000000000E+00 0.  1.
         21   -1    0    0  501  502 -0.00000000000E+00 -0.00000000000E+00 -0.11817733736E+03  0.11817733736E+03  0.00000000000E+00 0.  1.
      99926    2    1    2    0    0 -0.71054273576E-14  0.00000000000E+00  0.29615236059E+03  0.53250703531E+03  0.44255793064E+03 0.  0.
      99925    2    3    3    0    0 -0.35879747884E+02 -0.90885456898E+02  0.15832919513E+03  0.32229225081E+03  0.26316656004E+03 0.  0.
         25    1    4    4    0    0  0.13386912392E+02 -0.17420747535E+02  0.62112617821E+02  0.14137955036E+03  0.12509000000E+03 0.  0.
         25    1    3    3    0    0  0.35879747884E+02  0.90885456898E+02  0.13782316546E+03  0.21021478450E+03  0.12509000000E+03 0.  0.
         25    1    4    4    0    0 -0.49266660276E+02 -0.73464709363E+02  0.96216577305E+02  0.18091270045E+03  0.12509000000E+03 0.  0.
<mgrwt>
<rscale>  2 0.44255793E+03</rscale>
<asrwt>0</asrwt>
<pdfrwt beam="1">  1       21 0.60930837E-01 0.44255793E+03</pdfrwt>
<pdfrwt beam="2">  1       21 0.17379020E-01 0.44255793E+03</pdfrwt>
<totfact> 0.69647248E+04</totfact>
</mgrwt>
</event>
<event>
 7    0  0.4709932E-002  0.4450143E+03  0.7546771E-02  0.1029219E+00
         21   -1    0    0  502  501  0.00000000000E+00  0.00000000000E+00  0.41631125561E+02  0.41631125561E+02  0.00000000000E+00 0. -1.
         21   -1    0    0  501  502 -0.00000000000E+00 -0.00000000000E+00 -0.11892407595E+04  0.11892407595E+04  0.00000000000E+00 0. -1.
      99926    2    1    2    0    0  0.00000000000E+00  0.00000000000E+00 -0.11476096339E+04  0.12308718850E+04  0.44501429811E+03 0.  0.
      99925    2    3    3    0    0 -0.92770648893E+02  0.17594761079E+02 -0.60884285072E+03  0.66977196195E+03  0.26265737231E+03 0.  0.
         25    1    3    3    0    0  0.92770648893E+02 -0.17594761079E+02 -0.53876678318E+03  0.56109992307E+03  0.12509000000E+03 0.  0.
         25    1    4    4    0    0 -0.12288578859E+02  0.31883310519E+02 -0.27971437889E+03  0.30831022772E+03  0.12509000000E+03 0.  0.
         25    1    4    4    0    0 -0.80482070034E+02 -0.14288549441E+02 -0.32912847183E+03  0.36146173423E+03  0.12509000000E+03 0.  0.
<mgrwt>
<rscale>  2 0.44501430E+03</rscale>
<asrwt>0</asrwt>
<pdfrwt beam="1">  1       21 0.61222253E-02 0.44501430E+03</pdfrwt>
<pdfrwt beam="2">  1       21 0.17488832E+00 0.44501430E+03</pdfrwt>
<totfact> 0.33737853E+04</totfact>
</mgrwt>
</event>
<event>
 7    0  0.4709932E-002  0.4601243E+03  0.7546771E-02  0.1024745E+00
         21   -1    0    0  502  501  0.00000000000E+00  0.00000000000E+00  0.41293358458E+02  0.41293358458E+02  0.00000000000E+00 0.  1.
         21   -1    0    0  501  502 -0.00000000000E+00 -0.00000000000E+00 -0.12817700320E+04  0.12817700320E+04  0.00000000000E+00 0.  1.
      99926    2    1    2    0    0 -0.14210854715E-13  0.88817841970E-15 -0.12404766736E+04  0.13230633905E+04  0.46012428492E+03 0.  0.
      99925    2    3    3    0    0 -0.92316099219E+02 -0.60032848399E+01 -0.56677219722E+03  0.63162754302E+03  0.26299111764E+03 0.  0.
         25    1    4    4    0    0 -0.25449292972E+02 -0.13058386982E+02 -0.19279820426E+03  0.23159629455E+03  0.12509000000E+03 0.  0.
         25    1    3    3    0    0  0.92316099219E+02  0.60032848399E+01 -0.67370447636E+03  0.69143584748E+03  0.12509000000E+03 0.  0.
         25    1    4    4    0    0 -0.66866806246E+02  0.70551021422E+01 -0.37397399296E+03  0.40003124847E+03  0.12509000000E+03 0.  0.
<mgrwt>
<rscale>  2 0.46012428E+03</rscale>
<asrwt>0</asrwt>
<pdfrwt beam="1">  1       21 0.60725524E-02 0.46012428E+03</pdfrwt>
<pdfrwt beam="2">  1       21 0.18849560E+00 0.46012428E+03</pdfrwt>
<totfact> 0.27346222E+04</totfact>
</mgrwt>
</event>
<event>
 7    0  0.4709932E-002  0.4585134E+03  0.7546771E-02  0.1025213E+00
         21   -1    0    0  502  501  0.00000000000E+00  0.00000000000E+00  0.20642281325E+03  0.20642281325E+03  0.00000000000E+00 0. -1.
         21   -1    0    0  501  502 -0.00000000000E+00 -0.00000000000E+00 -0.25461643518E+03  0.25461643518E+03  0.00000000000E+00 0. -1.
      99926    2    1    2    0    0 -0.14210854715E-13  0.71054273576E-14 -0.48193621936E+02  0.46103924843E+03  0.45851342772E+03 0.  0.
      99925    2    3    3    0    0 -0.91236409328E+02  0.61128659938E+02 -0.68959139083E+02  0.29329089448E+03  0.26306537299E+03 0.  0.
         25    1    4    4    0    0 -0.42696161345E+02 -0.14952275563E-01 -0.41950078478E+01  0.13224246144E+03  0.12509000000E+03 0.  0.
         25    1    3    3    0    0  0.91236409328E+02 -0.61128659938E+02  0.20765517147E+02  0.16774835396E+03  0.12509000000E+03 0.  0.
         25    1    4    4    0    0 -0.48540247982E+02  0.61143612214E+02 -0.64764131235E+02  0.16104843304E+03  0.12509000000E+03 0.  0.
<mgrwt>
<rscale>  2 0.45851343E+03</rscale>
<asrwt>0</asrwt>
<pdfrwt beam="1">  1       21 0.30356296E-01 0.45851343E+03</pdfrwt>
<pdfrwt beam="2">  1       21 0.37443593E-01 0.45851343E+03</pdfrwt>
<totfact> 0.66229473E+04</totfact>
</mgrwt>
</event>
<event>
 7    0  0.4709932E-002  0.4563672E+03  0.7546771E-02  0.1025840E+00
         21   -1    0    0  502  501  0.00000000000E+00  0.00000000000E+00  0.20332803750E+03  0.20332803750E+03  0.00000000000E+00 0.  1.
         21   -1    0    0  501  502 -0.00000000000E+00 -0.00000000000E+00 -0.25607764176E+03  0.25607764176E+03  0.00000000000E+00 0.  1.
      99926    2    1    2    0    0 -0.14210854715E-13  0.00000000000E+00 -0.52749604260E+02  0.45940567925E+03  0.45636723960E+03 0.  0.
      99925    2    3    3    0    0  0.10590696052E+03  0.36994643781E+02 -0.10276212861E+02  0.28609559578E+03  0.26298327213E+03 0.  0.
         25    1    3    3    0    0 -0.10590696052E+03 -0.36994643781E+02 -0.42473391399E+02  0.17331008347E+03  0.12509000000E+03 0.  0.
         25    1    4    4    0    0  0.65382043231E+02  0.20617775261E+02  0.33536535694E+02  0.14653365334E+03  0.12509000000E+03 0.  0.
         25    1    4    4    0    0  0.40524917290E+02  0.16376868520E+02 -0.43812748555E+02  0.13956194245E+03  0.12509000000E+03 0.  0.
<mgrwt>
<rscale>  2 0.45636724E+03</rscale>
<asrwt>0</asrwt>
<pdfrwt beam="1">  1       21 0.29901182E-01 0.45636724E+03</pdfrwt>
<pdfrwt beam="2">  1       21 0.37658477E-01 0.45636724E+03</pdfrwt>
<totfact> 0.67484981E+04</totfact>
</mgrwt>
</event>
<event>
 7    0  0.4709932E-002  0.4545241E+03  0.7546771E-02  0.1026381E+00
         21   -1    0    0  502  501  0.00000000000E+00  0.00000000000E+00  0.30864814412E+02  0.30864814412E+02  0.00000000000E+00 0. -1.
         21   -1    0    0  501  502 -0.00000000000E+00 -0.00000000000E+00 -0.16733632039E+04  0.16733632039E+04  0.00000000000E+00 0. -1.
      99926    2    1    2    0    0  0.00000000000E+00  0.71054273576E-14 -0.16424983895E+04  0.17042280183E+04  0.45452412359E+03 0.  0.
      99925    2    3    3    0    0 -0.10545656960E+03  0.35946789460E+02 -0.10974009148E+04  0.11339719138E+04  0.26304044117E+03 0.  0.
         25    1    4    4    0    0 -0.44027731524E+02 -0.11731061886E+02 -0.63000947383E+03  0.64392197056E+03  0.12509000000E+03 0.  0.
         25    1    4    4    0    0 -0.61428838074E+02  0.47677851346E+02 -0.46739144096E+03  0.49004994321E+03  0.12509000000E+03 0.  0.
         25    1    3    3    0    0  0.10545656960E+03 -0.35946789460E+02 -0.54509747467E+03  0.57025610451E+03  0.12509000000E+03 0.  0.
<mgrwt>
<rscale>  2 0.45452412E+03</rscale>
<asrwt>0</asrwt>
<pdfrwt beam="1">  1       21 0.45389424E-02 0.45452412E+03</pdfrwt>
<pdfrwt beam="2">  1       21 0.24608287E+00 0.45452412E+03</pdfrwt>
<totfact> 0.19244883E+04</totfact>
</mgrwt>
</event>
<event>
 7    0  0.4709932E-002  0.4484033E+03  0.7546771E-02  0.1028199E+00
         21   -1    0    0  502  501  0.00000000000E+00  0.00000000000E+00  0.87156449501E+03  0.87156449501E+03  0.00000000000E+00 0. -1.
         21   -1    0    0  501  502 -0.00000000000E+00 -0.00000000000E+00 -0.57673738330E+02  0.57673738330E+02  0.00000000000E+00 0. -1.
      99926    2    1    2    0    0  0.00000000000E+00  0.71054273576E-14  0.81389075668E+03  0.92923823334E+03  0.44840331231E+03 0.  0.
      99925    2    3    3    0    0 -0.74347934879E+02  0.62153767714E+02  0.42169913099E+03  0.50632868554E+03  0.26295983431E+03 0.  0.
         25    1    3    3    0    0  0.74347934879E+02 -0.62153767714E+02  0.39219162569E+03  0.42290954780E+03  0.12509000000E+03 0.  0.
         25    1    4    4    0    0 -0.69086249934E+02  0.32824274623E+02  0.17649374553E+03  0.22945128730E+03  0.12509000000E+03 0.  0.
         25    1    4    4    0    0 -0.52616849444E+01  0.29329493091E+02  0.24520538547E+03  0.27687739824E+03  0.12509000000E+03 0.  0.
<mgrwt>
<rscale>  2 0.44840331E+03</rscale>
<asrwt>0</asrwt>
<pdfrwt beam="1">  1       21 0.12817124E+00 0.44840331E+03</pdfrwt>
<pdfrwt beam="2">  1       21 0.84814327E-02 0.44840331E+03</pdfrwt>
<totfact> 0.44231626E+04</totfact>
</mgrwt>
</event>
<event>
 7    0  0.4709932E-002  0.4382685E+03  0.7546771E-02  0.1031279E+00
         21   -1    0    0  502  501  0.00000000000E+00  0.00000000000E+00  0.14226138822E+03  0.14226138822E+03  0.00000000000E+00 0.  1.
         21   -1    0    0  501  502 -0.00000000000E+00 -0.00000000000E+00 -0.33754645869E+03  0.33754645869E+03  0.00000000000E+00 0.  1.
      99926    2    1    2    0    0  0.00000000000E+00  0.00000000000E+00 -0.19528507047E+03  0.47980784691E+03  0.43826853778E+03 0.  0.
      99925    2    3    3    0    0  0.23888472775E+02 -0.39329668517E+02 -0.21780379980E+03  0.34463357706E+03  0.26308995662E+03 0.  0.
         25    1    3    3    0    0 -0.23888472775E+02  0.39329668517E+02  0.22518729334E+02  0.13517426984E+03  0.12509000000E+03 0.  0.
         25    1    4    4    0    0  0.52585091113E+02 -0.20540828891E+02 -0.10645228156E+03  0.17368567531E+03  0.12509000000E+03 0.  0.
         25    1    4    4    0    0 -0.28696618338E+02 -0.18788839626E+02 -0.11135151824E+03  0.17094790175E+03  0.12509000000E+03 0.  0.
<mgrwt>
<rscale>  2 0.43826854E+03</rscale>
<asrwt>0</asrwt>
<pdfrwt beam="1">  1       21 0.20920793E-01 0.43826854E+03</pdfrwt>
<pdfrwt beam="2">  1       21 0.49639185E-01 0.43826854E+03</pdfrwt>
<totfact> 0.76364002E+04</totfact>
</mgrwt>
</event>
<event>
 7    0  0.4709932E-002  0.4585220E+03  0.7546771E-02  0.1025211E+00
         21   -1    0    0  502  501  0.00000000000E+00  0.00000000000E+00  0.11983557505E+04  0.11983557505E+04  0.00000000000E+00 0.  1.
         21   -1    0    0  501  502 -0.00000000000E+00 -0.00000000000E+00 -0.43860610355E+02  0.43860610355E+02  0.00000000000E+00 0.  1.
      99926    2    1    2    0    0  0.00000000000E+00  0.00000000000E+00  0.11544951401E+04  0.12422163609E+04  0.45852203716E+03 0.  0.
      99925    2    3    3    0    0  0.81563401688E+02 -0.59039258987E+02  0.56608459687E+03  0.63228792396E+03  0.26305517553E+03 0.  0.
         25    1    3    3    0    0 -0.81563401688E+02  0.59039258987E+02  0.58841054327E+03  0.60992843689E+03  0.12509000000E+03 0.  0.
         25    1    4    4    0    0  0.16493906267E+02 -0.43633252358E+02  0.34142613518E+03  0.36659954110E+03  0.12509000000E+03 0.  0.
         25    1    4    4    0    0  0.65069495420E+02 -0.15406006629E+02  0.22465846169E+03  0.26568838286E+03  0.12509000000E+03 0.  0.
<mgrwt>
<rscale>  2 0.45852204E+03</rscale>
<asrwt>0</asrwt>
<pdfrwt beam="1">  1       21 0.17622877E+00 0.45852204E+03</pdfrwt>
<pdfrwt beam="2">  1       21 0.64500906E-02 0.45852204E+03</pdfrwt>
<totfact> 0.30008819E+04</totfact>
</mgrwt>
</event>
<event>
 7    0  0.4709932E-002  0.4540304E+03  0.7546771E-02  0.1026527E+00
         21   -1    0    0  502  501  0.00000000000E+00  0.00000000000E+00  0.44636904570E+02  0.44636904570E+02  0.00000000000E+00 0.  1.
         21   -1    0    0  501  502 -0.00000000000E+00 -0.00000000000E+00 -0.11545580383E+04  0.11545580383E+04  0.00000000000E+00 0.  1.
      99926    2    1    2    0    0  0.00000000000E+00  0.35527136788E-14 -0.11099211338E+04  0.11991949429E+04  0.45403038214E+03 0.  0.
      99925    2    3    3    0    0  0.60169240872E+02  0.23420783058E+02 -0.45595848067E+03  0.53025284498E+03  0.26287082929E+03 0.  0.
         25    1    3    3    0    0 -0.60169240872E+02 -0.23420783058E+02 -0.65396265309E+03  0.66894209791E+03  0.12509000000E+03 0.  0.
         25    1    4    4    0    0  0.32951041139E+02 -0.28498467693E+02 -0.22965004622E+03  0.26511240183E+03  0.12509000000E+03 0.  0.
         25    1    4    4    0    0  0.27218199733E+02  0.51919250751E+02 -0.22630843445E+03  0.26514044316E+03  0.12509000000E+03 0.  0.
<mgrwt>
<rscale>  2 0.45403038E+03</rscale>
<asrwt>0</asrwt>
<pdfrwt beam="1">  1       21 0.65642515E-02 0.45403038E+03</pdfrwt>
<pdfrwt beam="2">  1       21 0.16978793E+00 0.45403038E+03</pdfrwt>
<totfact> 0.32425704E+04</totfact>
</mgrwt>
</event>
<event>
 7    0  0.4709932E-002  0.4396159E+03  0.7546771E-02  0.1030865E+00
         21   -1    0    0  502  501  0.00000000000E+00  0.00000000000E+00  0.74728925781E+03  0.74728925781E+03  0.00000000000E+00 0.  1.
         21   -1    0    0  501  502 -0.00000000000E+00 -0.00000000000E+00 -0.64654404036E+02  0.64654404036E+02  0.00000000000E+00 0.  1.
      99926    2    1    2    0    0  0.35527136788E-14  0.00000000000E+00  0.68263485377E+03  0.81194366184E+03  0.43961593059E+03 0.  0.
      99925    2    3    3    0    0 -0.67142840765E+01  0.78950350997E+02  0.32889920119E+03  0.42846659664E+03  0.26292717691E+03 0.  0.
         25    1    4    4    0    0 -0.41918973046E+02  0.33950827175E+02  0.14672387721E+03  0.20021304456E+03  0.12509000000E+03 0.  0.
         25    1    3    3    0    0  0.67142840765E+01 -0.78950350997E+02  0.35373565258E+03  0.38347706520E+03  0.12509000000E+03 0.  0.
         25    1    4    4    0    0  0.35204688970E+02  0.44999523821E+02  0.18217532398E+03  0.22825355208E+03  0.12509000000E+03 0.  0.
<mgrwt>
<rscale>  2 0.43961593E+03</rscale>
<asrwt>0</asrwt>
<pdfrwt beam="1">  1       21 0.10989547E+00 0.43961593E+03</pdfrwt>
<pdfrwt beam="2">  1       21 0.95080010E-02 0.43961593E+03</pdfrwt>
<totfact> 0.53346945E+04</totfact>
</mgrwt>
</event>
<event>
 7    0  0.4709932E-002  0.4480113E+03  0.7546771E-02  0.1028317E+00
         21   -1    0    0  502  501  0.00000000000E+00  0.00000000000E+00  0.59143007411E+02  0.59143007411E+02  0.00000000000E+00 0.  1.
         21   -1    0    0  501  502 -0.00000000000E+00 -0.00000000000E+00 -0.84842725442E+03  0.84842725442E+03  0.00000000000E+00 0.  1.
      99926    2    1    2    0    0  0.00000000000E+00  0.00000000000E+00 -0.78928424701E+03  0.90757026183E+03  0.44801133644E+03 0.  0.
      99925    2    3    3    0    0  0.73609426658E+02  0.65552803482E+02 -0.41759698828E+03  0.50320106896E+03  0.26288505749E+03 0.  0.
         25    1    3    3    0    0 -0.73609426658E+02 -0.65552803482E+02 -0.37168725874E+03  0.40436919287E+03  0.12509000000E+03 0.  0.
         25    1    4    4    0    0  0.19307504526E+02  0.36407629167E+01 -0.14779615493E+03  0.19462077586E+03  0.12509000000E+03 0.  0.
         25    1    4    4    0    0  0.54301922132E+02  0.61912040565E+02 -0.26980083335E+03  0.30858029310E+03  0.12509000000E+03 0.  0.
<mgrwt>
<rscale>  2 0.44801134E+03</rscale>
<asrwt>0</asrwt>
<pdfrwt beam="1">  1       21 0.86975013E-02 0.44801134E+03</pdfrwt>
<pdfrwt beam="2">  1       21 0.12476871E+00 0.44801134E+03</pdfrwt>
<totfact> 0.45337009E+04</totfact>
</mgrwt>
</event>
<event>
 7    0  0.4709932E-002  0.4607987E+03  0.7546771E-02  0.1024550E+00
         21   -1    0    0  502  501  0.00000000000E+00  0.00000000000E+00  0.16881369236E+03  0.16881369236E+03  0.00000000000E+00 0.  1.
         21   -1    0    0  501  502 -0.00000000000E+00 -0.00000000000E+00 -0.31445230905E+03  0.31445230905E+03  0.00000000000E+00 0.  1.
      99926    2    1    2    0    0  0.00000000000E+00  0.00000000000E+00 -0.14563861669E+03  0.48326600140E+03  0.46079867777E+03 0.  0.
      99925    2    3    3    0    0 -0.48933933749E+02 -0.10802962181E+03 -0.92670111410E+02  0.30293824504E+03  0.26290473883E+03 0.  0.
         25    1    4    4    0    0 -0.61475604079E+02 -0.51344740413E+02 -0.65710726850E+02  0.16242210437E+03  0.12509000000E+03 0.  0.
         25    1    3    3    0    0  0.48933933749E+02  0.10802962181E+03 -0.52968505281E+02  0.18032775636E+03  0.12509000000E+03 0.  0.
         25    1    4    4    0    0  0.12541670330E+02 -0.56684881400E+02 -0.26959384559E+02  0.14051614067E+03  0.12509000000E+03 0.  0.
<mgrwt>
<rscale>  2 0.46079868E+03</rscale>
<asrwt>0</asrwt>
<pdfrwt beam="1">  1       21 0.24825543E-01 0.46079868E+03</pdfrwt>
<pdfrwt beam="2">  1       21 0.46242986E-01 0.46079868E+03</pdfrwt>
<totfact> 0.63490184E+04</totfact>
</mgrwt>
</event>
<event>
 7    0  0.4709932E-002  0.4495274E+03  0.7546771E-02  0.1027863E+00
         21   -1    0    0  502  501  0.00000000000E+00  0.00000000000E+00  0.84962964695E+02  0.84962964695E+02  0.00000000000E+00 0. -1.
         21   -1    0    0  501  502 -0.00000000000E+00 -0.00000000000E+00 -0.59459686228E+03  0.59459686228E+03  0.00000000000E+00 0. -1.
      99926    2    1    2    0    0  0.00000000000E+00  0.00000000000E+00 -0.50963389759E+03  0.67955982698E+03  0.44952736165E+03 0.  0.
      99925    2    3    3    0    0 -0.31073974967E+02 -0.10281708106E+03 -0.30567603670E+03  0.41729419599E+03  0.26298224753E+03 0.  0.
         25    1    4    4    0    0 -0.10625526586E+02 -0.63876148385E+02 -0.10062884115E+03  0.17310902899E+03  0.12509000000E+03 0.  0.
         25    1    4    4    0    0 -0.20448448382E+02 -0.38940932679E+02 -0.20504719555E+03  0.24418516700E+03  0.12509000000E+03 0.  0.
         25    1    3    3    0    0  0.31073974967E+02  0.10281708106E+03 -0.20395786089E+03  0.26226563098E+03  0.12509000000E+03 0.  0.
<mgrwt>
<rscale>  2 0.44952736E+03</rscale>
<asrwt>0</asrwt>
<pdfrwt beam="1">  1       21 0.12494554E-01 0.44952736E+03</pdfrwt>
<pdfrwt beam="2">  1       21 0.87440715E-01 0.44952736E+03</pdfrwt>
<totfact> 0.56419501E+04</totfact>
</mgrwt>
</event>
<event>
 7    0  0.4709932E-002  0.4548290E+03  0.7546771E-02  0.1026292E+00
         21   -1    0    0  502  501  0.00000000000E+00  0.00000000000E+00  0.60140005762E+03  0.60140005762E+03  0.00000000000E+00 0. -1.
         21   -1    0    0  501  502 -0.00000000000E+00 -0.00000000000E+00 -0.85994912384E+02  0.85994912384E+02  0.00000000000E+00 0. -1.
      99926    2    1    2    0    0  0.00000000000E+00  0.00000000000E+00  0.51540514523E+03  0.68739497000E+03  0.45482895802E+03 0.  0.
      99925    2    3    3    0    0  0.87489253758E+02  0.71510076680E+02  0.31524297769E+03  0.42570725152E+03  0.26283163512E+03 0.  0.
         25    1    3    3    0    0 -0.87489253758E+02 -0.71510076680E+02  0.20016216754E+03  0.26168771848E+03  0.12509000000E+03 0.  0.
         25    1    4    4    0    0  0.85570832716E+01  0.11777079833E+02  0.12502799594E+03  0.17745825186E+03  0.12509000000E+03 0.  0.
         25    1    4    4    0    0  0.78932170486E+02  0.59732996847E+02  0.19021498175E+03  0.24824899966E+03  0.12509000000E+03 0.  0.
<mgrwt>
<rscale>  2 0.45482896E+03</rscale>
<asrwt>0</asrwt>
<pdfrwt beam="1">  1       21 0.88441182E-01 0.45482896E+03</pdfrwt>
<pdfrwt beam="2">  1       21 0.12646311E-01 0.45482896E+03</pdfrwt>
<totfact> 0.53665075E+04</totfact>
</mgrwt>
</event>
<event>
 7    0  0.4709932E-002  0.4508653E+03  0.7546771E-02  0.1027464E+00
         21   -1    0    0  502  501  0.00000000000E+00  0.00000000000E+00  0.57272715651E+03  0.57272715651E+03  0.00000000000E+00 0.  1.
         21   -1    0    0  501  502 -0.00000000000E+00 -0.00000000000E+00 -0.88733155573E+02  0.88733155573E+02  0.00000000000E+00 0.  1.
      99926    2    1    2    0    0 -0.14210854715E-13  0.71054273576E-14  0.48399400093E+03  0.66146031208E+03  0.45086533635E+03 0.  0.
      99925    2    3    3    0    0 -0.92921469347E+02  0.43096299336E+02  0.25120261416E+03  0.37803302275E+03  0.26327651328E+03 0.  0.
         25    1    4    4    0    0 -0.14294578757E+02  0.14720104428E+02  0.15154364888E+03  0.19757024591E+03  0.12509000000E+03 0.  0.
         25    1    3    3    0    0  0.92921469347E+02 -0.43096299336E+02  0.23279138677E+03  0.28342728933E+03  0.12509000000E+03 0.  0.
         25    1    4    4    0    0 -0.78626890590E+02  0.28376194909E+02  0.99658965287E+02  0.18046277684E+03  0.12509000000E+03 0.  0.
<mgrwt>
<rscale>  2 0.45086534E+03</rscale>
<asrwt>0</asrwt>
<pdfrwt beam="1">  1       21 0.84224580E-01 0.45086534E+03</pdfrwt>
<pdfrwt beam="2">  1       21 0.13048994E-01 0.45086534E+03</pdfrwt>
<totfact> 0.56877179E+04</totfact>
</mgrwt>
</event>
<event>
 7    0  0.4709932E-002  0.4309783E+03  0.7546771E-02  0.1033551E+00
         21   -1    0    0  502  501  0.00000000000E+00  0.00000000000E+00  0.14336566586E+03  0.14336566586E+03  0.00000000000E+00 0. -1.
         21   -1    0    0  501  502 -0.00000000000E+00 -0.00000000000E+00 -0.32389598889E+03  0.32389598889E+03  0.00000000000E+00 0. -1.
      99926    2    1    2    0    0 -0.71054273576E-14 -0.14210854715E-13 -0.18053032303E+03  0.46726165474E+03  0.43097825520E+03 0.  0.
      99925    2    3    3    0    0  0.36027922465E+02  0.73603716294E+02 -0.79581446630E+02  0.28683520991E+03  0.26310779682E+03 0.  0.
         25    1    4    4    0    0 -0.52965712565E+01  0.69425806866E+02 -0.50928021474E+02  0.15195120203E+03  0.12509000000E+03 0.  0.
         25    1    3    3    0    0 -0.36027922465E+02 -0.73603716294E+02 -0.10094887640E+03  0.18042644484E+03  0.12509000000E+03 0.  0.
         25    1    4    4    0    0  0.41324493722E+02  0.41779094272E+01 -0.28653425156E+02  0.13488400788E+03  0.12509000000E+03 0.  0.
<mgrwt>
<rscale>  2 0.43097826E+03</rscale>
<asrwt>0</asrwt>
<pdfrwt beam="1">  1       21 0.21083186E-01 0.43097826E+03</pdfrwt>
<pdfrwt beam="2">  1       21 0.47631763E-01 0.43097826E+03</pdfrwt>
<totfact> 0.82235965E+04</totfact>
</mgrwt>
</event>
<event>
 7    0  0.4709932E-002  0.4439533E+03  0.7546771E-02  0.1029541E+00
         21   -1    0    0  502  501  0.00000000000E+00  0.00000000000E+00  0.13349463574E+03  0.13349463574E+03  0.00000000000E+00 0.  1.
         21   -1    0    0  501  502 -0.00000000000E+00 -0.00000000000E+00 -0.36910572428E+03  0.36910572428E+03  0.00000000000E+00 0.  1.
      99926    2    1    2    0    0  0.35527136788E-14  0.00000000000E+00 -0.23561108854E+03  0.50260036003E+03  0.44395330482E+03 0.  0.
      99925    2    3    3    0    0  0.30464834869E+02 -0.97625951991E+02 -0.15583698416E+03  0.32240505350E+03  0.26306067784E+03 0.  0.
         25    1    4    4    0    0 -0.19114103586E+02 -0.31231687453E+02 -0.54103375280E+02  0.14112211228E+03  0.12509000000E+03 0.  0.
         25    1    3    3    0    0 -0.30464834869E+02  0.97625951991E+02 -0.79774104376E+02  0.18019530653E+03  0.12509000000E+03 0.  0.
         25    1    4    4    0    0  0.49578938454E+02 -0.66394264538E+02 -0.10173360888E+03  0.18128294122E+03  0.12509000000E+03 0.  0.
<mgrwt>
<rscale>  2 0.44395330E+03</rscale>
<asrwt>0</asrwt>
<pdfrwt beam="1">  1       21 0.19631564E-01 0.44395330E+03</pdfrwt>
<pdfrwt beam="2">  1       21 0.54280254E-01 0.44395330E+03</pdfrwt>
<totfact> 0.71122204E+04</totfact>
</mgrwt>
</event>
<event>
 7    0  0.4709932E-002  0.4525218E+03  0.7546771E-02  0.1026973E+00
         21   -1    0    0  502  501  0.00000000000E+00  0.00000000000E+00  0.10321511196E+03  0.10321511196E+03  0.00000000000E+00 0. -1.
         21   -1    0    0  501  502 -0.00000000000E+00 -0.00000000000E+00 -0.49599326815E+03  0.49599326815E+03  0.00000000000E+00 0. -1.
      99926    2    1    2    0    0  0.00000000000E+00  0.71054273576E-14 -0.39277815619E+03  0.59920838011E+03  0.45252182579E+03 0.  0.
      99925    2    3    3    0    0 -0.73254760421E+02 -0.61872091296E+02 -0.32138027649E+03  0.42617780209E+03  0.26295973317E+03 0.  0.
         25    1    3    3    0    0  0.73254760421E+02  0.61872091296E+02 -0.71397879704E+02  0.17303057803E+03  0.12509000000E+03 0.  0.
         25    1    4    4    0    0 -0.45304113619E+02  0.17441729849E+01 -0.12025833212E+03  0.17934625559E+03  0.12509000000E+03 0.  0.
         25    1    4    4    0    0 -0.27950646802E+02 -0.63616264281E+02 -0.20112194437E+03  0.24683154650E+03  0.12509000000E+03 0.  0.
<mgrwt>
<rscale>  2 0.45252183E+03</rscale>
<asrwt>0</asrwt>
<pdfrwt beam="1">  1       21 0.15178693E-01 0.45252183E+03</pdfrwt>
<pdfrwt beam="2">  1       21 0.72940186E-01 0.45252183E+03</pdfrwt>
<totfact> 0.59891157E+04</totfact>
</mgrwt>
</event>
<event>
 7    0  0.4709932E-002  0.4554500E+03  0.7546771E-02  0.1026109E+00
         21   -1    0    0  502  501  0.00000000000E+00  0.00000000000E+00  0.33305666205E+03  0.33305666205E+03  0.00000000000E+00 0. -1.
         21   -1    0    0  501  502 -0.00000000000E+00 -0.00000000000E+00 -0.15570529579E+03  0.15570529579E+03  0.00000000000E+00 0. -1.
      99926    2    1    2    0    0  0.00000000000E+00  0.00000000000E+00  0.17735136626E+03  0.48876195784E+03  0.45545004591E+03 0.  0.
      99925    2    3    3    0    0  0.79477977309E+02 -0.57053080161E+02  0.17336224465E+03  0.32990597267E+03  0.26308112837E+03 0.  0.
         25    1    4    4    0    0  0.31735718729E+02 -0.68017587848E+02  0.99715784419E+02  0.17670397240E+03  0.12509000000E+03 0.  0.
         25    1    4    4    0    0  0.47742258580E+02  0.10964507686E+02  0.73646460228E+02  0.15320200027E+03  0.12509000000E+03 0.  0.
         25    1    3    3    0    0 -0.79477977309E+02  0.57053080161E+02  0.39891216120E+01  0.15885598517E+03  0.12509000000E+03 0.  0.
<mgrwt>
<rscale>  2 0.45545005E+03</rscale>
<asrwt>0</asrwt>
<pdfrwt beam="1">  1       21 0.48978921E-01 0.45545005E+03</pdfrwt>
<pdfrwt beam="2">  1       21 0.22897838E-01 0.45545005E+03</pdfrwt>
<totfact> 0.65832097E+04</totfact>
</mgrwt>
</event>
<event>
 7    0  0.4709932E-002  0.4548830E+03  0.7546771E-02  0.1026276E+00
         21   -1    0    0  502  501  0.00000000000E+00  0.00000000000E+00  0.10078759290E+04  0.10078759290E+04  0.00000000000E+00 0.  1.
         21   -1    0    0  501  502 -0.00000000000E+00 -0.00000000000E+00 -0.51325397854E+02  0.51325397854E+02  0.00000000000E+00 0.  1.
      99926    2    1    2    0    0 -0.17763568394E-14  0.00000000000E+00  0.95655053112E+03  0.10592013268E+04  0.45488298734E+03 0.  0.
      99925    2    3    3    0    0 -0.10294972124E+02 -0.10107395854E+03  0.71759214661E+03  0.77098170714E+03  0.26296838654E+03 0.  0.
         25    1    4    4    0    0  0.27411782777E+02 -0.70306620517E+02  0.41478295097E+03  0.43975769606E+03  0.12509000000E+03 0.  0.
         25    1    3    3    0    0  0.10294972124E+02  0.10107395854E+03  0.23895838451E+03  0.28821961969E+03  0.12509000000E+03 0.  0.
         25    1    4    4    0    0 -0.37706754901E+02 -0.30767338027E+02  0.30280919564E+03  0.33122401108E+03  0.12509000000E+03 0.  0.
<mgrwt>
<rscale>  2 0.45488299E+03</rscale>
<asrwt>0</asrwt>
<pdfrwt beam="1">  1       21 0.14821704E+00 0.45488299E+03</pdfrwt>
<pdfrwt beam="2">  1       21 0.75478533E-02 0.45488299E+03</pdfrwt>
<totfact> 0.36975323E+04</totfact>
</mgrwt>
</event>
<event>
 7    0  0.4709932E-002  0.4486414E+03  0.7546771E-02  0.1028128E+00
         21   -1    0    0  502  501  0.00000000000E+00  0.00000000000E+00  0.67464308380E+02  0.67464308380E+02  0.00000000000E+00 0.  1.
         21   -1    0    0  501  502 -0.00000000000E+00 -0.00000000000E+00 -0.74587266157E+03  0.74587266157E+03  0.00000000000E+00 0.  1.
      99926    2    1    2    0    0  0.00000000000E+00  0.00000000000E+00 -0.67840835319E+03  0.81333696995E+03  0.44864143033E+03 0.  0.
      99925    2    3    3    0    0 -0.77478587031E+01 -0.58424564350E+02 -0.59145933127E+03  0.64999346825E+03  0.26304735161E+03 0.  0.
         25    1    4    4    0    0  0.18360125042E+01 -0.12944009186E+01 -0.21066329467E+03  0.24501342461E+03  0.12509000000E+03 0.  0.
         25    1    3    3    0    0  0.77478587031E+01  0.58424564350E+02 -0.86949021917E+02  0.16334350170E+03  0.12509000000E+03 0.  0.
         25    1    4    4    0    0 -0.95838712073E+01 -0.57130163431E+02 -0.38079603660E+03  0.40498004364E+03  0.12509000000E+03 0.  0.
<mgrwt>
<rscale>  2 0.44864143E+03</rscale>
<asrwt>0</asrwt>
<pdfrwt beam="1">  1       21 0.99212223E-02 0.44864143E+03</pdfrwt>
<pdfrwt beam="2">  1       21 0.10968715E+00 0.44864143E+03</pdfrwt>
<totfact> 0.49553100E+04</totfact>
</mgrwt>
</event>
<event>
 7    0  0.4709932E-002  0.4504203E+03  0.7546771E-02  0.1027597E+00
         21   -1    0    0  502  501  0.00000000000E+00  0.00000000000E+00  0.30128206883E+02  0.30128206883E+02  0.00000000000E+00 0. -1.
         21   -1    0    0  501  502 -0.00000000000E+00 -0.00000000000E+00 -0.16834594672E+04  0.16834594672E+04  0.00000000000E+00 0. -1.
      99926    2    1    2    0    0  0.71054273576E-14  0.14210854715E-13 -0.16533312603E+04  0.17135876741E+04  0.45042031529E+03 0.  0.
      99925    2    3    3    0    0 -0.26445269786E+02 -0.83416862316E+02 -0.12907009562E+04  0.13201337749E+04  0.26303326805E+03 0.  0.
         25    1    4    4    0    0 -0.43321228304E+02 -0.47061228856E+02 -0.79529578167E+03  0.80761028753E+03  0.12509000000E+03 0.  0.
         25    1    4    4    0    0  0.16875958518E+02 -0.36355633460E+02 -0.49540517453E+03  0.51252348738E+03  0.12509000000E+03 0.  0.
         25    1    3    3    0    0  0.26445269786E+02  0.83416862316E+02 -0.36263030410E+03  0.39345389916E+03  0.12509000000E+03 0.  0.
<mgrwt>
<rscale>  2 0.45042032E+03</rscale>
<asrwt>0</asrwt>
<pdfrwt beam="1">  1       21 0.44306196E-02 0.45042032E+03</pdfrwt>
<pdfrwt beam="2">  1       21 0.24756752E+00 0.45042032E+03</pdfrwt>
<totfact> 0.19670593E+04</totfact>
</mgrwt>
</event>
<event>
 7    0  0.4709932E-002  0.4523626E+03  0.7546771E-02  0.1027020E+00
         21   -1    0    0  502  501  0.00000000000E+00  0.00000000000E+00  0.48119306375E+02  0.48119306375E+02  0.00000000000E+00 0.  1.
         21   -1    0    0  501  502 -0.00000000000E+00 -0.00000000000E+00 -0.10631485701E+04  0.10631485701E+04  0.00000000000E+00 0.  1.
      99926    2    1    2    0    0 -0.35527136788E-14 -0.71054273576E-14 -0.10150292638E+04  0.11112678765E+04  0.45236256153E+03 0.  0.
      99925    2    3    3    0    0 -0.19128534828E+02 -0.57274112619E+02 -0.41392427848E+03  0.49432303599E+03  0.26339273105E+03 0.  0.
         25    1    4    4    0    0 -0.16463170408E+02 -0.69080333952E+02 -0.23869452853E+03  0.27868569136E+03  0.12509000000E+03 0.  0.
         25    1    4    4    0    0 -0.26653644195E+01  0.11806221332E+02 -0.17522974995E+03  0.21563734463E+03  0.12509000000E+03 0.  0.
         25    1    3    3    0    0  0.19128534828E+02  0.57274112619E+02 -0.60110498529E+03  0.61694484053E+03  0.12509000000E+03 0.  0.
<mgrwt>
<rscale>  2 0.45236256E+03</rscale>
<asrwt>0</asrwt>
<pdfrwt beam="1">  1       21 0.70763685E-02 0.45236256E+03</pdfrwt>
<pdfrwt beam="2">  1       21 0.15634538E+00 0.45236256E+03</pdfrwt>
<totfact> 0.35833325E+04</totfact>
</mgrwt>
</event>
<event>
 7    0  0.4709932E-002  0.4513530E+03  0.7546771E-02  0.1027319E+00
         21   -1    0    0  502  501  0.00000000000E+00  0.00000000000E+00  0.49257179477E+02  0.49257179477E+02  0.00000000000E+00 0. -1.
         21   -1    0    0  501  502 -0.00000000000E+00 -0.00000000000E+00 -0.10339583393E+04  0.10339583393E+04  0.00000000000E+00 0. -1.
      99926    2    1    2    0    0  0.14210854715E-13  0.00000000000E+00 -0.98470115987E+03  0.10832155188E+04  0.45135295055E+03 0.  0.
      99925    2    3    3    0    0  0.70408647371E+02  0.82052085811E+02 -0.60290736000E+03  0.66715790727E+03  0.26440965580E+03 0.  0.
         25    1    3    3    0    0 -0.70408647371E+02 -0.82052085811E+02 -0.38179379987E+03  0.41605761155E+03  0.12509000000E+03 0.  0.
         25    1    4    4    0    0  0.61551889134E+02  0.54536646579E+02 -0.24725814913E+03  0.28904494683E+03  0.12509000000E+03 0.  0.
         25    1    4    4    0    0  0.88567582371E+01  0.27515439233E+02 -0.35564921087E+03  0.37811296045E+03  0.12509000000E+03 0.  0.
<mgrwt>
<rscale>  2 0.45135295E+03</rscale>
<asrwt>0</asrwt>
<pdfrwt beam="1">  1       21 0.72437030E-02 0.45135295E+03</pdfrwt>
<pdfrwt beam="2">  1       21 0.15205270E+00 0.45135295E+03</pdfrwt>
<totfact> 0.37126981E+04</totfact>
</mgrwt>
</event>
<event>
 7    0  0.4709932E-002  0.4509384E+03  0.7546771E-02  0.1027443E+00
         21   -1    0    0  502  501  0.00000000000E+00  0.00000000000E+00  0.38369760496E+03  0.38369760496E+03  0.00000000000E+00 0. -1.
         21   -1    0    0  501  502 -0.00000000000E+00 -0.00000000000E+00 -0.13249068384E+03  0.13249068384E+03  0.00000000000E+00 0. -1.
      99926    2    1    2    0    0 -0.71054273576E-14 -0.14210854715E-13  0.25120692112E+03  0.51618828879E+03  0.45093839077E+03 0.  0.
      99925    2    3    3    0    0 -0.49822155497E+02  0.94628865798E+02  0.18344437591E+03  0.33821036866E+03  0.26324426869E+03 0.  0.
         25    1    4    4    0    0 -0.52158727127E+02  0.71187738006E+02  0.72627105256E+02  0.16944152790E+03  0.12509000000E+03 0.  0.
         25    1    3    3    0    0  0.49822155497E+02 -0.94628865798E+02  0.67762545211E+02  0.17797792013E+03  0.12509000000E+03 0.  0.
         25    1    4    4    0    0  0.23365716306E+01  0.23441127792E+02  0.11081727065E+03  0.16876884077E+03  0.12509000000E+03 0.  0.
<mgrwt>
<rscale>  2 0.45093839E+03</rscale>
<asrwt>0</asrwt>
<pdfrwt beam="1">  1       21 0.56426118E-01 0.45093839E+03</pdfrwt>
<pdfrwt beam="2">  1       21 0.19483924E-01 0.45093839E+03</pdfrwt>
<totfact> 0.66257269E+04</totfact>
</mgrwt>
</event>
<event>
 7    0  0.4709932E-002  0.4555012E+03  0.7546771E-02  0.1026094E+00
         21   -1    0    0  502  501  0.00000000000E+00  0.00000000000E+00  0.37979258996E+03  0.37979258996E+03  0.00000000000E+00 0. -1.
         21   -1    0    0  501  502 -0.00000000000E+00 -0.00000000000E+00 -0.13657541984E+03  0.13657541984E+03  0.00000000000E+00 0. -1.
      99926    2    1    2    0    0  0.14210854715E-13  0.00000000000E+00  0.24321717012E+03  0.51636800980E+03  0.45550118518E+03 0.  0.
      99925    2    3    3    0    0 -0.85924997810E+02  0.40046419303E+02  0.82126325415E+02  0.29145782929E+03  0.26308955126E+03 0.  0.
         25    1    4    4    0    0 -0.62204611744E+02 -0.11805197682E+02  0.24175967975E+02  0.14227003178E+03  0.12509000000E+03 0.  0.
         25    1    4    4    0    0 -0.23720386066E+02  0.51851616985E+02  0.57950357440E+02  0.14918779751E+03  0.12509000000E+03 0.  0.
         25    1    3    3    0    0  0.85924997810E+02 -0.40046419303E+02  0.16109084471E+03  0.22491018051E+03  0.12509000000E+03 0.  0.
<mgrwt>
<rscale>  2 0.45550119E+03</rscale>
<asrwt>0</asrwt>
<pdfrwt beam="1">  1       21 0.55851851E-01 0.45550119E+03</pdfrwt>
<pdfrwt beam="2">  1       21 0.20084621E-01 0.45550119E+03</pdfrwt>
<totfact> 0.63880978E+04</totfact>
</mgrwt>
</event>
<event>
 7    0  0.4709932E-002  0.4545740E+03  0.7546771E-02  0.1026367E+00
         21   -1    0    0  502  501  0.00000000000E+00  0.00000000000E+00  0.61819309244E+03  0.61819309244E+03  0.00000000000E+00 0.  1.
         21   -1    0    0  501  502 -0.00000000000E+00 -0.00000000000E+00 -0.83565127750E+02  0.83565127750E+02  0.00000000000E+00 0.  1.
      99926    2    1    2    0    0 -0.71054273576E-14  0.00000000000E+00  0.53462796469E+03  0.70175822019E+03  0.45457401925E+03 0.  0.
      99925    2    3    3    0    0 -0.36756040620E+02 -0.10674850358E+03  0.33983159536E+03  0.44419389202E+03  0.26282399237E+03 0.  0.
         25    1    4    4    0    0  0.71829900519E+01 -0.18363857395E+02  0.15536042873E+03  0.20043252610E+03  0.12509000000E+03 0.  0.
         25    1    3    3    0    0  0.36756040620E+02  0.10674850358E+03  0.19479636933E+03  0.25756432817E+03  0.12509000000E+03 0.  0.
         25    1    4    4    0    0 -0.43939030672E+02 -0.88384646187E+02  0.18447116663E+03  0.24376136592E+03  0.12509000000E+03 0.  0.
<mgrwt>
<rscale>  2 0.45457402E+03</rscale>
<asrwt>0</asrwt>
<pdfrwt beam="1">  1       21 0.90910747E-01 0.45457402E+03</pdfrwt>
<pdfrwt beam="2">  1       21 0.12288990E-01 0.45457402E+03</pdfrwt>
<totfact> 0.52984992E+04</totfact>
</mgrwt>
</event>
<event>
 7    0  0.4709932E-002  0.4513572E+03  0.7546771E-02  0.1027318E+00
         21   -1    0    0  502  501  0.00000000000E+00  0.00000000000E+00  0.79182421600E+02  0.79182421600E+02  0.00000000000E+00 0.  1.
         21   -1    0    0  501  502 -0.00000000000E+00 -0.00000000000E+00 -0.64320872421E+03  0.64320872421E+03  0.00000000000E+00 0.  1.
      99926    2    1    2    0    0  0.00000000000E+00  0.14210854715E-13 -0.56402630261E+03  0.72239114580E+03  0.45135717288E+03 0.  0.
      99925    2    3    3    0    0  0.41244499487E+02  0.85911025904E+02 -0.26919769341E+03  0.38824562360E+03  0.26303127760E+03 0.  0.
         25    1    4    4    0    0  0.47367058546E+02  0.59052120201E+02 -0.10505685105E+03  0.18004233165E+03  0.12509000000E+03 0.  0.
         25    1    4    4    0    0 -0.61225590590E+01  0.26858905703E+02 -0.16414084236E+03  0.20820329194E+03  0.12509000000E+03 0.  0.
         25    1    3    3    0    0 -0.41244499487E+02 -0.85911025904E+02 -0.29482860920E+03  0.33414552221E+03  0.12509000000E+03 0.  0.
<mgrwt>
<rscale>  2 0.45135717E+03</rscale>
<asrwt>0</asrwt>
<pdfrwt beam="1">  1       21 0.11644473E-01 0.45135717E+03</pdfrwt>
<pdfrwt beam="2">  1       21 0.94589522E-01 0.45135717E+03</pdfrwt>
<totfact> 0.53212384E+04</totfact>
</mgrwt>
</event>
<event>
 7    0  0.4709932E-002  0.4412651E+03  0.7546771E-02  0.1030359E+00
         21   -1    0    0  502  501  0.00000000000E+00  0.00000000000E+00  0.81466624998E+03  0.81466624998E+03  0.00000000000E+00 0. -1.
         21   -1    0    0  501  502 -0.00000000000E+00 -0.00000000000E+00 -0.59752962524E+02  0.59752962524E+02  0.00000000000E+00 0. -1.
      99926    2    1    2    0    0  0.00000000000E+00  0.00000000000E+00  0.75491328746E+03  0.87441921251E+03  0.44126509903E+03 0.  0.
      99925    2    3    3    0    0 -0.37252849502E+02 -0.21483746671E+02  0.30278184304E+03  0.40333569836E+03  0.26297055906E+03 0.  0.
         25    1    4    4    0    0 -0.49207462049E+02  0.13075305583E+02  0.13590564499E+03  0.19159903543E+03  0.12509000000E+03 0.  0.
         25    1    3    3    0    0  0.37252849502E+02  0.21483746671E+02  0.45213144442E+03  0.47108351414E+03  0.12509000000E+03 0.  0.
         25    1    4    4    0    0  0.11954612547E+02 -0.34559052254E+02  0.16687619805E+03  0.21173666293E+03  0.12509000000E+03 0.  0.
<mgrwt>
<rscale>  2 0.44126510E+03</rscale>
<asrwt>0</asrwt>
<pdfrwt beam="1">  1       21 0.11980385E+00 0.44126510E+03</pdfrwt>
<pdfrwt beam="2">  1       21 0.87872008E-02 0.44126510E+03</pdfrwt>
<totfact> 0.49468570E+04</totfact>
</mgrwt>
</event>
<event>
 7    0  0.4709932E-002  0.4435012E+03  0.7546771E-02  0.1029678E+00
         21   -1    0    0  502  501  0.00000000000E+00  0.00000000000E+00  0.26704107138E+03  0.26704107138E+03  0.00000000000E+00 0. -1.
         21   -1    0    0  501  502 -0.00000000000E+00 -0.00000000000E+00 -0.18414145214E+03  0.18414145214E+03  0.00000000000E+00 0. -1.
      99926    2    1    2    0    0  0.00000000000E+00  0.33306690739E-14  0.82899619242E+02  0.45118252352E+03  0.44350120931E+03 0.  0.
      99925    2    3    3    0    0 -0.94036751190E+02 -0.15039428761E+01  0.92894193083E+02  0.29436233342E+03  0.26301079789E+03 0.  0.
         25    1    3    3    0    0  0.94036751190E+02  0.15039428761E+01 -0.99945738410E+01  0.15682019011E+03  0.12509000000E+03 0.  0.
         25    1    4    4    0    0 -0.51940852524E+02 -0.33650967273E+02  0.71613307710E+02  0.15686367872E+03  0.12509000000E+03 0.  0.
         25    1    4    4    0    0 -0.42095898666E+02  0.32147024397E+02  0.21280885372E+02  0.13749865470E+03  0.12509000000E+03 0.  0.
<mgrwt>
<rscale>  2 0.44350121E+03</rscale>
<asrwt>0</asrwt>
<pdfrwt beam="1">  1       21 0.39270746E-01 0.44350121E+03</pdfrwt>
<pdfrwt beam="2">  1       21 0.27079625E-01 0.44350121E+03</pdfrwt>
<totfact> 0.75517721E+04</totfact>
</mgrwt>
</event>
<event>
 7    0  0.4709932E-002  0.4532244E+03  0.7546771E-02  0.1026765E+00
         21   -1    0    0  502  501  0.00000000000E+00  0.00000000000E+00  0.82367837293E+03  0.82367837293E+03  0.00000000000E+00 0.  1.
         21   -1    0    0  501  502 -0.00000000000E+00 -0.00000000000E+00 -0.62346046777E+02  0.62346046777E+02  0.00000000000E+00 0.  1.
      99926    2    1    2    0    0  0.00000000000E+00  0.00000000000E+00  0.76133232615E+03  0.88602441971E+03  0.45322440520E+03 0.  0.
      99925    2    3    3    0    0  0.14849476484E+02 -0.10914756676E+03  0.48670959238E+03  0.56477863797E+03  0.26449004576E+03 0.  0.
         25    1    4    4    0    0  0.81843568272E+01 -0.55777732164E+02  0.32874459731E+03  0.35622837823E+03  0.12509000000E+03 0.  0.
         25    1    3    3    0    0 -0.14849476484E+02  0.10914756676E+03  0.27462273377E+03  0.32124578174E+03  0.12509000000E+03 0.  0.
         25    1    4    4    0    0  0.66651196573E+01 -0.53369834599E+02  0.15796499508E+03  0.20855025974E+03  0.12509000000E+03 0.  0.
<mgrwt>
<rscale>  2 0.45322441E+03</rscale>
<asrwt>0</asrwt>
<pdfrwt beam="1">  1       21 0.12112917E+00 0.45322441E+03</pdfrwt>
<pdfrwt beam="2">  1       21 0.91685368E-02 0.45322441E+03</pdfrwt>
<totfact> 0.44458448E+04</totfact>
</mgrwt>
</event>
<event>
 7    0  0.4709932E-002  0.4562662E+03  0.7546771E-02  0.1025870E+00
         21   -1    0    0  502  501  0.00000000000E+00  0.00000000000E+00  0.60806393277E+03  0.60806393277E+03  0.00000000000E+00 0.  1.
         21   -1    0    0  501  502 -0.00000000000E+00 -0.00000000000E+00 -0.85590857955E+02  0.85590857955E+02  0.00000000000E+00 0.  1.
      99926    2    1    2    0    0  0.00000000000E+00  0.71054273576E-14  0.52247307481E+03  0.69365479072E+03  0.45626621044E+03 0.  0.
      99925    2    3    3    0    0  0.66365719149E+02  0.48186480563E+02  0.20714010210E+03  0.34464370585E+03  0.26295611135E+03 0.  0.
         25    1    3    3    0    0 -0.66365719149E+02 -0.48186480563E+02  0.31533297271E+03  0.34901108488E+03  0.12509000000E+03 0.  0.
         25    1    4    4    0    0 -0.68786325067E+01  0.15386540209E+02  0.83758048090E+02  0.15148260601E+03  0.12509000000E+03 0.  0.
         25    1    4    4    0    0  0.73244351656E+02  0.32799940354E+02  0.12338205401E+03  0.19316109983E+03  0.12509000000E+03 0.  0.
<mgrwt>
<rscale>  2 0.45626621E+03</rscale>
<asrwt>0</asrwt>
<pdfrwt beam="1">  1       21 0.89421164E-01 0.45626621E+03</pdfrwt>
<pdfrwt beam="2">  1       21 0.12586891E-01 0.45626621E+03</pdfrwt>
<totfact> 0.52721442E+04</totfact>
</mgrwt>
</event>
<event>
 7    0  0.4709932E-002  0.4532265E+03  0.7546771E-02  0.1026764E+00
         21   -1    0    0  502  501  0.00000000000E+00  0.00000000000E+00  0.60577023436E+02  0.60577023436E+02  0.00000000000E+00 0.  1.
         21   -1    0    0  501  502 -0.00000000000E+00 -0.00000000000E+00 -0.84774005084E+03  0.84774005084E+03  0.00000000000E+00 0.  1.
      99926    2    1    2    0    0  0.00000000000E+00  0.00000000000E+00 -0.78716302740E+03  0.90831707427E+03  0.45322651700E+03 0.  0.
      99925    2    3    3    0    0  0.34991553817E+02 -0.68616510546E+02 -0.65771841680E+03  0.71252113542E+03  0.26298330415E+03 0.  0.
         25    1    3    3    0    0 -0.34991553817E+02  0.68616510546E+02 -0.12944461060E+03  0.19579593885E+03  0.12509000000E+03 0.  0.
         25    1    4    4    0    0  0.35434900989E+02 -0.42700551154E+02 -0.24675403888E+03  0.28215958796E+03  0.12509000000E+03 0.  0.
         25    1    4    4    0    0 -0.44334717199E+00 -0.25915959392E+02 -0.41096437792E+03  0.43036154746E+03  0.12509000000E+03 0.  0.
<mgrwt>
<rscale>  2 0.45322652E+03</rscale>
<asrwt>0</asrwt>
<pdfrwt beam="1">  1       21 0.89083865E-02 0.45322652E+03</pdfrwt>
<pdfrwt beam="2">  1       21 0.12466765E+00 0.45322652E+03</pdfrwt>
<totfact> 0.43476566E+04</totfact>
</mgrwt>
</event>
<event>
 7    0  0.4709932E-002  0.4586337E+03  0.7546771E-02  0.1025178E+00
         21   -1    0    0  502  501  0.00000000000E+00  0.00000000000E+00  0.15775272245E+03  0.15775272245E+03  0.00000000000E+00 0. -1.
         21   -1    0    0  501  502 -0.00000000000E+00 -0.00000000000E+00 -0.33334581773E+03  0.33334581773E+03  0.00000000000E+00 0. -1.
      99926    2    1    2    0    0  0.00000000000E+00  0.00000000000E+00 -0.17559309528E+03  0.49109854017E+03  0.45863366759E+03 0.  0.
      99925    2    3    3    0    0 -0.25617685141E+02  0.98374621889E+02 -0.17126468369E+03  0.32985315180E+03  0.26294044545E+03 0.  0.
         25    1    4    4    0    0 -0.52257856166E+02  0.40197949209E+02 -0.86232667243E+02  0.16562107249E+03  0.12509000000E+03 0.  0.
         25    1    4    4    0    0  0.26640171025E+02  0.58176672680E+02 -0.85032016442E+02  0.16423207932E+03  0.12509000000E+03 0.  0.
         25    1    3    3    0    0  0.25617685141E+02 -0.98374621889E+02 -0.43284115924E+01  0.16124538837E+03  0.12509000000E+03 0.  0.
<mgrwt>
<rscale>  2 0.45863367E+03</rscale>
<asrwt>0</asrwt>
<pdfrwt beam="1">  1       21 0.23198930E-01 0.45863367E+03</pdfrwt>
<pdfrwt beam="2">  1       21 0.49021443E-01 0.45863367E+03</pdfrwt>
<totfact> 0.64033486E+04</totfact>
</mgrwt>
</event>
<event>
 7    0  0.4709932E-002  0.4559354E+03  0.7546771E-02  0.1025967E+00
         21   -1    0    0  502  501  0.00000000000E+00  0.00000000000E+00  0.97612214772E+02  0.97612214772E+02  0.00000000000E+00 0. -1.
         21   -1    0    0  501  502 -0.00000000000E+00 -0.00000000000E+00 -0.53240547722E+03  0.53240547722E+03  0.00000000000E+00 0. -1.
      99926    2    1    2    0    0  0.00000000000E+00  0.00000000000E+00 -0.43479326244E+03  0.63001769199E+03  0.45593542432E+03 0.  0.
      99925    2    3    3    0    0 -0.29490746790E+02 -0.95410672251E+02 -0.19792039741E+03  0.34413456409E+03  0.26321704726E+03 0.  0.
         25    1    3    3    0    0  0.29490746790E+02  0.95410672251E+02 -0.23687286504E+03  0.28588312790E+03  0.12509000000E+03 0.  0.
         25    1    4    4    0    0 -0.44394142731E+02 -0.19403285693E+02 -0.10166385116E+03  0.16831629195E+03  0.12509000000E+03 0.  0.
         25    1    4    4    0    0  0.14903395941E+02 -0.76007386558E+02 -0.96256546250E+02  0.17581827214E+03  0.12509000000E+03 0.  0.
<mgrwt>
<rscale>  2 0.45593542E+03</rscale>
<asrwt>0</asrwt>
<pdfrwt beam="1">  1       21 0.14354738E-01 0.45593542E+03</pdfrwt>
<pdfrwt beam="2">  1       21 0.78294922E-01 0.45593542E+03</pdfrwt>
<totfact> 0.56449617E+04</totfact>
</mgrwt>
</event>
<event>
 7    0  0.4709932E-002  0.4583008E+03  0.7546771E-02  0.1025275E+00
         21   -1    0    0  502  501  0.00000000000E+00  0.00000000000E+00  0.42745811374E+02  0.42745811374E+02  0.00000000000E+00 0. -1.
         21   -1    0    0  501  502 -0.00000000000E+00 -0.00000000000E+00 -0.12284221458E+04  0.12284221458E+04  0.00000000000E+00 0. -1.
      99926    2    1    2    0    0  0.00000000000E+00 -0.71054273576E-14 -0.11856763344E+04  0.12711679572E+04  0.45830078041E+03 0.  0.
      99925    2    3    3    0    0 -0.11065521438E+03 -0.25430999294E+02 -0.81234365695E+03  0.86139227662E+03  0.26306486852E+03 0.  0.
         25    1    4    4    0    0 -0.77554442858E+02 -0.36526708426E+02 -0.35657995774E+03  0.38748634349E+03  0.12509000000E+03 0.  0.
         25    1    4    4    0    0 -0.33100771526E+02  0.11095709132E+02 -0.45576369921E+03  0.47390593313E+03  0.12509000000E+03 0.  0.
         25    1    3    3    0    0  0.11065521438E+03  0.25430999294E+02 -0.37333267747E+03  0.40977568054E+03  0.12509000000E+03 0.  0.
<mgrwt>
<rscale>  2 0.45830078E+03</rscale>
<asrwt>0</asrwt>
<pdfrwt beam="1">  1       21 0.62861496E-02 0.45830078E+03</pdfrwt>
<pdfrwt beam="2">  1       21 0.18065029E+00 0.45830078E+03</pdfrwt>
<totfact> 0.29206154E+04</totfact>
</mgrwt>
</event>
<event>
 7    0  0.4709932E-002  0.4526915E+03  0.7546771E-02  0.1026922E+00
         21   -1    0    0  502  501  0.00000000000E+00  0.00000000000E+00  0.91852546479E+02  0.91852546479E+02  0.00000000000E+00 0. -1.
         21   -1    0    0  501  502 -0.00000000000E+00 -0.00000000000E+00 -0.55776797898E+03  0.55776797898E+03  0.00000000000E+00 0. -1.
      99926    2    1    2    0    0  0.00000000000E+00 -0.71054273576E-14 -0.46591543250E+03  0.64962052546E+03  0.45269154714E+03 0.  0.
      99925    2    3    3    0    0  0.68461067472E+02 -0.39248659666E+02 -0.40589636937E+03  0.49000482734E+03  0.26291727427E+03 0.  0.
         25    1    4    4    0    0  0.75140313752E+02 -0.13061075417E+02 -0.21974309195E+03  0.26410451151E+03  0.12509000000E+03 0.  0.
         25    1    4    4    0    0 -0.66792462803E+01 -0.26187584249E+02 -0.18615327742E+03  0.22590031583E+03  0.12509000000E+03 0.  0.
         25    1    3    3    0    0 -0.68461067472E+02  0.39248659666E+02 -0.60019063134E+02  0.15961569811E+03  0.12509000000E+03 0.  0.
<mgrwt>
<rscale>  2 0.45269155E+03</rscale>
<asrwt>0</asrwt>
<pdfrwt beam="1">  1       21 0.13507728E-01 0.45269155E+03</pdfrwt>
<pdfrwt beam="2">  1       21 0.82024699E-01 0.45269155E+03</pdfrwt>
<totfact> 0.56749798E+04</totfact>
</mgrwt>
</event>
<event>
 7    0  0.4709932E-002  0.4579922E+03  0.7546771E-02  0.1025365E+00
         21   -1    0    0  502  501  0.00000000000E+00  0.00000000000E+00  0.88876446711E+03  0.88876446711E+03  0.00000000000E+00 0. -1.
         21   -1    0    0  501  502 -0.00000000000E+00 -0.00000000000E+00 -0.59002366436E+02  0.59002366436E+02  0.00000000000E+00 0. -1.
      99926    2    1    2    0    0  0.17763568394E-14  0.35527136788E-14  0.82976210067E+03  0.94776683354E+03  0.45799216921E+03 0.  0.
      99925    2    3    3    0    0  0.15095648578E+02 -0.21262821588E+02  0.75432610226E+03  0.79938191469E+03  0.26329373480E+03 0.  0.
         25    1    4    4    0    0  0.29883915273E+02  0.11552090894E+02  0.45522844069E+03  0.47318806040E+03  0.12509000000E+03 0.  0.
         25    1    4    4    0    0 -0.14788266695E+02 -0.32814912483E+02  0.29909766158E+03  0.32619385429E+03  0.12509000000E+03 0.  0.
         25    1    3    3    0    0 -0.15095648578E+02  0.21262821588E+02  0.75435998405E+02  0.14838491885E+03  0.12509000000E+03 0.  0.
<mgrwt>
<rscale>  2 0.45799217E+03</rscale>
<asrwt>0</asrwt>
<pdfrwt beam="1">  1       21 0.13070065E+00 0.45799217E+03</pdfrwt>
<pdfrwt beam="2">  1       21 0.86768191E-02 0.45799217E+03</pdfrwt>
<totfact> 0.40280553E+04</totfact>
</mgrwt>
</event>
<event>
 7    0  0.4709932E-002  0.4574624E+03  0.7546771E-02  0.1025520E+00
         21   -1    0    0  502  501  0.00000000000E+00  0.00000000000E+00  0.52476806144E+02  0.52476806144E+02  0.00000000000E+00 0.  1.
         21   -1    0    0  501  502 -0.00000000000E+00 -0.00000000000E+00 -0.99697316289E+03  0.99697316289E+03  0.00000000000E+00 0.  1.
      99926    2    1    2    0    0  0.35527136788E-14  0.00000000000E+00 -0.94449635674E+03  0.10494499690E+04  0.45746242425E+03 0.  0.
      99925    2    3    3    0    0 -0.16546337464E+02 -0.11078903891E+03 -0.52263185301E+03  0.59539583125E+03  0.26230545107E+03 0.  0.
         25    1    4    4    0    0 -0.26188094531E+02 -0.88471374446E+02 -0.24876336678E+03  0.29333210043E+03  0.12509000000E+03 0.  0.
         25    1    4    4    0    0  0.96417570666E+01 -0.22317664464E+02 -0.27386848623E+03  0.30206373082E+03  0.12509000000E+03 0.  0.
         25    1    3    3    0    0  0.16546337464E+02  0.11078903891E+03 -0.42186450373E+03  0.45405413778E+03  0.12509000000E+03 0.  0.
<mgrwt>
<rscale>  2 0.45746242E+03</rscale>
<asrwt>0</asrwt>
<pdfrwt beam="1">  1       21 0.77171782E-02 0.45746242E+03</pdfrwt>
<pdfrwt beam="2">  1       21 0.14661368E+00 0.45746242E+03</pdfrwt>
<totfact> 0.36589258E+04</totfact>
</mgrwt>
</event>
<event>
 7    0  0.4709932E-002  0.4523873E+03  0.7546771E-02  0.1027013E+00
         21   -1    0    0  502  501  0.00000000000E+00  0.00000000000E+00  0.36366647113E+03  0.36366647113E+03  0.00000000000E+00 0. -1.
         21   -1    0    0  501  502 -0.00000000000E+00 -0.00000000000E+00 -0.14068817508E+03  0.14068817508E+03  0.00000000000E+00 0. -1.
      99926    2    1    2    0    0 -0.14210854715E-13  0.00000000000E+00  0.22297829605E+03  0.50435464621E+03  0.45238732149E+03 0.  0.
      99925    2    3    3    0    0 -0.93887836733E+02 -0.57796889964E+02  0.13031528663E+03  0.31359472434E+03  0.26306685620E+03 0.  0.
         25    1    4    4    0    0 -0.81181838039E+02 -0.32339197885E+02  0.43411918208E+02  0.15864557129E+03  0.12509000000E+03 0.  0.
         25    1    3    3    0    0  0.93887836733E+02  0.57796889964E+02  0.92663009421E+02  0.19075992187E+03  0.12509000000E+03 0.  0.
         25    1    4    4    0    0 -0.12705998694E+02 -0.25457692078E+02  0.86903368421E+02  0.15494915305E+03  0.12509000000E+03 0.  0.
<mgrwt>
<rscale>  2 0.45238732E+03</rscale>
<asrwt>0</asrwt>
<pdfrwt beam="1">  1       21 0.53480363E-01 0.45238732E+03</pdfrwt>
<pdfrwt beam="2">  1       21 0.20689438E-01 0.45238732E+03</pdfrwt>
<totfact> 0.66330681E+04</totfact>
</mgrwt>
</event>
<event>
 7    0  0.4709932E-002  0.4677906E+03  0.7546771E-02  0.1022546E+00
         21   -1    0    0  502  501  0.00000000000E+00  0.00000000000E+00  0.83721600452E+03  0.83721600452E+03  0.00000000000E+00 0.  1.
         21   -1    0    0  501  502 -0.00000000000E+00 -0.00000000000E+00 -0.65343959672E+02  0.65343959672E+02  0.00000000000E+00 0.  1.
      99926    2    1    2    0    0  0.14210854715E-13  0.00000000000E+00  0.77187204485E+03  0.90255996419E+03  0.46779058920E+03 0.  0.
      99925    2    3    3    0    0  0.65097581741E+02 -0.21392064471E+02  0.27908201135E+03  0.38954452506E+03  0.26298831224E+03 0.  0.
         25    1    4    4    0    0  0.72722937875E+02 -0.36660800404E+00  0.14916391236E+03  0.20781275453E+03  0.12509000000E+03 0.  0.
         25    1    4    4    0    0 -0.76253561345E+01 -0.21025456467E+02  0.12991809899E+03  0.18173177053E+03  0.12509000000E+03 0.  0.
         25    1    3    3    0    0 -0.65097581741E+02  0.21392064471E+02  0.49279003350E+03  0.51301543913E+03  0.12509000000E+03 0.  0.
<mgrwt>
<rscale>  2 0.46779059E+03</rscale>
<asrwt>0</asrwt>
<pdfrwt beam="1">  1       21 0.12311999E+00 0.46779059E+03</pdfrwt>
<pdfrwt beam="2">  1       21 0.96094063E-02 0.46779059E+03</pdfrwt>
<totfact> 0.39062045E+04</totfact>
</mgrwt>
</event>
<event>
 7    0  0.4709932E-002  0.4518289E+03  0.7546771E-02  0.1027178E+00
         21   -1    0    0  502  501  0.00000000000E+00  0.00000000000E+00  0.57191039708E+03  0.57191039708E+03  0.00000000000E+00 0. -1.
         21   -1    0    0  501  502 -0.00000000000E+00 -0.00000000000E+00 -0.89240098075E+02  0.89240098075E+02  0.00000000000E+00 0. -1.
      99926    2    1    2    0    0  0.00000000000E+00  0.14210854715E-13  0.48267029900E+03  0.66115049515E+03  0.45182890534E+03 0.  0.
      99925    2    3    3    0    0  0.61750683615E+02 -0.89374442016E+02  0.33346453507E+03  0.43819129282E+03  0.26270149437E+03 0.  0.
         25    1    3    3    0    0 -0.61750683615E+02  0.89374442016E+02  0.14920576393E+03  0.22295920233E+03  0.12509000000E+03 0.  0.
         25    1    4    4    0    0  0.31399767437E+02 -0.19955860464E+02  0.20774763544E+03  0.24533807266E+03  0.12509000000E+03 0.  0.
         25    1    4    4    0    0  0.30350916178E+02 -0.69418581552E+02  0.12571689963E+03  0.19285322017E+03  0.12509000000E+03 0.  0.
<mgrwt>
<rscale>  2 0.45182891E+03</rscale>
<asrwt>0</asrwt>
<pdfrwt beam="1">  1       21 0.84104468E-01 0.45182891E+03</pdfrwt>
<pdfrwt beam="2">  1       21 0.13123544E-01 0.45182891E+03</pdfrwt>
<totfact> 0.56461681E+04</totfact>
</mgrwt>
</event>
<event>
 7    0  0.4709932E-002  0.4181768E+03  0.7546771E-02  0.1037661E+00
         21   -1    0    0  502  501  0.00000000000E+00  0.00000000000E+00  0.21625183955E+03  0.21625183955E+03  0.00000000000E+00 0.  1.
         21   -1    0    0  501  502 -0.00000000000E+00 -0.00000000000E+00 -0.20216229140E+03  0.20216229140E+03  0.00000000000E+00 0.  1.
      99926    2    1    2    0    0 -0.71054273576E-14 -0.35527136788E-14  0.14089548143E+02  0.41841413095E+03  0.41817684012E+03 0.  0.
      99925    2    3    3    0    0  0.40871376854E+02 -0.18979971558E+02  0.67354580454E+02  0.27518221924E+03  0.26297890697E+03 0.  0.
         25    1    4    4    0    0  0.49012592549E+02  0.16006982748E+02  0.48231052621E+02  0.14363913207E+03  0.12509000000E+03 0.  0.
         25    1    4    4    0    0 -0.81412156948E+01 -0.34986954306E+02  0.19123527833E+02  0.13154308717E+03  0.12509000000E+03 0.  0.
         25    1    3    3    0    0 -0.40871376854E+02  0.18979971558E+02 -0.53265032311E+02  0.14323191171E+03  0.12509000000E+03 0.  0.
<mgrwt>
<rscale>  2 0.41817684E+03</rscale>
<asrwt>0</asrwt>
<pdfrwt beam="1">  1       21 0.31801741E-01 0.41817684E+03</pdfrwt>
<pdfrwt beam="2">  1       21 0.29729749E-01 0.41817684E+03</pdfrwt>
<totfact> 0.96770820E+04</totfact>
</mgrwt>
</event>
<event>
 7    0  0.4709932E-002  0.4580095E+03  0.7546771E-02  0.1025360E+00
         21   -1    0    0  502  501  0.00000000000E+00  0.00000000000E+00  0.89021125557E+02  0.89021125557E+02  0.00000000000E+00 0.  1.
         21   -1    0    0  501  502 -0.00000000000E+00 -0.00000000000E+00 -0.58910922914E+03  0.58910922914E+03  0.00000000000E+00 0.  1.
      99926    2    1    2    0    0 -0.14210854715E-13  0.71054273576E-14 -0.50008810359E+03  0.67813035470E+03  0.45800946127E+03 0.  0.
      99925    2    3    3    0    0 -0.10641952517E+03  0.44906911001E+02 -0.32941675766E+03  0.43705368139E+03  0.26298055860E+03 0.  0.
         25    1    4    4    0    0 -0.85671203341E+02  0.39321184265E+02 -0.21619015185E+03  0.26696704004E+03  0.12509000000E+03 0.  0.
         25    1    3    3    0    0  0.10641952517E+03 -0.44906911001E+02 -0.17067134592E+03  0.24107667330E+03  0.12509000000E+03 0.  0.
         25    1    4    4    0    0 -0.20748321825E+02  0.55857267356E+01 -0.11322660582E+03  0.17008664135E+03  0.12509000000E+03 0.  0.
<mgrwt>
<rscale>  2 0.45800946E+03</rscale>
<asrwt>0</asrwt>
<pdfrwt beam="1">  1       21 0.13091342E-01 0.45800946E+03</pdfrwt>
<pdfrwt beam="2">  1       21 0.86633710E-01 0.45800946E+03</pdfrwt>
<totfact> 0.52842620E+04</totfact>
</mgrwt>
</event>
<event>
 7    0  0.4709932E-002  0.4601596E+03  0.7546771E-02  0.1024735E+00
         21   -1    0    0  502  501  0.00000000000E+00  0.00000000000E+00  0.21900657345E+03  0.21900657345E+03  0.00000000000E+00 0.  1.
         21   -1    0    0  501  502 -0.00000000000E+00 -0.00000000000E+00 -0.24171288801E+03  0.24171288801E+03  0.00000000000E+00 0.  1.
      99926    2    1    2    0    0  0.00000000000E+00  0.00000000000E+00 -0.22706314556E+02  0.46071946147E+03  0.46015958694E+03 0.  0.
      99925    2    3    3    0    0 -0.23430747639E+02  0.34166146579E+02 -0.12484743787E+03  0.29399620970E+03  0.26292691583E+03 0.  0.
         25    1    4    4    0    0  0.14952341729E+02 -0.10686545718E+02 -0.44515368295E+02  0.13404066882E+03  0.12509000000E+03 0.  0.
         25    1    3    3    0    0  0.23430747639E+02 -0.34166146579E+02  0.10214112332E+03  0.16672325177E+03  0.12509000000E+03 0.  0.
         25    1    4    4    0    0 -0.38383089368E+02  0.44852692297E+02 -0.80332069579E+02  0.15995554088E+03  0.12509000000E+03 0.  0.
<mgrwt>
<rscale>  2 0.46015959E+03</rscale>
<asrwt>0</asrwt>
<pdfrwt beam="1">  1       21 0.32206849E-01 0.46015959E+03</pdfrwt>
<pdfrwt beam="2">  1       21 0.35546013E-01 0.46015959E+03</pdfrwt>
<totfact> 0.65394926E+04</totfact>
</mgrwt>
</event>
<event>
 7    0  0.4709932E-002  0.4502170E+03  0.7546771E-02  0.1027657E+00
         21   -1    0    0  502  501  0.00000000000E+00  0.00000000000E+00  0.76130621136E+02  0.76130621136E+02  0.00000000000E+00 0. -1.
         21   -1    0    0  501  502 -0.00000000000E+00 -0.00000000000E+00 -0.66561695533E+03  0.66561695533E+03  0.00000000000E+00 0. -1.
      99926    2    1    2    0    0  0.00000000000E+00  0.00000000000E+00 -0.58948633420E+03  0.74174757647E+03  0.45021697990E+03 0.  0.
      99925    2    3    3    0    0  0.89672792936E+02  0.33854967404E+02 -0.28636132659E+03  0.40010500455E+03  0.26247635453E+03 0.  0.
         25    1    3    3    0    0 -0.89672792936E+02 -0.33854967404E+02 -0.30312500761E+03  0.34164257192E+03  0.12509000000E+03 0.  0.
         25    1    4    4    0    0  0.42426536892E+02  0.50059489740E+02 -0.17796753780E+03  0.22721337143E+03  0.12509000000E+03 0.  0.
         25    1    4    4    0    0  0.47246256044E+02 -0.16204522336E+02 -0.10839378879E+03  0.17289163312E+03  0.12509000000E+03 0.  0.
<mgrwt>
<rscale>  2 0.45021698E+03</rscale>
<asrwt>0</asrwt>
<pdfrwt beam="1">  1       21 0.11195679E-01 0.45021698E+03</pdfrwt>
<pdfrwt beam="2">  1       21 0.97884853E-01 0.45021698E+03</pdfrwt>
<totfact> 0.52645974E+04</totfact>
</mgrwt>
</event>
<event>
 7    0  0.4709932E-002  0.4553340E+03  0.7546771E-02  0.1026143E+00
         21   -1    0    0  502  501  0.00000000000E+00  0.00000000000E+00  0.72097731498E+02  0.72097731498E+02  0.00000000000E+00 0. -1.
         21   -1    0    0  501  502 -0.00000000000E+00 -0.00000000000E+00 -0.71891685232E+03  0.71891685232E+03  0.00000000000E+00 0. -1.
      99926    2    1    2    0    0  0.00000000000E+00 -0.14210854715E-13 -0.64681912083E+03  0.79101458382E+03  0.45533404963E+03 0.  0.
      99925    2    3    3    0    0  0.16245693148E+02  0.10993817512E+03 -0.44631281977E+03  0.52986211924E+03  0.26307490838E+03 0.  0.
         25    1    4    4    0    0 -0.64849682366E+01  0.87414228281E+02 -0.19888781389E+03  0.25077314994E+03  0.12509000000E+03 0.  0.
         25    1    4    4    0    0  0.22730661385E+02  0.22523946837E+02 -0.24742500588E+03  0.27908896930E+03  0.12509000000E+03 0.  0.
         25    1    3    3    0    0 -0.16245693148E+02 -0.10993817512E+03 -0.20050630106E+03  0.26115246458E+03  0.12509000000E+03 0.  0.
<mgrwt>
<rscale>  2 0.45533405E+03</rscale>
<asrwt>0</asrwt>
<pdfrwt beam="1">  1       21 0.10602607E-01 0.45533405E+03</pdfrwt>
<pdfrwt beam="2">  1       21 0.10572307E+00 0.45533405E+03</pdfrwt>
<totfact> 0.48076342E+04</totfact>
</mgrwt>
</event>
<event>
 7    0  0.4709932E-002  0.4594064E+03  0.7546771E-02  0.1024954E+00
         21   -1    0    0  502  501  0.00000000000E+00  0.00000000000E+00  0.40288378823E+03  0.40288378823E+03  0.00000000000E+00 0.  1.
         21   -1    0    0  501  502 -0.00000000000E+00 -0.00000000000E+00 -0.13096469027E+03  0.13096469027E+03  0.00000000000E+00 0.  1.
      99926    2    1    2    0    0  0.00000000000E+00  0.00000000000E+00  0.27191909797E+03  0.53384847850E+03  0.45940635842E+03 0.  0.
      99925    2    3    3    0    0 -0.11480005567E+03 -0.10055330406E+02  0.19507156612E+03  0.34721189661E+03  0.26310268487E+03 0.  0.
         25    1    3    3    0    0  0.11480005567E+03  0.10055330406E+02  0.76847531844E+02  0.18663658189E+03  0.12509000000E+03 0.  0.
         25    1    4    4    0    0 -0.68101101186E+02  0.16624803747E+02  0.13978511496E+03  0.20025366550E+03  0.12509000000E+03 0.  0.
         25    1    4    4    0    0 -0.46698954481E+02 -0.26680134153E+02  0.55286451166E+02  0.14695823111E+03  0.12509000000E+03 0.  0.
<mgrwt>
<rscale>  2 0.45940636E+03</rscale>
<asrwt>0</asrwt>
<pdfrwt beam="1">  1       21 0.59247616E-01 0.45940636E+03</pdfrwt>
<pdfrwt beam="2">  1       21 0.19259513E-01 0.45940636E+03</pdfrwt>
<totfact> 0.60795636E+04</totfact>
</mgrwt>
</event>
<event>
 7    0  0.4709932E-002  0.4532376E+03  0.7546771E-02  0.1026761E+00
         21   -1    0    0  502  501  0.00000000000E+00  0.00000000000E+00  0.31022756832E+03  0.31022756832E+03  0.00000000000E+00 0. -1.
         21   -1    0    0  501  502 -0.00000000000E+00 -0.00000000000E+00 -0.16554328359E+03  0.16554328359E+03  0.00000000000E+00 0. -1.
      99926    2    1    2    0    0  0.00000000000E+00  0.00000000000E+00  0.14468428473E+03  0.47577085191E+03  0.45323764327E+03 0.  0.
      99925    2    3    3    0    0  0.53727819850E+02  0.95646713628E+02  0.70204528212E+02  0.29348065830E+03  0.26299667025E+03 0.  0.
         25    1    4    4    0    0  0.53408152083E+02  0.36400511029E+02  0.64712977379E+02  0.15496033510E+03  0.12509000000E+03 0.  0.
         25    1    4    4    0    0  0.31966776721E+00  0.59246202599E+02  0.54915508325E+01  0.13852032320E+03  0.12509000000E+03 0.  0.
         25    1    3    3    0    0 -0.53727819850E+02 -0.95646713628E+02  0.74479756516E+02  0.18229019360E+03  0.12509000000E+03 0.  0.
<mgrwt>
<rscale>  2 0.45323764E+03</rscale>
<asrwt>0</asrwt>
<pdfrwt beam="1">  1       21 0.45621701E-01 0.45323764E+03</pdfrwt>
<pdfrwt beam="2">  1       21 0.24344601E-01 0.45323764E+03</pdfrwt>
<totfact> 0.67954775E+04</totfact>
</mgrwt>
</event>
<event>
 7    0  0.4709932E-002  0.4495397E+03  0.7546771E-02  0.1027859E+00
         21   -1    0    0  502  501  0.00000000000E+00  0.00000000000E+00  0.15718382165E+04  0.15718382165E+04  0.00000000000E+00 0.  1.
         21   -1    0    0  501  502 -0.00000000000E+00 -0.00000000000E+00 -0.32141662969E+02  0.32141662969E+02  0.00000000000E+00 0.  1.
      99926    2    1    2    0    0  0.00000000000E+00  0.00000000000E+00  0.15396965535E+04  0.16039798794E+04  0.44953973882E+03 0.  0.
      99925    2    3    3    0    0 -0.87769944478E+02  0.45861399890E+02  0.11277907180E+04  0.11622551274E+04  0.26290349253E+03 0.  0.
         25    1    3    3    0    0  0.87769944478E+02 -0.45861399890E+02  0.41190583551E+03  0.44172475206E+03  0.12509000000E+03 0.  0.
         25    1    4    4    0    0 -0.69961115934E+02  0.23144429980E+02  0.72880129347E+03  0.74312115826E+03  0.12509000000E+03 0.  0.
         25    1    4    4    0    0 -0.17808828544E+02  0.22716969909E+02  0.39898942450E+03  0.41913396911E+03  0.12509000000E+03 0.  0.
<mgrwt>
<rscale>  2 0.44953974E+03</rscale>
<asrwt>0</asrwt>
<pdfrwt beam="1">  1       21 0.23115263E+00 0.44953974E+03</pdfrwt>
<pdfrwt beam="2">  1       21 0.47267162E-02 0.44953974E+03</pdfrwt>
<totfact> 0.22269342E+04</totfact>
</mgrwt>
</event>
<event>
 7    0  0.4709932E-002  0.4363505E+03  0.7546771E-02  0.1031872E+00
         21   -1    0    0  502  501  0.00000000000E+00  0.00000000000E+00  0.12180239470E+03  0.12180239470E+03  0.00000000000E+00 0.  1.
         21   -1    0    0  501  502 -0.00000000000E+00 -0.00000000000E+00 -0.39080047279E+03  0.39080047279E+03  0.00000000000E+00 0.  1.
      99926    2    1    2    0    0  0.00000000000E+00  0.00000000000E+00 -0.26899807809E+03  0.51260286749E+03  0.43635047123E+03 0.  0.
      99925    2    3    3    0    0  0.56500444557E+02 -0.43381949264E+02 -0.10088194595E+03  0.29127768649E+03  0.26380149710E+03 0.  0.
         25    1    3    3    0    0 -0.56500444557E+02  0.43381949264E+02 -0.16811613215E+03  0.22132518100E+03  0.12509000000E+03 0.  0.
         25    1    4    4    0    0  0.26753931689E+02 -0.34126752250E+02 -0.93643796345E+02  0.16216373446E+03  0.12509000000E+03 0.  0.
         25    1    4    4    0    0  0.29746512868E+02 -0.92551970134E+01 -0.72381496020E+01  0.12911395203E+03  0.12509000000E+03 0.  0.
<mgrwt>
<rscale>  2 0.43635047E+03</rscale>
<asrwt>0</asrwt>
<pdfrwt beam="1">  1       21 0.17912116E-01 0.43635047E+03</pdfrwt>
<pdfrwt beam="2">  1       21 0.57470659E-01 0.43635047E+03</pdfrwt>
<totfact> 0.74866997E+04</totfact>
</mgrwt>
</event>
<event>
 7    0  0.4709932E-002  0.4548009E+03  0.7546771E-02  0.1026300E+00
         21   -1    0    0  502  501  0.00000000000E+00  0.00000000000E+00  0.14489747597E+03  0.14489747597E+03  0.00000000000E+00 0.  1.
         21   -1    0    0  501  502 -0.00000000000E+00 -0.00000000000E+00 -0.35687969211E+03  0.35687969211E+03  0.00000000000E+00 0.  1.
      99926    2    1    2    0    0  0.00000000000E+00  0.00000000000E+00 -0.21198221614E+03  0.50177716809E+03  0.45480090859E+03 0.  0.
      99925    2    3    3    0    0  0.85372903194E+01  0.56196556579E+02 -0.24113290957E+03  0.36132002400E+03  0.26301357639E+03 0.  0.
         25    1    3    3    0    0 -0.85372903194E+01 -0.56196556579E+02  0.29150693430E+02  0.14045714409E+03  0.12509000000E+03 0.  0.
         25    1    4    4    0    0  0.39488452475E+01  0.45847552114E+02 -0.17312514180E+03  0.21848893390E+03  0.12509000000E+03 0.  0.
         25    1    4    4    0    0  0.45884450719E+01  0.10349004465E+02 -0.68007767773E+02  0.14283109010E+03  0.12509000000E+03 0.  0.
<mgrwt>
<rscale>  2 0.45480091E+03</rscale>
<asrwt>0</asrwt>
<pdfrwt beam="1">  1       21 0.21308452E-01 0.45480091E+03</pdfrwt>
<pdfrwt beam="2">  1       21 0.52482307E-01 0.45480091E+03</pdfrwt>
<totfact> 0.65249046E+04</totfact>
</mgrwt>
</event>
<event>
 7    0  0.4709932E-002  0.4450661E+03  0.7546771E-02  0.1029204E+00
         21   -1    0    0  502  501  0.00000000000E+00  0.00000000000E+00  0.22041829783E+03  0.22041829783E+03  0.00000000000E+00 0. -1.
         21   -1    0    0  501  502 -0.00000000000E+00 -0.00000000000E+00 -0.22466806132E+03  0.22466806132E+03  0.00000000000E+00 0. -1.
      99926    2    1    2    0    0  0.71054273576E-14  0.00000000000E+00 -0.42497634892E+01  0.44508635916E+03  0.44506606994E+03 0.  0.
      99925    2    3    3    0    0  0.47273288031E+02 -0.70321925750E+02 -0.62285496200E+02  0.28323583746E+03  0.26298882026E+03 0.  0.
         25    1    4    4    0    0  0.50140856156E+02 -0.92839665511E+01 -0.13669113153E+02  0.13577426209E+03  0.12509000000E+03 0.  0.
         25    1    4    4    0    0 -0.28675681254E+01 -0.61037959199E+02 -0.48616383048E+02  0.14746157537E+03  0.12509000000E+03 0.  0.
         25    1    3    3    0    0 -0.47273288031E+02  0.70321925750E+02  0.58035732711E+02  0.16185052170E+03  0.12509000000E+03 0.  0.
<mgrwt>
<rscale>  2 0.44506607E+03</rscale>
<asrwt>0</asrwt>
<pdfrwt beam="1">  1       21 0.32414456E-01 0.44506607E+03</pdfrwt>
<pdfrwt beam="2">  1       21 0.33039421E-01 0.44506607E+03</pdfrwt>
<totfact> 0.75053039E+04</totfact>
</mgrwt>
</event>
<event>
 7    0  0.4709932E-002  0.4529940E+03  0.7546771E-02  0.1026833E+00
         21   -1    0    0  502  501  0.00000000000E+00  0.00000000000E+00  0.48100103768E+02  0.48100103768E+02  0.00000000000E+00 0. -1.
         21   -1    0    0  501  502 -0.00000000000E+00 -0.00000000000E+00 -0.10665442456E+04  0.10665442456E+04  0.00000000000E+00 0. -1.
      99926    2    1    2    0    0  0.00000000000E+00  0.00000000000E+00 -0.10184441418E+04  0.11146443494E+04  0.45299399063E+03 0.  0.
      99925    2    3    3    0    0 -0.73090478467E+02 -0.82487815804E+02 -0.67933625892E+03  0.73677119320E+03  0.26303532205E+03 0.  0.
         25    1    3    3    0    0  0.73090478467E+02  0.82487815804E+02 -0.33910788290E+03  0.37787315615E+03  0.12509000000E+03 0.  0.
         25    1    4    4    0    0 -0.18079881235E+02 -0.19101782473E+01 -0.31307228530E+03  0.33762744973E+03  0.12509000000E+03 0.  0.
         25    1    4    4    0    0 -0.55010597233E+02 -0.80577637556E+02 -0.36626397362E+03  0.39914374348E+03  0.12509000000E+03 0.  0.
<mgrwt>
<rscale>  2 0.45299399E+03</rscale>
<asrwt>0</asrwt>
<pdfrwt beam="1">  1       21 0.70735447E-02 0.45299399E+03</pdfrwt>
<pdfrwt beam="2">  1       21 0.15684474E+00 0.45299399E+03</pdfrwt>
<totfact> 0.35537500E+04</totfact>
</mgrwt>
</event>
<event>
 7    0  0.4709932E-002  0.4526474E+03  0.7546771E-02  0.1026935E+00
         21   -1    0    0  502  501  0.00000000000E+00  0.00000000000E+00  0.54887135990E+02  0.54887135990E+02  0.00000000000E+00 0.  1.
         21   -1    0    0  501  502 -0.00000000000E+00 -0.00000000000E+00 -0.93323170537E+03  0.93323170537E+03  0.00000000000E+00 0.  1.
      99926    2    1    2    0    0  0.00000000000E+00  0.71054273576E-14 -0.87834456938E+03  0.98811884136E+03  0.45264739267E+03 0.  0.
      99925    2    3    3    0    0  0.91613638268E+02 -0.46544742332E+02 -0.46224781394E+03  0.54163984998E+03  0.26294716929E+03 0.  0.
         25    1    4    4    0    0  0.84614718072E+02 -0.88560442930E+01 -0.23764705225E+03  0.28171210406E+03  0.12509000000E+03 0.  0.
         25    1    4    4    0    0  0.69989201954E+01 -0.37688698039E+02 -0.22460076170E+03  0.25992774592E+03  0.12509000000E+03 0.  0.
         25    1    3    3    0    0 -0.91613638268E+02  0.46544742332E+02 -0.41609675544E+03  0.44647899138E+03  0.12509000000E+03 0.  0.
<mgrwt>
<rscale>  2 0.45264739E+03</rscale>
<asrwt>0</asrwt>
<pdfrwt beam="1">  1       21 0.80716380E-02 0.45264739E+03</pdfrwt>
<pdfrwt beam="2">  1       21 0.13723995E+00 0.45264739E+03</pdfrwt>
<totfact> 0.40368778E+04</totfact>
</mgrwt>
</event>
<event>
 7    0  0.4709932E-002  0.4482742E+03  0.7546771E-02  0.1028238E+00
         21   -1    0    0  502  501  0.00000000000E+00  0.00000000000E+00  0.58289952352E+03  0.58289952352E+03  0.00000000000E+00 0.  1.
         21   -1    0    0  501  502 -0.00000000000E+00 -0.00000000000E+00 -0.86185408253E+02  0.86185408253E+02  0.00000000000E+00 0.  1.
      99926    2    1    2    0    0 -0.35527136788E-14  0.00000000000E+00  0.49671411527E+03  0.66908493178E+03  0.44827417238E+03 0.  0.
      99925    2    3    3    0    0 -0.22299500068E+02  0.81616219759E+02  0.41159374890E+03  0.49573136273E+03  0.26302413355E+03 0.  0.
         25    1    4    4    0    0  0.24049841354E+02  0.26815892923E+02  0.22443602308E+03  0.25945428025E+03  0.12509000000E+03 0.  0.
         25    1    4    4    0    0 -0.46349341422E+02  0.54800326836E+02  0.18715772581E+03  0.23627708248E+03  0.12509000000E+03 0.  0.
         25    1    3    3    0    0  0.22299500068E+02 -0.81616219759E+02  0.85120366373E+02  0.17335356905E+03  0.12509000000E+03 0.  0.
<mgrwt>
<rscale>  2 0.44827417E+03</rscale>
<asrwt>0</asrwt>
<pdfrwt beam="1">  1       21 0.85720516E-01 0.44827417E+03</pdfrwt>
<pdfrwt beam="2">  1       21 0.12674325E-01 0.44827417E+03</pdfrwt>
<totfact> 0.57606553E+04</totfact>
</mgrwt>
</event>
<event>
 7    0  0.4709932E-002  0.4665700E+03  0.7546771E-02  0.1022893E+00
         21   -1    0    0  502  501  0.00000000000E+00  0.00000000000E+00  0.12183134468E+04  0.12183134468E+04  0.00000000000E+00 0.  1.
         21   -1    0    0  501  502 -0.00000000000E+00 -0.00000000000E+00 -0.44669855949E+02  0.44669855949E+02  0.00000000000E+00 0.  1.
      99926    2    1    2    0    0  0.00000000000E+00 -0.14210854715E-13  0.11736435909E+04  0.12629833028E+04  0.46656997834E+03 0.  0.
      99925    2    3    3    0    0 -0.61807803353E+02 -0.10450630920E+03  0.66637069781E+03  0.72659252232E+03  0.26295439410E+03 0.  0.
         25    1    3    3    0    0  0.61807803353E+02  0.10450630920E+03  0.50727289308E+03  0.53639078047E+03  0.12509000000E+03 0.  0.
         25    1    4    4    0    0 -0.22480459289E+02 -0.36660958927E+02  0.40929128453E+03  0.43013516556E+03  0.12509000000E+03 0.  0.
         25    1    4    4    0    0 -0.39327344064E+02 -0.67845350272E+02  0.25707941328E+03  0.29645735676E+03  0.12509000000E+03 0.  0.
<mgrwt>
<rscale>  2 0.46656998E+03</rscale>
<asrwt>0</asrwt>
<pdfrwt beam="1">  1       21 0.17916372E+00 0.46656998E+03</pdfrwt>
<pdfrwt beam="2">  1       21 0.65690973E-02 0.46656998E+03</pdfrwt>
<totfact> 0.27635129E+04</totfact>
</mgrwt>
</event>
<event>
 7    0  0.4709932E-002  0.4512983E+03  0.7546771E-02  0.1027336E+00
         21   -1    0    0  502  501  0.00000000000E+00  0.00000000000E+00  0.73229976579E+03  0.73229976579E+03  0.00000000000E+00 0. -1.
         21   -1    0    0  501  502 -0.00000000000E+00 -0.00000000000E+00 -0.69530998320E+02  0.69530998320E+02  0.00000000000E+00 0. -1.
      99926    2    1    2    0    0 -0.88817841970E-15 -0.35527136788E-14  0.66276876747E+03  0.80183076411E+03  0.45129827735E+03 0.  0.
      99925    2    3    3    0    0 -0.33260502098E+01 -0.29905854191E+02  0.60550790282E+03  0.66100556237E+03  0.26340673944E+03 0.  0.
         25    1    4    4    0    0  0.12555248049E+02  0.45645923987E+01  0.38078917411E+03  0.40103163588E+03  0.12509000000E+03 0.  0.
         25    1    3    3    0    0  0.33260502098E+01  0.29905854191E+02  0.57260864656E+02  0.14082520174E+03  0.12509000000E+03 0.  0.
         25    1    4    4    0    0 -0.15881298259E+02 -0.34470446590E+02  0.22471872870E+03  0.25997392649E+03  0.12509000000E+03 0.  0.
<mgrwt>
<rscale>  2 0.45129828E+03</rscale>
<asrwt>0</asrwt>
<pdfrwt beam="1">  1       21 0.10769114E+00 0.45129828E+03</pdfrwt>
<pdfrwt beam="2">  1       21 0.10225147E-01 0.45129828E+03</pdfrwt>
<totfact> 0.49086902E+04</totfact>
</mgrwt>
</event>
<event>
 7    0  0.4709932E-002  0.4553438E+03  0.7546771E-02  0.1026140E+00
         21   -1    0    0  502  501  0.00000000000E+00  0.00000000000E+00  0.94603243474E+03  0.94603243474E+03  0.00000000000E+00 0. -1.
         21   -1    0    0  501  502 -0.00000000000E+00 -0.00000000000E+00 -0.54791448163E+02  0.54791448163E+02  0.00000000000E+00 0. -1.
      99926    2    1    2    0    0  0.00000000000E+00  0.00000000000E+00  0.89124098658E+03  0.10008238829E+04  0.45534376951E+03 0.  0.
      99925    2    3    3    0    0  0.17268322185E+02  0.10719010111E+03  0.63404431835E+03  0.69490633360E+03  0.26285871131E+03 0.  0.
         25    1    4    4    0    0  0.24532035022E+02  0.55310063267E+02  0.41115660657E+03  0.43400263486E+03  0.12509000000E+03 0.  0.
         25    1    3    3    0    0 -0.17268322185E+02 -0.10719010111E+03  0.25719666823E+03  0.30591754931E+03  0.12509000000E+03 0.  0.
         25    1    4    4    0    0 -0.72637128367E+01  0.51880037842E+02  0.22288771178E+03  0.26090369873E+03  0.12509000000E+03 0.  0.
<mgrwt>
<rscale>  2 0.45534377E+03</rscale>
<asrwt>0</asrwt>
<pdfrwt beam="1">  1       21 0.13912241E+00 0.45534377E+03</pdfrwt>
<pdfrwt beam="2">  1       21 0.80575665E-02 0.45534377E+03</pdfrwt>
<totfact> 0.39029880E+04</totfact>
</mgrwt>
</event>
<event>
 7    0  0.4709932E-002  0.4533137E+03  0.7546771E-02  0.1026738E+00
         21   -1    0    0  502  501  0.00000000000E+00  0.00000000000E+00  0.46757164560E+03  0.46757164560E+03  0.00000000000E+00 0.  1.
         21   -1    0    0  501  502 -0.00000000000E+00 -0.00000000000E+00 -0.10987260952E+03  0.10987260952E+03  0.00000000000E+00 0.  1.
      99926    2    1    2    0    0  0.00000000000E+00  0.00000000000E+00  0.35769903608E+03  0.57744425512E+03  0.45331365229E+03 0.  0.
      99925    2    3    3    0    0  0.56321276869E+02  0.74641288358E+02  0.14795050656E+03  0.31593830510E+03  0.26302899476E+03 0.  0.
         25    1    4    4    0    0 -0.14600461742E+01  0.68064196857E+01  0.73628559602E+02  0.14531734918E+03  0.12509000000E+03 0.  0.
         25    1    3    3    0    0 -0.56321276869E+02 -0.74641288358E+02  0.20974852952E+03  0.26150595001E+03  0.12509000000E+03 0.  0.
         25    1    4    4    0    0  0.57781323044E+02  0.67834868672E+02  0.74321946954E+02  0.17062095592E+03  0.12509000000E+03 0.  0.
<mgrwt>
<rscale>  2 0.45331365E+03</rscale>
<asrwt>0</asrwt>
<pdfrwt beam="1">  1       21 0.68760536E-01 0.45331365E+03</pdfrwt>
<pdfrwt beam="2">  1       21 0.16157737E-01 0.45331365E+03</pdfrwt>
<totfact> 0.60896422E+04</totfact>
</mgrwt>
</event>
<event>
 7    0  0.4709932E-002  0.4567836E+03  0.7546771E-02  0.1025718E+00
         21   -1    0    0  502  501  0.00000000000E+00  0.00000000000E+00  0.52361903420E+03  0.52361903420E+03  0.00000000000E+00 0.  1.
         21   -1    0    0  501  502 -0.00000000000E+00 -0.00000000000E+00 -0.99619775047E+02  0.99619775047E+02  0.00000000000E+00 0.  1.
      99926    2    1    2    0    0  0.00000000000E+00  0.00000000000E+00  0.42399925916E+03  0.62323880925E+03  0.45678358288E+03 0.  0.
      99925    2    3    3    0    0 -0.86444120507E+02  0.58075072398E+02  0.33123960232E+03  0.43589644340E+03  0.26351610050E+03 0.  0.
         25    1    4    4    0    0 -0.68838973045E+02  0.28604636472E+02  0.22604334521E+03  0.26888683763E+03  0.12509000000E+03 0.  0.
         25    1    4    4    0    0 -0.17605147461E+02  0.29470435926E+02  0.10519625710E+03  0.16700960577E+03  0.12509000000E+03 0.  0.
         25    1    3    3    0    0  0.86444120507E+02 -0.58075072398E+02  0.92759656843E+02  0.18734236585E+03  0.12509000000E+03 0.  0.
<mgrwt>
<rscale>  2 0.45678358E+03</rscale>
<asrwt>0</asrwt>
<pdfrwt beam="1">  1       21 0.77002798E-01 0.45678358E+03</pdfrwt>
<pdfrwt beam="2">  1       21 0.14649967E-01 0.45678358E+03</pdfrwt>
<totfact> 0.56470702E+04</totfact>
</mgrwt>
</event>
<event>
 7    0  0.4709932E-002  0.4476946E+03  0.7546771E-02  0.1028412E+00
         21   -1    0    0  502  501  0.00000000000E+00  0.00000000000E+00  0.10491058424E+03  0.10491058424E+03  0.00000000000E+00 0. -1.
         21   -1    0    0  501  502 -0.00000000000E+00 -0.00000000000E+00 -0.47762204060E+03  0.47762204060E+03  0.00000000000E+00 0. -1.
      99926    2    1    2    0    0  0.14210854715E-13 -0.22204460493E-14 -0.37271145636E+03  0.58253262484E+03  0.44769457144E+03 0.  0.
      99925    2    3    3    0    0  0.91963619954E+02  0.33960180333E+01 -0.30529306424E+03  0.41323528868E+03  0.26285111452E+03 0.  0.
         25    1    3    3    0    0 -0.91963619954E+02 -0.33960180333E+01 -0.67418392120E+02  0.16929733616E+03  0.12509000000E+03 0.  0.
         25    1    4    4    0    0  0.31370295800E+02 -0.19170252591E+02 -0.10010934825E+03  0.16438060637E+03  0.12509000000E+03 0.  0.
         25    1    4    4    0    0  0.60593324154E+02  0.22566270625E+02 -0.20518371599E+03  0.24885468232E+03  0.12509000000E+03 0.  0.
<mgrwt>
<rscale>  2 0.44769457E+03</rscale>
<asrwt>0</asrwt>
<pdfrwt beam="1">  1       21 0.15428027E-01 0.44769457E+03</pdfrwt>
<pdfrwt beam="2">  1       21 0.70238535E-01 0.44769457E+03</pdfrwt>
<totfact> 0.63346214E+04</totfact>
</mgrwt>
</event>
<event>
 7    0  0.4709932E-002  0.4229938E+03  0.7546771E-02  0.1036096E+00
         21   -1    0    0  502  501  0.00000000000E+00  0.00000000000E+00  0.27169100024E+03  0.27169100024E+03  0.00000000000E+00 0. -1.
         21   -1    0    0  501  502 -0.00000000000E+00 -0.00000000000E+00 -0.16463902480E+03  0.16463902480E+03  0.00000000000E+00 0. -1.
      99926    2    1    2    0    0  0.00000000000E+00  0.00000000000E+00  0.10705197544E+03  0.43633002504E+03  0.42299381237E+03 0.  0.
      99925    2    3    3    0    0  0.18380233764E+02 -0.70959262062E+02  0.37847917594E+02  0.27567586360E+03  0.26304308970E+03 0.  0.
         25    1    4    4    0    0 -0.81249214347E+01 -0.53539356570E+02  0.51921468520E+02  0.14586234622E+03  0.12509000000E+03 0.  0.
         25    1    3    3    0    0 -0.18380233764E+02  0.70959262062E+02  0.69204057845E+02  0.16065416144E+03  0.12509000000E+03 0.  0.
         25    1    4    4    0    0  0.26505155198E+02 -0.17419905492E+02 -0.14073550926E+02  0.12981351738E+03  0.12509000000E+03 0.  0.
<mgrwt>
<rscale>  2 0.42299381E+03</rscale>
<asrwt>0</asrwt>
<pdfrwt beam="1">  1       21 0.39954559E-01 0.42299381E+03</pdfrwt>
<pdfrwt beam="2">  1       21 0.24211621E-01 0.42299381E+03</pdfrwt>
<totfact> 0.91029425E+04</totfact>
</mgrwt>
</event>
<event>
 7    0  0.4709932E-002  0.4600324E+03  0.7546771E-02  0.1024772E+00
         21   -1    0    0  502  501  0.00000000000E+00  0.00000000000E+00  0.21442429066E+03  0.21442429066E+03  0.00000000000E+00 0. -1.
         21   -1    0    0  501  502 -0.00000000000E+00 -0.00000000000E+00 -0.24674191112E+03  0.24674191112E+03  0.00000000000E+00 0. -1.
      99926    2    1    2    0    0  0.14210854715E-13  0.00000000000E+00 -0.32317620464E+02  0.46116620178E+03  0.46003243045E+03 0.  0.
      99925    2    3    3    0    0 -0.97875801256E+02 -0.65638856018E+02 -0.19520619300E+02  0.28883105379E+03  0.26297184482E+03 0.  0.
         25    1    4    4    0    0 -0.19264069776E+02 -0.55525137676E+01 -0.25499025455E+02  0.12922709930E+03  0.12509000000E+03 0.  0.
         25    1    4    4    0    0 -0.78611731480E+02 -0.60086342251E+02  0.59784061547E+01  0.15960395450E+03  0.12509000000E+03 0.  0.
         25    1    3    3    0    0  0.97875801256E+02  0.65638856018E+02 -0.12797001164E+02  0.17233514798E+03  0.12509000000E+03 0.  0.
<mgrwt>
<rscale>  2 0.46003243E+03</rscale>
<asrwt>0</asrwt>
<pdfrwt beam="1">  1       21 0.31532984E-01 0.46003243E+03</pdfrwt>
<pdfrwt beam="2">  1       21 0.36285575E-01 0.46003243E+03</pdfrwt>
<totfact> 0.65429543E+04</totfact>
</mgrwt>
</event>
<event>
 7    0  0.4709932E-002  0.4048325E+03  0.7546771E-02  0.1042119E+00
         21   -1    0    0  502  501  0.00000000000E+00  0.00000000000E+00  0.28051680504E+03  0.28051680504E+03  0.00000000000E+00 0. -1.
         21   -1    0    0  501  502 -0.00000000000E+00 -0.00000000000E+00 -0.14606018578E+03  0.14606018578E+03  0.00000000000E+00 0. -1.
      99926    2    1    2    0    0 -0.17763568394E-14  0.00000000000E+00  0.13445661927E+03  0.42657699082E+03  0.40483249206E+03 0.  0.
      99925    2    3    3    0    0 -0.14577578843E+02  0.51637622651E+02  0.95918519483E+02  0.28511447595E+03  0.26307974483E+03 0.  0.
         25    1    3    3    0    0  0.14577578843E+02 -0.51637622651E+02  0.38538099782E+02  0.14146251487E+03  0.12509000000E+03 0.  0.
         25    1    4    4    0    0  0.21555392484E+02  0.54701861998E+02  0.47028124043E+02  0.14600027809E+03  0.12509000000E+03 0.  0.
         25    1    4    4    0    0 -0.36132971328E+02 -0.30642393461E+01  0.48890395440E+02  0.13911419786E+03  0.12509000000E+03 0.  0.
<mgrwt>
<rscale>  2 0.40483249E+03</rscale>
<asrwt>0</asrwt>
<pdfrwt beam="1">  1       21 0.41252471E-01 0.40483249E+03</pdfrwt>
<pdfrwt beam="2">  1       21 0.21479439E-01 0.40483249E+03</pdfrwt>
<totfact> 0.10770076E+05</totfact>
</mgrwt>
</event>
<event>
 7    0  0.4709932E-002  0.4544693E+03  0.7546771E-02  0.1026398E+00
         21   -1    0    0  502  501  0.00000000000E+00  0.00000000000E+00  0.37244442523E+03  0.37244442523E+03  0.00000000000E+00 0. -1.
         21   -1    0    0  501  502 -0.00000000000E+00 -0.00000000000E+00 -0.13863971705E+03  0.13863971705E+03  0.00000000000E+00 0. -1.
      99926    2    1    2    0    0  0.00000000000E+00  0.00000000000E+00  0.23380470818E+03  0.51108414227E+03  0.45446931570E+03 0.  0.
      99925    2    3    3    0    0  0.28475872092E+02  0.77085608134E+01  0.26945569492E+03  0.37770948892E+03  0.26303571867E+03 0.  0.
         25    1    3    3    0    0 -0.28475872092E+02 -0.77085608134E+01 -0.35650986736E+02  0.13337465335E+03  0.12509000000E+03 0.  0.
         25    1    4    4    0    0  0.43599166902E+01  0.12027628936E+00  0.77547973601E+02  0.14724204444E+03  0.12509000000E+03 0.  0.
         25    1    4    4    0    0  0.24115955402E+02  0.75882845240E+01  0.19190772132E+03  0.23046744449E+03  0.12509000000E+03 0.  0.
<mgrwt>
<rscale>  2 0.45446932E+03</rscale>
<asrwt>0</asrwt>
<pdfrwt beam="1">  1       21 0.54771239E-01 0.45446932E+03</pdfrwt>
<pdfrwt beam="2">  1       21 0.20388194E-01 0.45446932E+03</pdfrwt>
<totfact> 0.64771126E+04</totfact>
</mgrwt>
</event>
<event>
 7    0  0.4709932E-002  0.4540386E+03  0.7546771E-02  0.1026524E+00
         21   -1    0    0  502  501  0.00000000000E+00  0.00000000000E+00  0.31239634647E+03  0.31239634647E+03  0.00000000000E+00 0. -1.
         21   -1    0    0  501  502 -0.00000000000E+00 -0.00000000000E+00 -0.16497559080E+03  0.16497559080E+03  0.00000000000E+00 0. -1.
      99926    2    1    2    0    0  0.14210854715E-13  0.00000000000E+00  0.14742075567E+03  0.47737193727E+03  0.45403864074E+03 0.  0.
      99925    2    3    3    0    0  0.76965844072E+02  0.74879607059E+02  0.12728047636E+03  0.31128811609E+03  0.26300052252E+03 0.  0.
         25    1    3    3    0    0 -0.76965844072E+02 -0.74879607059E+02  0.20140279312E+02  0.16608382118E+03  0.12509000000E+03 0.  0.
         25    1    4    4    0    0  0.65038415521E+01  0.11411445497E+02  0.41751908959E+02  0.13252641640E+03  0.12509000000E+03 0.  0.
         25    1    4    4    0    0  0.70462002520E+02  0.63468161563E+02  0.85528567401E+02  0.17876169968E+03  0.12509000000E+03 0.  0.
<mgrwt>
<rscale>  2 0.45403864E+03</rscale>
<asrwt>0</asrwt>
<pdfrwt beam="1">  1       21 0.45940639E-01 0.45403864E+03</pdfrwt>
<pdfrwt beam="2">  1       21 0.24261116E-01 0.45403864E+03</pdfrwt>
<totfact> 0.67404744E+04</totfact>
</mgrwt>
</event>
<event>
 7    0  0.4709932E-002  0.4583390E+03  0.7546771E-02  0.1025264E+00
         21   -1    0    0  502  501  0.00000000000E+00  0.00000000000E+00  0.37262488083E+03  0.37262488083E+03  0.00000000000E+00 0.  1.
         21   -1    0    0  501  502 -0.00000000000E+00 -0.00000000000E+00 -0.14094241629E+03  0.14094241629E+03  0.00000000000E+00 0.  1.
      99926    2    1    2    0    0  0.17763568394E-14  0.00000000000E+00  0.23168246454E+03  0.51356729712E+03  0.45833896223E+03 0.  0.
      99925    2    3    3    0    0 -0.14059343772E+02  0.44602434945E+02  0.26462228568E+03  0.37601882469E+03  0.26301741405E+03 0.  0.
         25    1    4    4    0    0  0.21513000738E+02 -0.30164246813E+00  0.15339139774E+03  0.19909628120E+03  0.12509000000E+03 0.  0.
         25    1    3    3    0    0  0.14059343772E+02 -0.44602434945E+02 -0.32939821141E+02  0.13754847243E+03  0.12509000000E+03 0.  0.
         25    1    4    4    0    0 -0.35572344511E+02  0.44904077413E+02  0.11123088794E+03  0.17692254349E+03  0.12509000000E+03 0.  0.
<mgrwt>
<rscale>  2 0.45833896E+03</rscale>
<asrwt>0</asrwt>
<pdfrwt beam="1">  1       21 0.54797777E-01 0.45833896E+03</pdfrwt>
<pdfrwt beam="2">  1       21 0.20726826E-01 0.45833896E+03</pdfrwt>
<totfact> 0.62651007E+04</totfact>
</mgrwt>
</event>
<event>
 7    0  0.4709932E-002  0.4565324E+03  0.7546771E-02  0.1025792E+00
         21   -1    0    0  502  501  0.00000000000E+00  0.00000000000E+00  0.55177752629E+02  0.55177752629E+02  0.00000000000E+00 0. -1.
         21   -1    0    0  501  502 -0.00000000000E+00 -0.00000000000E+00 -0.94431993482E+03  0.94431993482E+03  0.00000000000E+00 0. -1.
      99926    2    1    2    0    0  0.17763568394E-14  0.14210854715E-13 -0.88914218219E+03  0.99949768745E+03  0.45653237242E+03 0.  0.
      99925    2    3    3    0    0 -0.15103261149E+02 -0.97105316746E+02 -0.42950657217E+03  0.51311311416E+03  0.26296695866E+03 0.  0.
         25    1    3    3    0    0  0.15103261149E+02  0.97105316746E+02 -0.45963561002E+03  0.48638457329E+03  0.12509000000E+03 0.  0.
         25    1    4    4    0    0 -0.23027052315E+02 -0.88535994439E+02 -0.24477695240E+03  0.28971042780E+03  0.12509000000E+03 0.  0.
         25    1    4    4    0    0  0.79237911665E+01 -0.85693223071E+01 -0.18472961977E+03  0.22340268636E+03  0.12509000000E+03 0.  0.
<mgrwt>
<rscale>  2 0.45653237E+03</rscale>
<asrwt>0</asrwt>
<pdfrwt beam="1">  1       21 0.81143759E-02 0.45653237E+03</pdfrwt>
<pdfrwt beam="2">  1       21 0.13887057E+00 0.45653237E+03</pdfrwt>
<totfact> 0.38720867E+04</totfact>
</mgrwt>
</event>
<event>
 7    0  0.4709932E-002  0.4589914E+03  0.7546771E-02  0.1025074E+00
         21   -1    0    0  502  501  0.00000000000E+00  0.00000000000E+00  0.39596473071E+03  0.39596473071E+03  0.00000000000E+00 0. -1.
         21   -1    0    0  501  502 -0.00000000000E+00 -0.00000000000E+00 -0.13301253539E+03  0.13301253539E+03  0.00000000000E+00 0. -1.
      99926    2    1    2    0    0  0.00000000000E+00 -0.22204460493E-14  0.26295219531E+03  0.52897726610E+03  0.45899138448E+03 0.  0.
      99925    2    3    3    0    0  0.11520822436E+03 -0.27957789718E+01  0.18839593403E+03  0.34327078926E+03  0.26279470212E+03 0.  0.
         25    1    4    4    0    0  0.46261242758E+02  0.37363460620E+02  0.86997192984E+02  0.16356084635E+03  0.12509000000E+03 0.  0.
         25    1    3    3    0    0 -0.11520822436E+03  0.27957789718E+01  0.74556261286E+02  0.18570647683E+03  0.12509000000E+03 0.  0.
         25    1    4    4    0    0  0.68946981604E+02 -0.40159239592E+02  0.10139874104E+03  0.17970994291E+03  0.12509000000E+03 0.  0.
<mgrwt>
<rscale>  2 0.45899138E+03</rscale>
<asrwt>0</asrwt>
<pdfrwt beam="1">  1       21 0.58230107E-01 0.45899138E+03</pdfrwt>
<pdfrwt beam="2">  1       21 0.19560667E-01 0.45899138E+03</pdfrwt>
<totfact> 0.61312855E+04</totfact>
</mgrwt>
</event>
<event>
 7    0  0.4709932E-002  0.4435949E+03  0.7546771E-02  0.1029649E+00
         21   -1    0    0  502  501  0.00000000000E+00  0.00000000000E+00  0.29687105751E+03  0.29687105751E+03  0.00000000000E+00 0. -1.
         21   -1    0    0  501  502 -0.00000000000E+00 -0.00000000000E+00 -0.16570867406E+03  0.16570867406E+03  0.00000000000E+00 0. -1.
      99926    2    1    2    0    0  0.71054273576E-14  0.00000000000E+00  0.13116238346E+03  0.46257973157E+03  0.44359490216E+03 0.  0.
      99925    2    3    3    0    0 -0.63954180166E+02  0.32475777233E+02  0.15918362137E+03  0.31568687557E+03  0.26300943867E+03 0.  0.
         25    1    4    4    0    0 -0.44694305780E+02  0.44489710367E+02  0.11450914358E+03  0.18093304663E+03  0.12509000000E+03 0.  0.
         25    1    4    4    0    0 -0.19259874386E+02 -0.12013933134E+02  0.44674477788E+02  0.13475382895E+03  0.12509000000E+03 0.  0.
         25    1    3    3    0    0  0.63954180166E+02 -0.32475777233E+02 -0.28021237912E+02  0.14689285599E+03  0.12509000000E+03 0.  0.
<mgrwt>
<rscale>  2 0.44359490E+03</rscale>
<asrwt>0</asrwt>
<pdfrwt beam="1">  1       21 0.43657508E-01 0.44359490E+03</pdfrwt>
<pdfrwt beam="2">  1       21 0.24368923E-01 0.44359490E+03</pdfrwt>
<totfact> 0.74508444E+04</totfact>
</mgrwt>
</event>
<event>
 7    0  0.4709932E-002  0.4485083E+03  0.7546771E-02  0.1028168E+00
         21   -1    0    0  502  501  0.00000000000E+00  0.00000000000E+00  0.20635200348E+03  0.20635200348E+03  0.00000000000E+00 0. -1.
         21   -1    0    0  501  502 -0.00000000000E+00 -0.00000000000E+00 -0.24370937318E+03  0.24370937318E+03  0.00000000000E+00 0. -1.
      99926    2    1    2    0    0 -0.71054273576E-14  0.00000000000E+00 -0.37357369693E+02  0.45006137666E+03  0.44850827159E+03 0.  0.
      99925    2    3    3    0    0 -0.51679082025E+02  0.76624794940E+02  0.30471097209E+02  0.28038434303E+03  0.26295399851E+03 0.  0.
         25    1    4    4    0    0  0.36762155849E+01  0.20101005273E+02 -0.94088618488E+01  0.12709681253E+03  0.12509000000E+03 0.  0.
         25    1    4    4    0    0 -0.55355297610E+02  0.56523789667E+02  0.39879959058E+02  0.15328753050E+03  0.12509000000E+03 0.  0.
         25    1    3    3    0    0  0.51679082025E+02 -0.76624794940E+02 -0.67828466903E+02  0.16967703363E+03  0.12509000000E+03 0.  0.
<mgrwt>
<rscale>  2 0.44850827E+03</rscale>
<asrwt>0</asrwt>
<pdfrwt beam="1">  1       21 0.30345883E-01 0.44850827E+03</pdfrwt>
<pdfrwt beam="2">  1       21 0.35839613E-01 0.44850827E+03</pdfrwt>
<totfact> 0.72597101E+04</totfact>
</mgrwt>
</event>
<event>
 7    0  0.4709932E-002  0.4593507E+03  0.7546771E-02  0.1024970E+00
         21   -1    0    0  502  501  0.00000000000E+00  0.00000000000E+00  0.22414703362E+03  0.22414703362E+03  0.00000000000E+00 0. -1.
         21   -1    0    0  501  502 -0.00000000000E+00 -0.00000000000E+00 -0.23533999581E+03  0.23533999581E+03  0.00000000000E+00 0. -1.
      99926    2    1    2    0    0  0.00000000000E+00  0.71054273576E-14 -0.11192962191E+02  0.45948702943E+03  0.45935068065E+03 0.  0.
      99925    2    3    3    0    0  0.99574492271E+02 -0.39093904208E+02 -0.54779086058E+02  0.28922055842E+03  0.26306723530E+03 0.  0.
         25    1    4    4    0    0  0.66965468721E+02  0.15502278433E+02 -0.15942818754E+02  0.14361885742E+03  0.12509000000E+03 0.  0.
         25    1    3    3    0    0 -0.99574492271E+02  0.39093904208E+02  0.43586123867E+02  0.17026647101E+03  0.12509000000E+03 0.  0.
         25    1    4    4    0    0  0.32609023550E+02 -0.54596182641E+02 -0.38836267303E+02  0.14560170100E+03  0.12509000000E+03 0.  0.
<mgrwt>
<rscale>  2 0.45935068E+03</rscale>
<asrwt>0</asrwt>
<pdfrwt beam="1">  1       21 0.32962799E-01 0.45935068E+03</pdfrwt>
<pdfrwt beam="2">  1       21 0.34608823E-01 0.45935068E+03</pdfrwt>
<totfact> 0.65900775E+04</totfact>
</mgrwt>
</event>
<event>
 7    0  0.4709932E-002  0.4522594E+03  0.7546771E-02  0.1027050E+00
         21   -1    0    0  502  501  0.00000000000E+00  0.00000000000E+00  0.49140804175E+03  0.49140804175E+03  0.00000000000E+00 0.  1.
         21   -1    0    0  501  502 -0.00000000000E+00 -0.00000000000E+00 -0.10405740236E+03  0.10405740236E+03  0.00000000000E+00 0.  1.
      99926    2    1    2    0    0  0.00000000000E+00  0.00000000000E+00  0.38735063939E+03  0.59546544411E+03  0.45225941372E+03 0.  0.
      99925    2    3    3    0    0  0.10641210507E+03  0.22763611520E+02  0.21743624059E+03  0.35806256053E+03  0.26284702854E+03 0.  0.
         25    1    3    3    0    0 -0.10641210507E+03 -0.22763611520E+02  0.16991439880E+03  0.23740288358E+03  0.12509000000E+03 0.  0.
         25    1    4    4    0    0  0.76311685168E+02 -0.19424089919E+02  0.13032282384E+03  0.19705916644E+03  0.12509000000E+03 0.  0.
         25    1    4    4    0    0  0.30100419901E+02  0.42187701440E+02  0.87113416749E+02  0.16100339409E+03  0.12509000000E+03 0.  0.
<mgrwt>
<rscale>  2 0.45225941E+03</rscale>
<asrwt>0</asrwt>
<pdfrwt beam="1">  1       21 0.72265888E-01 0.45225941E+03</pdfrwt>
<pdfrwt beam="2">  1       21 0.15302559E-01 0.45225941E+03</pdfrwt>
<totfact> 0.60252556E+04</totfact>
</mgrwt>
</event>
<event>
 7    0  0.4709932E-002  0.4598002E+03  0.7546771E-02  0.1024839E+00
         21   -1    0    0  502  501  0.00000000000E+00  0.00000000000E+00  0.93982821144E+02  0.93982821144E+02  0.00000000000E+00 0.  1.
         21   -1    0    0  501  502 -0.00000000000E+00 -0.00000000000E+00 -0.56238004630E+03  0.56238004630E+03  0.00000000000E+00 0.  1.
      99926    2    1    2    0    0  0.00000000000E+00  0.00000000000E+00 -0.46839722516E+03  0.65636286745E+03  0.45980023187E+03 0.  0.
      99925    2    3    3    0    0 -0.92343513237E+02 -0.32502615550E+02 -0.38581030602E+03  0.47733255781E+03  0.26346353460E+03 0.  0.
         25    1    4    4    0    0 -0.86759959583E+02 -0.29261851669E+02 -0.23103023275E+03  0.27821937944E+03  0.12509000000E+03 0.  0.
         25    1    4    4    0    0 -0.55835536542E+01 -0.32407638807E+01 -0.15478007327E+03  0.19911317838E+03  0.12509000000E+03 0.  0.
         25    1    3    3    0    0  0.92343513237E+02  0.32502615550E+02 -0.82586919139E+02  0.17903030963E+03  0.12509000000E+03 0.  0.
<mgrwt>
<rscale>  2 0.45980023E+03</rscale>
<asrwt>0</asrwt>
<pdfrwt beam="1">  1       21 0.13821003E-01 0.45980023E+03</pdfrwt>
<pdfrwt beam="2">  1       21 0.82702948E-01 0.45980023E+03</pdfrwt>
<totfact> 0.53289881E+04</totfact>
</mgrwt>
</event>
<event>
 7    0  0.4709932E-002  0.4312491E+03  0.7546771E-02  0.1033466E+00
         21   -1    0    0  502  501  0.00000000000E+00  0.00000000000E+00  0.16727455434E+03  0.16727455434E+03  0.00000000000E+00 0.  1.
         21   -1    0    0  501  502 -0.00000000000E+00 -0.00000000000E+00 -0.27794984507E+03  0.27794984507E+03  0.00000000000E+00 0.  1.
      99926    2    1    2    0    0  0.00000000000E+00  0.00000000000E+00 -0.11067529073E+03  0.44522439941E+03  0.43124905317E+03 0.  0.
      99925    2    3    3    0    0  0.32192280103E+02  0.29189085481E+02  0.88620992448E+01  0.26682865588E+03  0.26311717767E+03 0.  0.
         25    1    4    4    0    0  0.33520121585E+02  0.37187659979E+02 -0.24878875711E+02  0.13701455091E+03  0.12509000000E+03 0.  0.
         25    1    3    3    0    0 -0.32192280103E+02 -0.29189085481E+02 -0.11953738997E+03  0.17839574353E+03  0.12509000000E+03 0.  0.
         25    1    4    4    0    0 -0.13278414820E+01 -0.79985744976E+01  0.33740974956E+02  0.12981410497E+03  0.12509000000E+03 0.  0.
<mgrwt>
<rscale>  2 0.43124905E+03</rscale>
<asrwt>0</asrwt>
<pdfrwt beam="1">  1       21 0.24599199E-01 0.43124905E+03</pdfrwt>
<pdfrwt beam="2">  1       21 0.40874977E-01 0.43124905E+03</pdfrwt>
<totfact> 0.84081910E+04</totfact>
</mgrwt>
</event>
<event>
 7    0  0.4709932E-002  0.4659964E+03  0.7546771E-02  0.1023056E+00
         21   -1    0    0  502  501  0.00000000000E+00  0.00000000000E+00  0.54836976959E+03  0.54836976959E+03  0.00000000000E+00 0.  1.
         21   -1    0    0  501  502 -0.00000000000E+00 -0.00000000000E+00 -0.98999169371E+02  0.98999169371E+02  0.00000000000E+00 0.  1.
      99926    2    1    2    0    0  0.00000000000E+00  0.00000000000E+00  0.44937060021E+03  0.64736893896E+03  0.46599635920E+03 0.  0.
      99925    2    3    3    0    0  0.54879198657E+02 -0.47484873984E+02  0.41812189886E+03  0.49941445562E+03  0.26329135283E+03 0.  0.
         25    1    4    4    0    0  0.58830415292E+02 -0.25760492018E+02  0.16957985449E+03  0.22029402139E+03  0.12509000000E+03 0.  0.
         25    1    3    3    0    0 -0.54879198657E+02  0.47484873984E+02  0.31248701356E+02  0.14795448333E+03  0.12509000000E+03 0.  0.
         25    1    4    4    0    0 -0.39512166347E+01 -0.21724381966E+02  0.24854204437E+03  0.27912043423E+03  0.12509000000E+03 0.  0.
<mgrwt>
<rscale>  2 0.46599636E+03</rscale>
<asrwt>0</asrwt>
<pdfrwt beam="1">  1       21 0.80642612E-01 0.46599636E+03</pdfrwt>
<pdfrwt beam="2">  1       21 0.14558702E-01 0.46599636E+03</pdfrwt>
<totfact> 0.51258924E+04</totfact>
</mgrwt>
</event>
<event>
 7    0  0.4709932E-002  0.4767878E+03  0.7546771E-02  0.1020022E+00
         21   -1    0    0  502  501  0.00000000000E+00  0.00000000000E+00  0.20834319188E+03  0.20834319188E+03  0.00000000000E+00 0.  1.
         21   -1    0    0  501  502 -0.00000000000E+00 -0.00000000000E+00 -0.27277906957E+03  0.27277906957E+03  0.00000000000E+00 0.  1.
      99926    2    1    2    0    0  0.00000000000E+00  0.00000000000E+00 -0.64435877686E+02  0.48112226145E+03  0.47678784394E+03 0.  0.
      99925    2    3    3    0    0 -0.33457697332E+02 -0.10493683945E+03  0.33846318345E+02  0.28763309912E+03  0.26354519282E+03 0.  0.
         25    1    3    3    0    0  0.33457697332E+02  0.10493683945E+03 -0.98282196031E+02  0.19348916233E+03  0.12509000000E+03 0.  0.
         25    1    4    4    0    0 -0.21742165476E+01 -0.91218147822E+02  0.31151923699E+02  0.15793488582E+03  0.12509000000E+03 0.  0.
         25    1    4    4    0    0 -0.31283480784E+02 -0.13718691625E+02  0.26943946460E+01  0.12969821330E+03  0.12509000000E+03 0.  0.
<mgrwt>
<rscale>  2 0.47678784E+03</rscale>
<asrwt>0</asrwt>
<pdfrwt beam="1">  1       21 0.30638705E-01 0.47678784E+03</pdfrwt>
<pdfrwt beam="2">  1       21 0.40114569E-01 0.47678784E+03</pdfrwt>
<totfact> 0.56239663E+04</totfact>
</mgrwt>
</event>
<event>
 7    0  0.4709932E-002  0.4591130E+03  0.7546771E-02  0.1025039E+00
         21   -1    0    0  502  501  0.00000000000E+00  0.00000000000E+00  0.28384578049E+03  0.28384578049E+03  0.00000000000E+00 0. -1.
         21   -1    0    0  501  502 -0.00000000000E+00 -0.00000000000E+00 -0.18565073839E+03  0.18565073839E+03  0.00000000000E+00 0. -1.
      99926    2    1    2    0    0  0.00000000000E+00  0.44408920985E-15  0.98195042101E+02  0.46949651888E+03  0.45911296535E+03 0.  0.
      99925    2    3    3    0    0 -0.79322445502E+02  0.33856527673E+01 -0.26282033621E+02  0.27598795710E+03  0.26301158561E+03 0.  0.
         25    1    4    4    0    0 -0.46053303023E+01  0.11678962288E+02  0.83439259327E+01  0.12599498572E+03  0.12509000000E+03 0.  0.
         25    1    3    3    0    0  0.79322445502E+02 -0.33856527673E+01  0.12447707572E+03  0.19350856179E+03  0.12509000000E+03 0.  0.
         25    1    4    4    0    0 -0.74717115199E+02 -0.82933095204E+01 -0.34625959554E+02  0.14999297137E+03  0.12509000000E+03 0.  0.
<mgrwt>
<rscale>  2 0.45911297E+03</rscale>
<asrwt>0</asrwt>
<pdfrwt beam="1">  1       21 0.41742027E-01 0.45911297E+03</pdfrwt>
<pdfrwt beam="2">  1       21 0.27301579E-01 0.45911297E+03</pdfrwt>
<totfact> 0.65316129E+04</totfact>
</mgrwt>
</event>
<event>
 7    0  0.4709932E-002  0.4443803E+03  0.7546771E-02  0.1029411E+00
         21   -1    0    0  502  501  0.00000000000E+00  0.00000000000E+00  0.10566966370E+03  0.10566966370E+03  0.00000000000E+00 0. -1.
         21   -1    0    0  501  502 -0.00000000000E+00 -0.00000000000E+00 -0.46719624545E+03  0.46719624545E+03  0.00000000000E+00 0. -1.
      99926    2    1    2    0    0  0.00000000000E+00  0.00000000000E+00 -0.36152658176E+03  0.57286590915E+03  0.44438033321E+03 0.  0.
      99925    2    3    3    0    0 -0.55468654209E+02  0.82883256256E+02 -0.26288378321E+03  0.38491826864E+03  0.26288359456E+03 0.  0.
         25    1    4    4    0    0 -0.54983226653E+02  0.14336863923E+02 -0.14626559455E+03  0.20067344899E+03  0.12509000000E+03 0.  0.
         25    1    3    3    0    0  0.55468654209E+02 -0.82883256256E+02 -0.98642798542E+02  0.18794764051E+03  0.12509000000E+03 0.  0.
         25    1    4    4    0    0 -0.48542755632E+00  0.68546392333E+02 -0.11661818867E+03  0.18424481966E+03  0.12509000000E+03 0.  0.
<mgrwt>
<rscale>  2 0.44438033E+03</rscale>
<asrwt>0</asrwt>
<pdfrwt beam="1">  1       21 0.15539657E-01 0.44438033E+03</pdfrwt>
<pdfrwt beam="2">  1       21 0.68705330E-01 0.44438033E+03</pdfrwt>
<totfact> 0.65728049E+04</totfact>
</mgrwt>
</event>
<event>
 7    0  0.4709932E-002  0.4125572E+03  0.7546771E-02  0.1039516E+00
         21   -1    0    0  502  501  0.00000000000E+00  0.00000000000E+00  0.36158356066E+03  0.36158356066E+03  0.00000000000E+00 0. -1.
         21   -1    0    0  501  502 -0.00000000000E+00 -0.00000000000E+00 -0.11767919160E+03  0.11767919160E+03  0.00000000000E+00 0. -1.
      99926    2    1    2    0    0  0.00000000000E+00  0.00000000000E+00  0.24390436907E+03  0.47926275226E+03  0.41255720144E+03 0.  0.
      99925    2    3    3    0    0 -0.53912724997E+02 -0.36712355438E+02  0.17169597618E+03  0.32078266184E+03  0.26299739341E+03 0.  0.
         25    1    3    3    0    0  0.53912724997E+02  0.36712355438E+02  0.72208392880E+02  0.15848009042E+03  0.12509000000E+03 0.  0.
         25    1    4    4    0    0 -0.44965477367E+02 -0.45806447591E+02  0.61000301625E+02  0.15326013733E+03  0.12509000000E+03 0.  0.
         25    1    4    4    0    0 -0.89472476306E+01  0.90940921523E+01  0.11069567456E+03  0.16752252451E+03  0.12509000000E+03 0.  0.
<mgrwt>
<rscale>  2 0.41255720E+03</rscale>
<asrwt>0</asrwt>
<pdfrwt beam="1">  1       21 0.53174053E-01 0.41255720E+03</pdfrwt>
<pdfrwt beam="2">  1       21 0.17305764E-01 0.41255720E+03</pdfrwt>
<totfact> 0.94909831E+04</totfact>
</mgrwt>
</event>
<event>
 7    0  0.4709932E-002  0.4570065E+03  0.7546771E-02  0.1025653E+00
         21   -1    0    0  502  501  0.00000000000E+00  0.00000000000E+00  0.14803622510E+04  0.14803622510E+04  0.00000000000E+00 0. -1.
         21   -1    0    0  501  502 -0.00000000000E+00 -0.00000000000E+00 -0.35270912728E+02  0.35270912728E+02  0.00000000000E+00 0. -1.
      99926    2    1    2    0    0  0.00000000000E+00  0.00000000000E+00  0.14450913382E+04  0.15156331637E+04  0.45700646718E+03 0.  0.
      99925    2    3    3    0    0 -0.72257377043E+02  0.19791340183E+02  0.11972709404E+04  0.12281000641E+04  0.26298143855E+03 0.  0.
         25    1    4    4    0    0 -0.48674927894E+02  0.16962716643E+02  0.78638765521E+03  0.79794112234E+03  0.12509000000E+03 0.  0.
         25    1    4    4    0    0 -0.23582449149E+02  0.28286235406E+01  0.41088328515E+03  0.43015894171E+03  0.12509000000E+03 0.  0.
         25    1    3    3    0    0  0.72257377043E+02 -0.19791340183E+02  0.24782039788E+03  0.28753309964E+03  0.12509000000E+03 0.  0.
<mgrwt>
<rscale>  2 0.45700647E+03</rscale>
<asrwt>0</asrwt>
<pdfrwt beam="1">  1       21 0.21770029E+00 0.45700647E+03</pdfrwt>
<pdfrwt beam="2">  1       21 0.51868999E-02 0.45700647E+03</pdfrwt>
<totfact> 0.23037451E+04</totfact>
</mgrwt>
</event>
<event>
 7    0  0.4709932E-002  0.4531217E+03  0.7546771E-02  0.1026795E+00
         21   -1    0    0  502  501  0.00000000000E+00  0.00000000000E+00  0.37489462727E+02  0.37489462727E+02  0.00000000000E+00 0. -1.
         21   -1    0    0  501  502 -0.00000000000E+00 -0.00000000000E+00 -0.13691799681E+04  0.13691799681E+04  0.00000000000E+00 0. -1.
      99926    2    1    2    0    0  0.71054273576E-14  0.71054273576E-14 -0.13316905054E+04  0.14066694309E+04  0.45312171161E+03 0.  0.
      99925    2    3    3    0    0 -0.37667673749E+02 -0.39717937814E+02 -0.53782751376E+03  0.60114952060E+03  0.26291813046E+03 0.  0.
         25    1    4    4    0    0 -0.45100521006E+02  0.97722030898E+01 -0.28577242922E+03  0.31534575049E+03  0.12509000000E+03 0.  0.
         25    1    3    3    0    0  0.37667673749E+02  0.39717937814E+02 -0.79386299165E+03  0.80551991027E+03  0.12509000000E+03 0.  0.
         25    1    4    4    0    0  0.74328472567E+01 -0.49490140904E+02 -0.25205508454E+03  0.28580377010E+03  0.12509000000E+03 0.  0.
<mgrwt>
<rscale>  2 0.45312171E+03</rscale>
<asrwt>0</asrwt>
<pdfrwt beam="1">  1       21 0.55131569E-02 0.45312171E+03</pdfrwt>
<pdfrwt beam="2">  1       21 0.20134997E+00 0.45312171E+03</pdfrwt>
<totfact> 0.26540092E+04</totfact>
</mgrwt>
</event>
<event>
 7    0  0.4709932E-002  0.4402609E+03  0.7546771E-02  0.1030667E+00
         21   -1    0    0  502  501  0.00000000000E+00  0.00000000000E+00  0.46248727848E+02  0.46248727848E+02  0.00000000000E+00 0.  1.
         21   -1    0    0  501  502 -0.00000000000E+00 -0.00000000000E+00 -0.10477566100E+04  0.10477566100E+04  0.00000000000E+00 0.  1.
      99926    2    1    2    0    0  0.00000000000E+00 -0.17763568394E-14 -0.10015078821E+04  0.10940053378E+04  0.44026087859E+03 0.  0.
      99925    2    3    3    0    0  0.56052812381E+02  0.13771243686E+02 -0.83800198587E+03  0.88019876370E+03  0.26300374590E+03 0.  0.
         25    1    3    3    0    0 -0.56052812381E+02 -0.13771243686E+02 -0.16350589624E+03  0.21380657412E+03  0.12509000000E+03 0.  0.
         25    1    4    4    0    0 -0.77564544966E+01  0.99203214175E+01 -0.46239582084E+03  0.47918261508E+03  0.12509000000E+03 0.  0.
         25    1    4    4    0    0  0.63809266878E+02  0.38509222689E+01 -0.37560616504E+03  0.40101614862E+03  0.12509000000E+03 0.  0.
<mgrwt>
<rscale>  2 0.44026088E+03</rscale>
<asrwt>0</asrwt>
<pdfrwt beam="1">  1       21 0.68012839E-02 0.44026088E+03</pdfrwt>
<pdfrwt beam="2">  1       21 0.15408185E+00 0.44026088E+03</pdfrwt>
<totfact> 0.40121481E+04</totfact>
</mgrwt>
</event>
<event>
 7    0  0.4709932E-002  0.4727908E+03  0.7546771E-02  0.1021135E+00
         21   -1    0    0  502  501  0.00000000000E+00  0.00000000000E+00  0.96192453152E+02  0.96192453152E+02  0.00000000000E+00 0. -1.
         21   -1    0    0  501  502 -0.00000000000E+00 -0.00000000000E+00 -0.58094777780E+03  0.58094777780E+03  0.00000000000E+00 0. -1.
      99926    2    1    2    0    0  0.00000000000E+00  0.00000000000E+00 -0.48475532464E+03  0.67714023095E+03  0.47279082859E+03 0.  0.
      99925    2    3    3    0    0  0.16725382011E+02  0.77491442248E+02 -0.44658104345E+03  0.52420414668E+03  0.26281304574E+03 0.  0.
         25    1    4    4    0    0 -0.10729919002E+02  0.27488114989E+01 -0.18694158671E+03  0.22520513331E+03  0.12509000000E+03 0.  0.
         25    1    3    3    0    0 -0.16725382011E+02 -0.77491442248E+02 -0.38174281197E+02  0.15293608426E+03  0.12509000000E+03 0.  0.
         25    1    4    4    0    0  0.27455301013E+02  0.74742630749E+02 -0.25963945674E+03  0.29899901338E+03  0.12509000000E+03 0.  0.
<mgrwt>
<rscale>  2 0.47279083E+03</rscale>
<asrwt>0</asrwt>
<pdfrwt beam="1">  1       21 0.14145948E-01 0.47279083E+03</pdfrwt>
<pdfrwt beam="2">  1       21 0.85433501E-01 0.47279083E+03</pdfrwt>
<totfact> 0.47188349E+04</totfact>
</mgrwt>
</event>
<event>
 7    0  0.4709932E-002  0.4548188E+03  0.7546771E-02  0.1026295E+00
         21   -1    0    0  502  501  0.00000000000E+00  0.00000000000E+00  0.27491966880E+04  0.27491966880E+04  0.00000000000E+00 0. -1.
         21   -1    0    0  501  502 -0.00000000000E+00 -0.00000000000E+00 -0.18810959605E+02  0.18810959605E+02  0.00000000000E+00 0. -1.
      99926    2    1    2    0    0  0.00000000000E+00  0.71054273576E-14  0.27303857284E+04  0.27680076476E+04  0.45481876762E+03 0.  0.
      99925    2    3    3    0    0  0.32490823086E+02 -0.52082261180E+02  0.11414017276E+04  0.11729258697E+04  0.26303797518E+03 0.  0.
         25    1    3    3    0    0 -0.32490823086E+02  0.52082261180E+02  0.15889840008E+04  0.15950817780E+04  0.12509000000E+03 0.  0.
         25    1    4    4    0    0 -0.20939914313E+02 -0.94513056089E+01  0.56917794179E+03  0.58321423569E+03  0.12509000000E+03 0.  0.
         25    1    4    4    0    0  0.53430737399E+02 -0.42630955571E+02  0.57222378583E+03  0.58971163397E+03  0.12509000000E+03 0.  0.
<mgrwt>
<rscale>  2 0.45481877E+03</rscale>
<asrwt>0</asrwt>
<pdfrwt beam="1">  1       21 0.40429335E+00 0.45481877E+03</pdfrwt>
<pdfrwt beam="2">  1       21 0.27663195E-02 0.45481877E+03</pdfrwt>
<totfact> 0.47668608E+03</totfact>
</mgrwt>
</event>
<event>
 7    0  0.4709932E-002  0.4561522E+03  0.7546771E-02  0.1025903E+00
         21   -1    0    0  502  501  0.00000000000E+00  0.00000000000E+00  0.34122098221E+03  0.34122098221E+03  0.00000000000E+00 0. -1.
         21   -1    0    0  501  502 -0.00000000000E+00 -0.00000000000E+00 -0.15244871338E+03  0.15244871338E+03  0.00000000000E+00 0. -1.
      99926    2    1    2    0    0  0.00000000000E+00  0.00000000000E+00  0.18877226883E+03  0.49366969560E+03  0.45615216636E+03 0.  0.
      99925    2    3    3    0    0 -0.54801001695E+02 -0.10030878843E+03  0.11768611160E+03  0.30991509655E+03  0.26293030137E+03 0.  0.
         25    1    4    4    0    0 -0.55088853026E+02 -0.78480858156E+02  0.83734072834E+02  0.17847389131E+03  0.12509000000E+03 0.  0.
         25    1    4    4    0    0  0.28785133141E+00 -0.21827930273E+02  0.33952038767E+02  0.13144120524E+03  0.12509000000E+03 0.  0.
         25    1    3    3    0    0  0.54801001695E+02  0.10030878843E+03  0.71086157228E+02  0.18375459905E+03  0.12509000000E+03 0.  0.
<mgrwt>
<rscale>  2 0.45615217E+03</rscale>
<asrwt>0</asrwt>
<pdfrwt beam="1">  1       21 0.50179556E-01 0.45615217E+03</pdfrwt>
<pdfrwt beam="2">  1       21 0.22418928E-01 0.45615217E+03</pdfrwt>
<totfact> 0.65120036E+04</totfact>
</mgrwt>
</event>
<event>
 7    0  0.4709932E-002  0.4340333E+03  0.7546771E-02  0.1032593E+00
         21   -1    0    0  502  501  0.00000000000E+00  0.00000000000E+00  0.52461639707E+02  0.52461639707E+02  0.00000000000E+00 0. -1.
         21   -1    0    0  501  502 -0.00000000000E+00 -0.00000000000E+00 -0.89772680446E+03  0.89772680446E+03  0.00000000000E+00 0. -1.
      99926    2    1    2    0    0  0.00000000000E+00  0.00000000000E+00 -0.84526516475E+03  0.95018844417E+03  0.43403327140E+03 0.  0.
      99925    2    3    3    0    0 -0.86681500195E+02  0.30951977869E+02 -0.53615649219E+03  0.60425870135E+03  0.26304578809E+03 0.  0.
         25    1    4    4    0    0 -0.82600339103E+02  0.23619815367E+01 -0.27296382829E+03  0.31142439634E+03  0.12509000000E+03 0.  0.
         25    1    3    3    0    0  0.86681500195E+02 -0.30951977869E+02 -0.30910867257E+03  0.34592974282E+03  0.12509000000E+03 0.  0.
         25    1    4    4    0    0 -0.40811610922E+01  0.28589996333E+02 -0.26319266389E+03  0.29283430501E+03  0.12509000000E+03 0.  0.
<mgrwt>
<rscale>  2 0.43403327E+03</rscale>
<asrwt>0</asrwt>
<pdfrwt beam="1">  1       21 0.77149475E-02 0.43403327E+03</pdfrwt>
<pdfrwt beam="2">  1       21 0.13201864E+00 0.43403327E+03</pdfrwt>
<totfact> 0.48629907E+04</totfact>
</mgrwt>
</event>
<event>
 7    0  0.4709932E-002  0.4430761E+03  0.7546771E-02  0.1029807E+00
         21   -1    0    0  502  501  0.00000000000E+00  0.00000000000E+00  0.40035923140E+02  0.40035923140E+02  0.00000000000E+00 0. -1.
         21   -1    0    0  501  502 -0.00000000000E+00 -0.00000000000E+00 -0.12258768365E+04  0.12258768365E+04  0.00000000000E+00 0. -1.
      99926    2    1    2    0    0  0.00000000000E+00  0.00000000000E+00 -0.11858409134E+04  0.12659127597E+04  0.44307611448E+03 0.  0.
      99925    2    3    3    0    0  0.36668378248E+02 -0.20458527175E+02 -0.49071558953E+03  0.55837488417E+03  0.26309237953E+03 0.  0.
         25    1    4    4    0    0 -0.87957405332E+01  0.11457899925E+02 -0.18951102249E+03  0.22753150171E+03  0.12509000000E+03 0.  0.
         25    1    4    4    0    0  0.45464118781E+02 -0.31916427100E+02 -0.30120456704E+03  0.33084338246E+03  0.12509000000E+03 0.  0.
         25    1    3    3    0    0 -0.36668378248E+02  0.20458527175E+02 -0.69512532385E+03  0.70753787549E+03  0.12509000000E+03 0.  0.
<mgrwt>
<rscale>  2 0.44307611E+03</rscale>
<asrwt>0</asrwt>
<pdfrwt beam="1">  1       21 0.58876361E-02 0.44307611E+03</pdfrwt>
<pdfrwt beam="2">  1       21 0.18027600E+00 0.44307611E+03</pdfrwt>
<totfact> 0.33085399E+04</totfact>
</mgrwt>
</event>
<event>
 7    0  0.4709932E-002  0.4556819E+03  0.7546771E-02  0.1026041E+00
         21   -1    0    0  502  501  0.00000000000E+00  0.00000000000E+00  0.35969639120E+03  0.35969639120E+03  0.00000000000E+00 0.  1.
         21   -1    0    0  501  502 -0.00000000000E+00 -0.00000000000E+00 -0.14432031674E+03  0.14432031674E+03  0.00000000000E+00 0.  1.
      99926    2    1    2    0    0  0.00000000000E+00  0.00000000000E+00  0.21537607446E+03  0.50401670794E+03  0.45568189391E+03 0.  0.
      99925    2    3    3    0    0 -0.98876008682E+02  0.53999278211E+02  0.15262307899E+03  0.32435637932E+03  0.26309859260E+03 0.  0.
         25    1    4    4    0    0 -0.78436511783E+02  0.32198476182E+02  0.11637840143E+03  0.19073664742E+03  0.12509000000E+03 0.  0.
         25    1    3    3    0    0  0.98876008682E+02 -0.53999278211E+02  0.62752995472E+02  0.17966032862E+03  0.12509000000E+03 0.  0.
         25    1    4    4    0    0 -0.20439496899E+02  0.21800802029E+02  0.36244677562E+02  0.13361973190E+03  0.12509000000E+03 0.  0.
<mgrwt>
<rscale>  2 0.45568189E+03</rscale>
<asrwt>0</asrwt>
<pdfrwt beam="1">  1       21 0.52896528E-01 0.45568189E+03</pdfrwt>
<pdfrwt beam="2">  1       21 0.21223576E-01 0.45568189E+03</pdfrwt>
<totfact> 0.64638818E+04</totfact>
</mgrwt>
</event>
<event>
 7    0  0.4709932E-002  0.4560560E+03  0.7546771E-02  0.1025931E+00
         21   -1    0    0  502  501  0.00000000000E+00  0.00000000000E+00  0.78133037184E+02  0.78133037184E+02  0.00000000000E+00 0.  1.
         21   -1    0    0  501  502 -0.00000000000E+00 -0.00000000000E+00 -0.66549003983E+03  0.66549003983E+03  0.00000000000E+00 0.  1.
      99926    2    1    2    0    0  0.00000000000E+00  0.00000000000E+00 -0.58735700265E+03  0.74362307702E+03  0.45605595283E+03 0.  0.
      99925    2    3    3    0    0 -0.84761736517E+02 -0.76413039896E+02 -0.36879647388E+03  0.46714574073E+03  0.26304144026E+03 0.  0.
         25    1    4    4    0    0 -0.46116841880E+02 -0.30431663444E+02 -0.24784657815E+03  0.28306939722E+03  0.12509000000E+03 0.  0.
         25    1    3    3    0    0  0.84761736517E+02  0.76413039896E+02 -0.21856052877E+03  0.27647733629E+03  0.12509000000E+03 0.  0.
         25    1    4    4    0    0 -0.38644894637E+02 -0.45981376451E+02 -0.12094989573E+03  0.18407634351E+03  0.12509000000E+03 0.  0.
<mgrwt>
<rscale>  2 0.45605595E+03</rscale>
<asrwt>0</asrwt>
<pdfrwt beam="1">  1       21 0.11490153E-01 0.45605595E+03</pdfrwt>
<pdfrwt beam="2">  1       21 0.97866176E-01 0.45605595E+03</pdfrwt>
<totfact> 0.50179850E+04</totfact>
</mgrwt>
</event>
<event>
 7    0  0.4709932E-002  0.4537549E+03  0.7546771E-02  0.1026608E+00
         21   -1    0    0  502  501  0.00000000000E+00  0.00000000000E+00  0.21345486696E+03  0.21345486696E+03  0.00000000000E+00 0.  1.
         21   -1    0    0  501  502 -0.00000000000E+00 -0.00000000000E+00 -0.24114408539E+03  0.24114408539E+03  0.00000000000E+00 0.  1.
      99926    2    1    2    0    0  0.00000000000E+00 -0.14210854715E-13 -0.27689218431E+02  0.45459895234E+03  0.45375490593E+03 0.  0.
      99925    2    3    3    0    0  0.42971910073E+02  0.95568522110E+02 -0.57215582798E+02  0.28876999900E+03  0.26293452024E+03 0.  0.
         25    1    4    4    0    0  0.46614433058E+02  0.20836704514E+02 -0.96802787063E+01  0.13545585820E+03  0.12509000000E+03 0.  0.
         25    1    4    4    0    0 -0.36425229854E+01  0.74731817595E+02 -0.47535304092E+02  0.15331414080E+03  0.12509000000E+03 0.  0.
         25    1    3    3    0    0 -0.42971910073E+02 -0.95568522110E+02  0.29526364367E+02  0.16582895334E+03  0.12509000000E+03 0.  0.
<mgrwt>
<rscale>  2 0.45375491E+03</rscale>
<asrwt>0</asrwt>
<pdfrwt beam="1">  1       21 0.31390422E-01 0.45375491E+03</pdfrwt>
<pdfrwt beam="2">  1       21 0.35462365E-01 0.45375491E+03</pdfrwt>
<totfact> 0.69260726E+04</totfact>
</mgrwt>
</event>
<event>
 7    0  0.4709932E-002  0.4532707E+03  0.7546771E-02  0.1026751E+00
         21   -1    0    0  502  501  0.00000000000E+00  0.00000000000E+00  0.88661243278E+03  0.88661243278E+03  0.00000000000E+00 0.  1.
         21   -1    0    0  501  502 -0.00000000000E+00 -0.00000000000E+00 -0.57932395558E+02  0.57932395558E+02  0.00000000000E+00 0.  1.
      99926    2    1    2    0    0  0.00000000000E+00  0.14210854715E-13  0.82868003722E+03  0.94454482834E+03  0.45327070129E+03 0.  0.
      99925    2    3    3    0    0  0.59651674473E+01  0.76801898935E+02  0.69030202788E+03  0.74272784077E+03  0.26304684156E+03 0.  0.
         25    1    4    4    0    0  0.14729064003E+02  0.49696746074E+02  0.45504809046E+03  0.47476624209E+03  0.12509000000E+03 0.  0.
         25    1    4    4    0    0 -0.87638965553E+01  0.27105152860E+02  0.23525393743E+03  0.26796159868E+03  0.12509000000E+03 0.  0.
         25    1    3    3    0    0 -0.59651674473E+01 -0.76801898935E+02  0.13837800934E+03  0.20181698757E+03  0.12509000000E+03 0.  0.
<mgrwt>
<rscale>  2 0.45327070E+03</rscale>
<asrwt>0</asrwt>
<pdfrwt beam="1">  1       21 0.13038417E+00 0.45327070E+03</pdfrwt>
<pdfrwt beam="2">  1       21 0.85194704E-02 0.45327070E+03</pdfrwt>
<totfact> 0.41926619E+04</totfact>
</mgrwt>
</event>
<event>
 7    0  0.4709932E-002  0.4526441E+03  0.7546771E-02  0.1026936E+00
         21   -1    0    0  502  501  0.00000000000E+00  0.00000000000E+00  0.12859073879E+03  0.12859073879E+03  0.00000000000E+00 0. -1.
         21   -1    0    0  501  502 -0.00000000000E+00 -0.00000000000E+00 -0.39833102203E+03  0.39833102203E+03  0.00000000000E+00 0. -1.
      99926    2    1    2    0    0  0.00000000000E+00  0.00000000000E+00 -0.26974028323E+03  0.52692176082E+03  0.45264414459E+03 0.  0.
      99925    2    3    3    0    0  0.67285931373E+02  0.83751974980E+02 -0.13821771296E+03  0.31600119647E+03  0.26307951293E+03 0.  0.
         25    1    3    3    0    0 -0.67285931373E+02 -0.83751974980E+02 -0.13152257027E+03  0.21092056435E+03  0.12509000000E+03 0.  0.
         25    1    4    4    0    0  0.40210175172E+02  0.82065407147E+02 -0.60855575827E+02  0.16644067546E+03  0.12509000000E+03 0.  0.
         25    1    4    4    0    0  0.27075756201E+02  0.16865678323E+01 -0.77362137131E+02  0.14956052102E+03  0.12509000000E+03 0.  0.
<mgrwt>
<rscale>  2 0.45264414E+03</rscale>
<asrwt>0</asrwt>
<pdfrwt beam="1">  1       21 0.18910403E-01 0.45264414E+03</pdfrwt>
<pdfrwt beam="2">  1       21 0.58578091E-01 0.45264414E+03</pdfrwt>
<totfact> 0.64613554E+04</totfact>
</mgrwt>
</event>
<event>
 7    0  0.4709932E-002  0.4594225E+03  0.7546771E-02  0.1024949E+00
         21   -1    0    0  502  501  0.00000000000E+00  0.00000000000E+00  0.77654927771E+03  0.77654927771E+03  0.00000000000E+00 0. -1.
         21   -1    0    0  501  502 -0.00000000000E+00 -0.00000000000E+00 -0.67950957672E+02  0.67950957672E+02  0.00000000000E+00 0. -1.
      99926    2    1    2    0    0  0.00000000000E+00  0.00000000000E+00  0.70859832004E+03  0.84450023538E+03  0.45942253797E+03 0.  0.
      99925    2    3    3    0    0 -0.20948918293E+02 -0.17513277474E+02  0.65346661801E+03  0.70509942931E+03  0.26344071874E+03 0.  0.
         25    1    3    3    0    0  0.20948918293E+02  0.17513277474E+02  0.55131702026E+02  0.13940080607E+03  0.12509000000E+03 0.  0.
         25    1    4    4    0    0 -0.50808815378E+02 -0.19225200272E+01  0.31736652256E+03  0.34489744786E+03  0.12509000000E+03 0.  0.
         25    1    4    4    0    0  0.29859897085E+02 -0.15590757447E+02  0.33610009545E+03  0.36020198144E+03  0.12509000000E+03 0.  0.
<mgrwt>
<rscale>  2 0.45942254E+03</rscale>
<asrwt>0</asrwt>
<pdfrwt beam="1">  1       21 0.11419842E+00 0.45942254E+03</pdfrwt>
<pdfrwt beam="2">  1       21 0.99927884E-02 0.45942254E+03</pdfrwt>
<totfact> 0.44135094E+04</totfact>
</mgrwt>
</event>
<event>
 6    0  0.4709932E-002  0.4502391E+03  0.7546771E-02  0.1027651E+00
         21   -1    0    0  502  501  0.00000000000E+00  0.00000000000E+00  0.21965024492E+03  0.21965024492E+03  0.00000000000E+00 0.  1.
         21   -1    0    0  501  502 -0.00000000000E+00 -0.00000000000E+00 -0.23072503107E+03  0.23072503107E+03  0.00000000000E+00 0.  1.
      99926    2    1    2    0    0  0.00000000000E+00  0.00000000000E+00 -0.11074786149E+02  0.45037527600E+03  0.45023909020E+03 0.  0.
         25    1    3    3    0    0  0.64421561088E+02  0.13641199952E+02  0.36311629980E+02  0.14595294598E+03  0.12509000000E+03 0.  0.
         25    1    3    3    0    0 -0.91983209946E+02  0.38160963008E+02 -0.52671186245E+01  0.15997631277E+03  0.12509000000E+03 0.  0.
         25    1    3    3    0    0  0.27561648857E+02 -0.51802162960E+02 -0.42119297505E+02  0.14444601724E+03  0.12509000000E+03 0.  0.
<mgrwt>
<rscale>  2 0.45023909E+03</rscale>
<asrwt>0</asrwt>
<pdfrwt beam="1">  1       21 0.32301507E-01 0.45023909E+03</pdfrwt>
<pdfrwt beam="2">  1       21 0.33930151E-01 0.45023909E+03</pdfrwt>
<totfact> 0.71566128E+04</totfact>
</mgrwt>
</event>
<event>
 7    0  0.4709932E-002  0.4505253E+03  0.7546771E-02  0.1027566E+00
         21   -1    0    0  502  501  0.00000000000E+00  0.00000000000E+00  0.11329726041E+04  0.11329726041E+04  0.00000000000E+00 0.  1.
         21   -1    0    0  501  502 -0.00000000000E+00 -0.00000000000E+00 -0.44787714059E+02  0.44787714059E+02  0.00000000000E+00 0.  1.
      99926    2    1    2    0    0  0.00000000000E+00  0.00000000000E+00  0.10881848901E+04  0.11777603182E+04  0.45052526246E+03 0.  0.
      99925    2    3    3    0    0 -0.21396912666E+02 -0.87200502443E+02  0.52624274368E+03  0.59510412498E+03  0.26297478737E+03 0.  0.
         25    1    3    3    0    0  0.21396912666E+02  0.87200502443E+02  0.56194214638E+03  0.58265619320E+03  0.12509000000E+03 0.  0.
         25    1    4    4    0    0 -0.26922103971E+00 -0.71571692629E+02  0.33931857868E+03  0.36865591763E+03  0.12509000000E+03 0.  0.
         25    1    4    4    0    0 -0.21127691626E+02 -0.15628809814E+02  0.18692416500E+03  0.22644820735E+03  0.12509000000E+03 0.  0.
<mgrwt>
<rscale>  2 0.45052526E+03</rscale>
<asrwt>0</asrwt>
<pdfrwt beam="1">  1       21 0.16661360E+00 0.45052526E+03</pdfrwt>
<pdfrwt beam="2">  1       21 0.65864293E-02 0.45052526E+03</pdfrwt>
<totfact> 0.34040333E+04</totfact>
</mgrwt>
</event>
<event>
 7    0  0.4709932E-002  0.4560476E+03  0.7546771E-02  0.1025934E+00
         21   -1    0    0  502  501  0.00000000000E+00  0.00000000000E+00  0.30670789053E+03  0.30670789053E+03  0.00000000000E+00 0. -1.
         21   -1    0    0  501  502 -0.00000000000E+00 -0.00000000000E+00 -0.16952562715E+03  0.16952562715E+03  0.00000000000E+00 0. -1.
      99926    2    1    2    0    0 -0.35527136788E-14  0.00000000000E+00  0.13718226338E+03  0.47623351769E+03  0.45604757426E+03 0.  0.
      99925    2    3    3    0    0 -0.18807019877E+02 -0.87066635262E+02  0.16081195762E+03  0.32086243440E+03  0.26297892144E+03 0.  0.
         25    1    4    4    0    0  0.28159628301E+02 -0.32333601045E+02  0.90680002506E+02  0.16033963134E+03  0.12509000000E+03 0.  0.
         25    1    3    3    0    0  0.18807019877E+02  0.87066635262E+02 -0.23629694239E+02  0.15537108329E+03  0.12509000000E+03 0.  0.
         25    1    4    4    0    0 -0.46966648178E+02 -0.54733034216E+02  0.70131955111E+02  0.16052280306E+03  0.12509000000E+03 0.  0.
<mgrwt>
<rscale>  2 0.45604757E+03</rscale>
<asrwt>0</asrwt>
<pdfrwt beam="1">  1       21 0.45104102E-01 0.45604757E+03</pdfrwt>
<pdfrwt beam="2">  1       21 0.24930239E-01 0.45604757E+03</pdfrwt>
<totfact> 0.66421390E+04</totfact>
</mgrwt>
</event>
<event>
 7    0  0.4709932E-002  0.4559239E+03  0.7546771E-02  0.1025970E+00
         21   -1    0    0  502  501  0.00000000000E+00  0.00000000000E+00  0.16219766845E+03  0.16219766845E+03  0.00000000000E+00 0.  1.
         21   -1    0    0  501  502 -0.00000000000E+00 -0.00000000000E+00 -0.32039086761E+03  0.32039086761E+03  0.00000000000E+00 0.  1.
      99926    2    1    2    0    0  0.00000000000E+00  0.71054273576E-14 -0.15819319916E+03  0.48258853606E+03  0.45592390470E+03 0.  0.
      99925    2    3    3    0    0 -0.87826217357E+02  0.60523012630E+02 -0.54967260346E+02  0.28847624367E+03  0.26233692828E+03 0.  0.
         25    1    3    3    0    0  0.87826217357E+02 -0.60523012630E+02 -0.10322593881E+03  0.19411229239E+03  0.12509000000E+03 0.  0.
         25    1    4    4    0    0 -0.43049533831E+02  0.70495907541E+02 -0.31892358130E+02  0.15325653640E+03  0.12509000000E+03 0.  0.
         25    1    4    4    0    0 -0.44776683526E+02 -0.99728949112E+01 -0.23074902216E+02  0.13521970726E+03  0.12509000000E+03 0.  0.
<mgrwt>
<rscale>  2 0.45592390E+03</rscale>
<asrwt>0</asrwt>
<pdfrwt beam="1">  1       21 0.23852599E-01 0.45592390E+03</pdfrwt>
<pdfrwt beam="2">  1       21 0.47116303E-01 0.45592390E+03</pdfrwt>
<totfact> 0.66026593E+04</totfact>
</mgrwt>
</event>
<event>
 7    0  0.4709932E-002  0.4542671E+03  0.7546771E-02  0.1026457E+00
         21   -1    0    0  502  501  0.00000000000E+00  0.00000000000E+00  0.11429274520E+04  0.11429274520E+04  0.00000000000E+00 0.  1.
         21   -1    0    0  501  502 -0.00000000000E+00 -0.00000000000E+00 -0.45138160662E+02  0.45138160662E+02  0.00000000000E+00 0.  1.
      99926    2    1    2    0    0  0.00000000000E+00  0.00000000000E+00  0.10977892913E+04  0.11880656127E+04  0.45426707102E+03 0.  0.
      99925    2    3    3    0    0 -0.79980128108E+02  0.67104996915E+02  0.80062893881E+03  0.84916786301E+03  0.26301988596E+03 0.  0.
         25    1    4    4    0    0  0.18626251210E+01  0.35782857973E+02  0.38122470022E+03  0.40281964010E+03  0.12509000000E+03 0.  0.
         25    1    4    4    0    0 -0.81842753229E+02  0.31322138942E+02  0.41940423859E+03  0.44634822291E+03  0.12509000000E+03 0.  0.
         25    1    3    3    0    0  0.79980128108E+02 -0.67104996915E+02  0.29716035252E+03  0.33889774964E+03  0.12509000000E+03 0.  0.
<mgrwt>
<rscale>  2 0.45426707E+03</rscale>
<asrwt>0</asrwt>
<pdfrwt beam="1">  1       21 0.16807755E+00 0.45426707E+03</pdfrwt>
<pdfrwt beam="2">  1       21 0.66379656E-02 0.45426707E+03</pdfrwt>
<totfact> 0.32722959E+04</totfact>
</mgrwt>
</event>
<event>
 7    0  0.4709932E-002  0.4129527E+03  0.7546771E-02  0.1039385E+00
         21   -1    0    0  502  501  0.00000000000E+00  0.00000000000E+00  0.58140632672E+02  0.58140632672E+02  0.00000000000E+00 0.  1.
         21   -1    0    0  501  502 -0.00000000000E+00 -0.00000000000E+00 -0.73326469589E+03  0.73326469589E+03  0.00000000000E+00 0.  1.
      99926    2    1    2    0    0  0.00000000000E+00  0.00000000000E+00 -0.67512406321E+03  0.79140532856E+03  0.41295265266E+03 0.  0.
      99925    2    3    3    0    0 -0.63458424619E+02  0.19234822753E+02 -0.45182404323E+03  0.52700533407E+03  0.26304506465E+03 0.  0.
         25    1    3    3    0    0  0.63458424619E+02 -0.19234822753E+02 -0.22330001999E+03  0.26439999449E+03  0.12509000000E+03 0.  0.
         25    1    4    4    0    0  0.12186220504E-01 -0.11494573909E+02 -0.17871624061E+03  0.21844708315E+03  0.12509000000E+03 0.  0.
         25    1    4    4    0    0 -0.63470610840E+02  0.30729396662E+02 -0.27310780261E+03  0.30855825092E+03  0.12509000000E+03 0.  0.
<mgrwt>
<rscale>  2 0.41295265E+03</rscale>
<asrwt>0</asrwt>
<pdfrwt beam="1">  1       21 0.85500924E-02 0.41295265E+03</pdfrwt>
<pdfrwt beam="2">  1       21 0.10783305E+00 0.41295265E+03</pdfrwt>
<totfact> 0.67994782E+04</totfact>
</mgrwt>
</event>
<event>
 7    0  0.4709932E-002  0.4526470E+03  0.7546771E-02  0.1026936E+00
         21   -1    0    0  502  501  0.00000000000E+00  0.00000000000E+00  0.53284949708E+03  0.53284949708E+03  0.00000000000E+00 0.  1.
         21   -1    0    0  501  502 -0.00000000000E+00 -0.00000000000E+00 -0.96129070605E+02  0.96129070605E+02  0.00000000000E+00 0.  1.
      99926    2    1    2    0    0  0.00000000000E+00  0.00000000000E+00  0.43672042648E+03  0.62897856768E+03  0.45264700121E+03 0.  0.
      99925    2    3    3    0    0 -0.55982403987E+02 -0.95699037519E+02  0.28204389223E+03  0.40124039854E+03  0.26296913306E+03 0.  0.
         25    1    4    4    0    0 -0.48788388448E+02 -0.58595281419E+02  0.10090109143E+03  0.17788269225E+03  0.12509000000E+03 0.  0.
         25    1    3    3    0    0  0.55982403987E+02  0.95699037519E+02  0.15467653425E+03  0.22773816914E+03  0.12509000000E+03 0.  0.
         25    1    4    4    0    0 -0.71940155388E+01 -0.37103756100E+02  0.18114280080E+03  0.22335770629E+03  0.12509000000E+03 0.  0.
<mgrwt>
<rscale>  2 0.45264700E+03</rscale>
<asrwt>0</asrwt>
<pdfrwt beam="1">  1       21 0.78360219E-01 0.45264700E+03</pdfrwt>
<pdfrwt beam="2">  1       21 0.14136628E-01 0.45264700E+03</pdfrwt>
<totfact> 0.57998938E+04</totfact>
</mgrwt>
</event>
<event>
 7    0  0.4709932E-002  0.4572445E+03  0.7546771E-02  0.1025583E+00
         21   -1    0    0  502  501  0.00000000000E+00  0.00000000000E+00  0.14853965568E+03  0.14853965568E+03  0.00000000000E+00 0. -1.
         21   -1    0    0  501  502 -0.00000000000E+00 -0.00000000000E+00 -0.35187999526E+03  0.35187999526E+03  0.00000000000E+00 0. -1.
      99926    2    1    2    0    0  0.00000000000E+00  0.00000000000E+00 -0.20334033958E+03  0.50041965093E+03  0.45724450061E+03 0.  0.
      99925    2    3    3    0    0  0.64068879702E+02 -0.55991393261E+02 -0.21282921557E+03  0.34883665607E+03  0.26296554936E+03 0.  0.
         25    1    3    3    0    0 -0.64068879702E+02  0.55991393261E+02  0.94888759884E+01  0.15158299487E+03  0.12509000000E+03 0.  0.
         25    1    4    4    0    0  0.54274007270E+02 -0.18654194562E+02 -0.67661373824E+02  0.15335976150E+03  0.12509000000E+03 0.  0.
         25    1    4    4    0    0  0.97948724321E+01 -0.37337198700E+02 -0.14516784174E+03  0.19547689457E+03  0.12509000000E+03 0.  0.
<mgrwt>
<rscale>  2 0.45724450E+03</rscale>
<asrwt>0</asrwt>
<pdfrwt beam="1">  1       21 0.21844067E-01 0.45724450E+03</pdfrwt>
<pdfrwt beam="2">  1       21 0.51747058E-01 0.45724450E+03</pdfrwt>
<totfact> 0.64091622E+04</totfact>
</mgrwt>
</event>
<event>
 7    0  0.4709932E-002  0.4560297E+03  0.7546771E-02  0.1025939E+00
         21   -1    0    0  502  501  0.00000000000E+00  0.00000000000E+00  0.16825848087E+03  0.16825848087E+03  0.00000000000E+00 0. -1.
         21   -1    0    0  501  502 -0.00000000000E+00 -0.00000000000E+00 -0.30899342806E+03  0.30899342806E+03  0.00000000000E+00 0. -1.
      99926    2    1    2    0    0  0.00000000000E+00  0.00000000000E+00 -0.14073494718E+03  0.47725190893E+03  0.45602966923E+03 0.  0.
      99925    2    3    3    0    0 -0.84388829458E+02  0.72931807117E+02 -0.71241605374E+02  0.29582050128E+03  0.26456356441E+03 0.  0.
         25    1    4    4    0    0 -0.39289194749E+02  0.39293823725E+02  0.85432428425E+01  0.13714277416E+03  0.12509000000E+03 0.  0.
         25    1    3    3    0    0  0.84388829458E+02 -0.72931807117E+02 -0.69493341811E+02  0.18143140765E+03  0.12509000000E+03 0.  0.
         25    1    4    4    0    0 -0.45099634709E+02  0.33637983392E+02 -0.79784848216E+02  0.15867772712E+03  0.12509000000E+03 0.  0.
<mgrwt>
<rscale>  2 0.45602967E+03</rscale>
<asrwt>0</asrwt>
<pdfrwt beam="1">  1       21 0.24743894E-01 0.45602967E+03</pdfrwt>
<pdfrwt beam="2">  1       21 0.45440210E-01 0.45602967E+03</pdfrwt>
<totfact> 0.66356765E+04</totfact>
</mgrwt>
</event>
<event>
 7    0  0.4709932E-002  0.4505074E+03  0.7546771E-02  0.1027571E+00
         21   -1    0    0  502  501  0.00000000000E+00  0.00000000000E+00  0.11055339829E+03  0.11055339829E+03  0.00000000000E+00 0.  1.
         21   -1    0    0  501  502 -0.00000000000E+00 -0.00000000000E+00 -0.45895681367E+03  0.45895681367E+03  0.00000000000E+00 0.  1.
      99926    2    1    2    0    0 -0.71054273576E-14  0.14210854715E-13 -0.34840341538E+03  0.56951021196E+03  0.45050742688E+03 0.  0.
      99925    2    3    3    0    0 -0.53509381502E+02  0.95308701557E+02 -0.22920788169E+03  0.36505462790E+03  0.26226251318E+03 0.  0.
         25    1    3    3    0    0  0.53509381502E+02 -0.95308701557E+02 -0.11919553369E+03  0.20445558406E+03  0.12509000000E+03 0.  0.
         25    1    4    4    0    0 -0.13237924344E+02  0.37193926122E+02 -0.15590974555E+03  0.20374981629E+03  0.12509000000E+03 0.  0.
         25    1    4    4    0    0 -0.40271457158E+02  0.58114775435E+02 -0.73298136141E+02  0.16130481161E+03  0.12509000000E+03 0.  0.
<mgrwt>
<rscale>  2 0.45050743E+03</rscale>
<asrwt>0</asrwt>
<pdfrwt beam="1">  1       21 0.16257852E-01 0.45050743E+03</pdfrwt>
<pdfrwt beam="2">  1       21 0.67493651E-01 0.45050743E+03</pdfrwt>
<totfact> 0.62796766E+04</totfact>
</mgrwt>
</event>
<event>
 7    0  0.4709932E-002  0.4483923E+03  0.7546771E-02  0.1028203E+00
         21   -1    0    0  502  501  0.00000000000E+00  0.00000000000E+00  0.22726999415E+04  0.22726999415E+04  0.00000000000E+00 0.  1.
         21   -1    0    0  501  502 -0.00000000000E+00 -0.00000000000E+00 -0.22116386248E+02  0.22116386248E+02  0.00000000000E+00 0.  1.
      99926    2    1    2    0    0 -0.71054273576E-14  0.71054273576E-14  0.22505835553E+04  0.22948163278E+04  0.44839228241E+03 0.  0.
      99925    2    3    3    0    0  0.40871849695E+02 -0.58600041650E+02  0.10172350008E+04  0.10530834105E+04  0.26289379905E+03 0.  0.
         25    1    4    4    0    0  0.67665465027E+01  0.39044494609E+01  0.55406557546E+03  0.56806443374E+03  0.12509000000E+03 0.  0.
         25    1    4    4    0    0  0.34105303192E+02 -0.62504491111E+02  0.46316942537E+03  0.48501897675E+03  0.12509000000E+03 0.  0.
         25    1    3    3    0    0 -0.40871849695E+02  0.58600041650E+02  0.12333485545E+04  0.12417329173E+04  0.12509000000E+03 0.  0.
<mgrwt>
<rscale>  2 0.44839228E+03</rscale>
<asrwt>0</asrwt>
<pdfrwt beam="1">  1       21 0.33422042E+00 0.44839228E+03</pdfrwt>
<pdfrwt beam="2">  1       21 0.32524113E-02 0.44839228E+03</pdfrwt>
<totfact> 0.99679021E+03</totfact>
</mgrwt>
</event>
<event>
 7    0  0.4709932E-002  0.4554643E+03  0.7546771E-02  0.1026105E+00
         21   -1    0    0  502  501  0.00000000000E+00  0.00000000000E+00  0.55268730993E+02  0.55268730993E+02  0.00000000000E+00 0. -1.
         21   -1    0    0  501  502 -0.00000000000E+00 -0.00000000000E+00 -0.93835942653E+03  0.93835942653E+03  0.00000000000E+00 0. -1.
      99926    2    1    2    0    0  0.00000000000E+00  0.00000000000E+00 -0.88309069553E+03  0.99362815752E+03  0.45546431131E+03 0.  0.
      99925    2    3    3    0    0 -0.10104794203E+03  0.43266780556E+02 -0.49325904045E+03  0.56971905371E+03  0.26304489785E+03 0.  0.
         25    1    4    4    0    0 -0.21660576856E+02  0.41321187169E+02 -0.27799029569E+03  0.30838731118E+03  0.12509000000E+03 0.  0.
         25    1    4    4    0    0 -0.79387365175E+02  0.19455933870E+01 -0.21526874476E+03  0.26133174253E+03  0.12509000000E+03 0.  0.
         25    1    3    3    0    0  0.10104794203E+03 -0.43266780556E+02 -0.38983165508E+03  0.42390910381E+03  0.12509000000E+03 0.  0.
<mgrwt>
<rscale>  2 0.45546431E+03</rscale>
<asrwt>0</asrwt>
<pdfrwt beam="1">  1       21 0.81277540E-02 0.45546431E+03</pdfrwt>
<pdfrwt beam="2">  1       21 0.13799404E+00 0.45546431E+03</pdfrwt>
<totfact> 0.39272909E+04</totfact>
</mgrwt>
</event>
<event>
 7    0  0.4709932E-002  0.4519648E+03  0.7546771E-02  0.1027138E+00
         21   -1    0    0  502  501  0.00000000000E+00  0.00000000000E+00  0.72103694035E+03  0.72103694035E+03  0.00000000000E+00 0.  1.
         21   -1    0    0  501  502 -0.00000000000E+00 -0.00000000000E+00 -0.70825828467E+02  0.70825828467E+02  0.00000000000E+00 0.  1.
      99926    2    1    2    0    0  0.17763568394E-14 -0.71054273576E-14  0.65021111188E+03  0.79186276881E+03  0.45196477144E+03 0.  0.
      99925    2    3    3    0    0 -0.88543055861E+01  0.46420984992E+02  0.23546806213E+03  0.35609607437E+03  0.26291804678E+03 0.  0.
         25    1    4    4    0    0 -0.40122440132E+02  0.42465562928E+02  0.11760274875E+03  0.18135889515E+03  0.12509000000E+03 0.  0.
         25    1    4    4    0    0  0.31268134546E+02  0.39554220644E+01  0.11786531338E+03  0.17473717921E+03  0.12509000000E+03 0.  0.
         25    1    3    3    0    0  0.88543055861E+01 -0.46420984992E+02  0.41474304975E+03  0.43576669445E+03  0.12509000000E+03 0.  0.
<mgrwt>
<rscale>  2 0.45196477E+03</rscale>
<asrwt>0</asrwt>
<pdfrwt beam="1">  1       21 0.10603484E+00 0.45196477E+03</pdfrwt>
<pdfrwt beam="2">  1       21 0.10415563E-01 0.45196477E+03</pdfrwt>
<totfact> 0.49325484E+04</totfact>
</mgrwt>
</event>
<event>
 7    0  0.4709932E-002  0.4547337E+03  0.7546771E-02  0.1026320E+00
         21   -1    0    0  502  501  0.00000000000E+00  0.00000000000E+00  0.71810498549E+02  0.71810498549E+02  0.00000000000E+00 0.  1.
         21   -1    0    0  501  502 -0.00000000000E+00 -0.00000000000E+00 -0.71989039359E+03  0.71989039359E+03  0.00000000000E+00 0.  1.
      99926    2    1    2    0    0  0.22204460493E-15  0.14210854715E-13 -0.64807989504E+03  0.79170089214E+03  0.45473371577E+03 0.  0.
      99925    2    3    3    0    0 -0.58473536699E+00  0.11295031427E+03 -0.41268897883E+03  0.50219354000E+03  0.26292212337E+03 0.  0.
         25    1    3    3    0    0  0.58473536699E+00 -0.11295031427E+03 -0.23539091621E+03  0.28950735214E+03  0.12509000000E+03 0.  0.
         25    1    4    4    0    0  0.36883025851E+02  0.62959999336E+02 -0.23575515661E+03  0.27668090118E+03  0.12509000000E+03 0.  0.
         25    1    4    4    0    0 -0.37467761218E+02  0.49990314938E+02 -0.17693382222E+03  0.22551263881E+03  0.12509000000E+03 0.  0.
<mgrwt>
<rscale>  2 0.45473372E+03</rscale>
<asrwt>0</asrwt>
<pdfrwt beam="1">  1       21 0.10560368E-01 0.45473372E+03</pdfrwt>
<pdfrwt beam="2">  1       21 0.10586623E+00 0.45473372E+03</pdfrwt>
<totfact> 0.48269662E+04</totfact>
</mgrwt>
</event>
<event>
 7    0  0.4709932E-002  0.4593061E+03  0.7546771E-02  0.1024983E+00
         21   -1    0    0  502  501  0.00000000000E+00  0.00000000000E+00  0.10801175393E+04  0.10801175393E+04  0.00000000000E+00 0. -1.
         21   -1    0    0  501  502 -0.00000000000E+00 -0.00000000000E+00 -0.48828510913E+02  0.48828510913E+02  0.00000000000E+00 0. -1.
      99926    2    1    2    0    0 -0.14210854715E-13  0.35527136788E-14  0.10312890284E+04  0.11289460502E+04  0.45930613344E+03 0.  0.
      99925    2    3    3    0    0  0.11519108232E+03 -0.20462100766E+02  0.63416129895E+03  0.69645833409E+03  0.26307028531E+03 0.  0.
         25    1    3    3    0    0 -0.11519108232E+03  0.20462100766E+02  0.39712772941E+03  0.43248771610E+03  0.12509000000E+03 0.  0.
         25    1    4    4    0    0  0.66096638055E+02 -0.33360412714E+02  0.24898422898E+03  0.28830944674E+03  0.12509000000E+03 0.  0.
         25    1    4    4    0    0  0.49094444264E+02  0.12898311948E+02  0.38517706998E+03  0.40814888735E+03  0.12509000000E+03 0.  0.
<mgrwt>
<rscale>  2 0.45930613E+03</rscale>
<asrwt>0</asrwt>
<pdfrwt beam="1">  1       21 0.15884080E+00 0.45930613E+03</pdfrwt>
<pdfrwt beam="2">  1       21 0.71806640E-02 0.45930613E+03</pdfrwt>
<totfact> 0.33359193E+04</totfact>
</mgrwt>
</event>
<event>
 7    0  0.4709932E-002  0.4566977E+03  0.7546771E-02  0.1025743E+00
         21   -1    0    0  502  501  0.00000000000E+00  0.00000000000E+00  0.68800144500E+02  0.68800144500E+02  0.00000000000E+00 0.  1.
         21   -1    0    0  501  502 -0.00000000000E+00 -0.00000000000E+00 -0.75789377511E+03  0.75789377511E+03  0.00000000000E+00 0.  1.
      99926    2    1    2    0    0  0.00000000000E+00  0.00000000000E+00 -0.68909363061E+03  0.82669391961E+03  0.45669771728E+03 0.  0.
      99925    2    3    3    0    0  0.26420157740E+02 -0.83960936684E+02 -0.56576327557E+03  0.63021148223E+03  0.26330773769E+03 0.  0.
         25    1    4    4    0    0  0.31509872913E+02 -0.61031835639E+02 -0.22483738558E+03  0.26630267574E+03  0.12509000000E+03 0.  0.
         25    1    3    3    0    0 -0.26420157740E+02  0.83960936684E+02 -0.12333035504E+03  0.19648243738E+03  0.12509000000E+03 0.  0.
         25    1    4    4    0    0 -0.50897151735E+01 -0.22929101045E+02 -0.34092588999E+03  0.36390880649E+03  0.12509000000E+03 0.  0.
<mgrwt>
<rscale>  2 0.45669772E+03</rscale>
<asrwt>0</asrwt>
<pdfrwt beam="1">  1       21 0.10117669E-01 0.45669772E+03</pdfrwt>
<pdfrwt beam="2">  1       21 0.11145496E+00 0.45669772E+03</pdfrwt>
<totfact> 0.45886311E+04</totfact>
</mgrwt>
</event>
<event>
 7    0  0.4709932E-002  0.4571808E+03  0.7546771E-02  0.1025602E+00
         21   -1    0    0  502  501  0.00000000000E+00  0.00000000000E+00  0.18593970799E+03  0.18593970799E+03  0.00000000000E+00 0. -1.
         21   -1    0    0  501  502 -0.00000000000E+00 -0.00000000000E+00 -0.28102421434E+03  0.28102421434E+03  0.00000000000E+00 0. -1.
      99926    2    1    2    0    0  0.35527136788E-14  0.00000000000E+00 -0.95084506348E+02  0.46696392234E+03  0.45718075355E+03 0.  0.
      99925    2    3    3    0    0 -0.23560930556E+02 -0.68116026775E+02 -0.15150031687E+03  0.31196339870E+03  0.26300932600E+03 0.  0.
         25    1    3    3    0    0  0.23560930556E+02  0.68116026775E+02  0.56415810519E+02  0.15500052364E+03  0.12509000000E+03 0.  0.
         25    1    4    4    0    0  0.21010417233E+02 -0.28290897787E+02 -0.46408574206E+02  0.13799665355E+03  0.12509000000E+03 0.  0.
         25    1    4    4    0    0 -0.44571347788E+02 -0.39825128989E+02 -0.10509174266E+03  0.17396674515E+03  0.12509000000E+03 0.  0.
<mgrwt>
<rscale>  2 0.45718075E+03</rscale>
<asrwt>0</asrwt>
<pdfrwt beam="1">  1       21 0.27344075E-01 0.45718075E+03</pdfrwt>
<pdfrwt beam="2">  1       21 0.41327090E-01 0.45718075E+03</pdfrwt>
<totfact> 0.66504398E+04</totfact>
</mgrwt>
</event>
<event>
 7    0  0.4709932E-002  0.4532613E+03  0.7546771E-02  0.1026754E+00
         21   -1    0    0  502  501  0.00000000000E+00  0.00000000000E+00  0.15610124408E+04  0.15610124408E+04  0.00000000000E+00 0. -1.
         21   -1    0    0  501  502 -0.00000000000E+00 -0.00000000000E+00 -0.32902646587E+02  0.32902646587E+02  0.00000000000E+00 0. -1.
      99926    2    1    2    0    0 -0.71054273576E-14  0.00000000000E+00  0.15281097942E+04  0.15939150874E+04  0.45326125207E+03 0.  0.
      99925    2    3    3    0    0 -0.58803898302E+02  0.65866526633E+02  0.12030134465E+04  0.12345664528E+04  0.26290050611E+03 0.  0.
         25    1    4    4    0    0 -0.30725791228E+02  0.38452122628E+02  0.78658378208E+03  0.79798759032E+03  0.12509000000E+03 0.  0.
         25    1    4    4    0    0 -0.28078107074E+02  0.27414404005E+02  0.41642966444E+03  0.43657886248E+03  0.12509000000E+03 0.  0.
         25    1    3    3    0    0  0.58803898302E+02 -0.65866526633E+02  0.32509634767E+03  0.35934863455E+03  0.12509000000E+03 0.  0.
<mgrwt>
<rscale>  2 0.45326125E+03</rscale>
<asrwt>0</asrwt>
<pdfrwt beam="1">  1       21 0.22956060E+00 0.45326125E+03</pdfrwt>
<pdfrwt beam="2">  1       21 0.48386255E-02 0.45326125E+03</pdfrwt>
<totfact> 0.21861311E+04</totfact>
</mgrwt>
</event>
<event>
 7    0  0.4709932E-002  0.4432560E+03  0.7546771E-02  0.1029752E+00
         21   -1    0    0  502  501  0.00000000000E+00  0.00000000000E+00  0.32122322440E+03  0.32122322440E+03  0.00000000000E+00 0.  1.
         21   -1    0    0  501  502 -0.00000000000E+00 -0.00000000000E+00 -0.15291228432E+03  0.15291228432E+03  0.00000000000E+00 0.  1.
      99926    2    1    2    0    0  0.00000000000E+00  0.00000000000E+00  0.16831094008E+03  0.47413550872E+03  0.44325602994E+03 0.  0.
      99925    2    3    3    0    0  0.97223487857E+02 -0.16726949031E+02  0.80320032852E+02  0.29214071409E+03  0.26298800684E+03 0.  0.
         25    1    4    4    0    0  0.63562161230E+02  0.97361774804E+01  0.75965507910E+02  0.15985370807E+03  0.12509000000E+03 0.  0.
         25    1    3    3    0    0 -0.97223487857E+02  0.16726949031E+02  0.87990907230E+02  0.18199479462E+03  0.12509000000E+03 0.  0.
         25    1    4    4    0    0  0.33661326628E+02 -0.26463126512E+02  0.43545249416E+01  0.13228700602E+03  0.12509000000E+03 0.  0.
<mgrwt>
<rscale>  2 0.44325603E+03</rscale>
<asrwt>0</asrwt>
<pdfrwt beam="1">  1       21 0.47238709E-01 0.44325603E+03</pdfrwt>
<pdfrwt beam="2">  1       21 0.22487101E-01 0.44325603E+03</pdfrwt>
<totfact> 0.73770129E+04</totfact>
</mgrwt>
</event>
<event>
 7    0  0.4709932E-002  0.4612431E+03  0.7546771E-02  0.1024421E+00
         21   -1    0    0  502  501  0.00000000000E+00  0.00000000000E+00  0.22809957564E+03  0.22809957564E+03  0.00000000000E+00 0. -1.
         21   -1    0    0  501  502 -0.00000000000E+00 -0.00000000000E+00 -0.23317141681E+03  0.23317141681E+03  0.00000000000E+00 0. -1.
      99926    2    1    2    0    0  0.00000000000E+00  0.44408920985E-14 -0.50718411696E+01  0.46127099246E+03  0.46124310825E+03 0.  0.
      99925    2    3    3    0    0 -0.11240556825E+03 -0.56404964961E+01  0.35455325210E+02  0.28819070389E+03  0.26292579704E+03 0.  0.
         25    1    3    3    0    0  0.11240556825E+03  0.56404964961E+01 -0.40527166380E+02  0.17308028856E+03  0.12509000000E+03 0.  0.
         25    1    4    4    0    0 -0.60001415917E+02 -0.42121931144E+02  0.27082080061E+02  0.14749703101E+03  0.12509000000E+03 0.  0.
         25    1    4    4    0    0 -0.52404152333E+02  0.36481434648E+02  0.83732451485E+01  0.14069367289E+03  0.12509000000E+03 0.  0.
<mgrwt>
<rscale>  2 0.46124311E+03</rscale>
<asrwt>0</asrwt>
<pdfrwt beam="1">  1       21 0.33544056E-01 0.46124311E+03</pdfrwt>
<pdfrwt beam="2">  1       21 0.34289914E-01 0.46124311E+03</pdfrwt>
<totfact> 0.64800220E+04</totfact>
</mgrwt>
</event>
<event>
 7    0  0.4709932E-002  0.4487851E+03  0.7546771E-02  0.1028085E+00
         21   -1    0    0  502  501  0.00000000000E+00  0.00000000000E+00  0.30305996638E+03  0.30305996638E+03  0.00000000000E+00 0. -1.
         21   -1    0    0  501  502 -0.00000000000E+00 -0.00000000000E+00 -0.16614538054E+03  0.16614538054E+03  0.00000000000E+00 0. -1.
      99926    2    1    2    0    0 -0.17763568394E-14  0.00000000000E+00  0.13691458584E+03  0.46920534692E+03  0.44878508639E+03 0.  0.
      99925    2    3    3    0    0  0.25642700473E+01 -0.91713114157E+02  0.14456066541E+03  0.31388683089E+03  0.26307657789E+03 0.  0.
         25    1    4    4    0    0  0.36452453446E+02 -0.41895676785E+02  0.49151875412E+02  0.14542160793E+03  0.12509000000E+03 0.  0.
         25    1    4    4    0    0 -0.33888183399E+02 -0.49817437372E+02  0.95408789995E+02  0.16846522296E+03  0.12509000000E+03 0.  0.
         25    1    3    3    0    0 -0.25642700473E+01  0.91713114157E+02 -0.76460795654E+01  0.15531851603E+03  0.12509000000E+03 0.  0.
<mgrwt>
<rscale>  2 0.44878509E+03</rscale>
<asrwt>0</asrwt>
<pdfrwt beam="1">  1       21 0.44567642E-01 0.44878509E+03</pdfrwt>
<pdfrwt beam="2">  1       21 0.24433144E-01 0.44878509E+03</pdfrwt>
<totfact> 0.70928519E+04</totfact>
</mgrwt>
</event>
<event>
 7    0  0.4709932E-002  0.4458024E+03  0.7546771E-02  0.1028981E+00
         21   -1    0    0  502  501  0.00000000000E+00  0.00000000000E+00  0.59338763464E+03  0.59338763464E+03  0.00000000000E+00 0. -1.
         21   -1    0    0  501  502 -0.00000000000E+00 -0.00000000000E+00 -0.83731007612E+02  0.83731007612E+02  0.00000000000E+00 0. -1.
      99926    2    1    2    0    0  0.00000000000E+00  0.14210854715E-13  0.50965662703E+03  0.67711864225E+03  0.44580239817E+03 0.  0.
      99925    2    3    3    0    0  0.38088999081E+02 -0.97047942861E+02  0.32467771672E+03  0.43067639664E+03  0.26305410816E+03 0.  0.
         25    1    3    3    0    0 -0.38088999081E+02  0.97047942861E+02  0.18497891031E+03  0.24644224561E+03  0.12509000000E+03 0.  0.
         25    1    4    4    0    0  0.10491372542E+02 -0.66407029768E+02  0.11352231895E+03  0.18180975634E+03  0.12509000000E+03 0.  0.
         25    1    4    4    0    0  0.27597626539E+02 -0.30640913092E+02  0.21115539777E+03  0.24886664030E+03  0.12509000000E+03 0.  0.
<mgrwt>
<rscale>  2 0.44580240E+03</rscale>
<asrwt>0</asrwt>
<pdfrwt beam="1">  1       21 0.87262886E-01 0.44580240E+03</pdfrwt>
<pdfrwt beam="2">  1       21 0.12313384E-01 0.44580240E+03</pdfrwt>
<totfact> 0.58270616E+04</totfact>
</mgrwt>
</event>
<event>
 7    0  0.4709932E-002  0.4469991E+03  0.7546771E-02  0.1028621E+00
         21   -1    0    0  502  501  0.00000000000E+00  0.00000000000E+00  0.22793867631E+03  0.22793867631E+03  0.00000000000E+00 0. -1.
         21   -1    0    0  501  502 -0.00000000000E+00 -0.00000000000E+00 -0.21914691618E+03  0.21914691618E+03  0.00000000000E+00 0. -1.
      99926    2    1    2    0    0  0.00000000000E+00  0.00000000000E+00  0.87917601328E+01  0.44708559249E+03  0.44699914090E+03 0.  0.
      99925    2    3    3    0    0 -0.50160479977E+02  0.25425837125E+02 -0.83604777434E+02  0.28171577904E+03  0.26308073743E+03 0.  0.
         25    1    4    4    0    0 -0.20940767039E+02 -0.27895297805E+02 -0.36985006446E+02  0.13502615364E+03  0.12509000000E+03 0.  0.
         25    1    4    4    0    0 -0.29219712937E+02  0.53321134929E+02 -0.46619770988E+02  0.14668962540E+03  0.12509000000E+03 0.  0.
         25    1    3    3    0    0  0.50160479977E+02 -0.25425837125E+02  0.92396537567E+02  0.16536981345E+03  0.12509000000E+03 0.  0.
<mgrwt>
<rscale>  2 0.44699914E+03</rscale>
<asrwt>0</asrwt>
<pdfrwt beam="1">  1       21 0.33520394E-01 0.44699914E+03</pdfrwt>
<pdfrwt beam="2">  1       21 0.32227487E-01 0.44699914E+03</pdfrwt>
<totfact> 0.73724788E+04</totfact>
</mgrwt>
</event>
<event>
 7    0  0.4709932E-002  0.4550411E+03  0.7546771E-02  0.1026229E+00
         21   -1    0    0  502  501  0.00000000000E+00  0.00000000000E+00  0.89904058412E+03  0.89904058412E+03  0.00000000000E+00 0.  1.
         21   -1    0    0  501  502 -0.00000000000E+00 -0.00000000000E+00 -0.57578726574E+02  0.57578726574E+02  0.00000000000E+00 0.  1.
      99926    2    1    2    0    0  0.71054273576E-14  0.17763568394E-14  0.84146185754E+03  0.95661931069E+03  0.45504114966E+03 0.  0.
      99925    2    3    3    0    0 -0.46323795008E+02 -0.99704395120E+00  0.31294279449E+03  0.41152592769E+03  0.26319861029E+03 0.  0.
         25    1    3    3    0    0  0.46323795008E+02  0.99704395120E+00  0.52851906305E+03  0.54509338300E+03  0.12509000000E+03 0.  0.
         25    1    4    4    0    0 -0.54047691330E+02  0.26786252252E+02  0.16299871389E+03  0.21413721086E+03  0.12509000000E+03 0.  0.
         25    1    4    4    0    0  0.77238963219E+01 -0.27783296203E+02  0.14994408060E+03  0.19738871683E+03  0.12509000000E+03 0.  0.
<mgrwt>
<rscale>  2 0.45504115E+03</rscale>
<asrwt>0</asrwt>
<pdfrwt beam="1">  1       21 0.13221184E+00 0.45504115E+03</pdfrwt>
<pdfrwt beam="2">  1       21 0.84674604E-02 0.45504115E+03</pdfrwt>
<totfact> 0.40860799E+04</totfact>
</mgrwt>
</event>
<event>
 7    0  0.4709932E-002  0.4613876E+03  0.7546771E-02  0.1024380E+00
         21   -1    0    0  502  501  0.00000000000E+00  0.00000000000E+00  0.17463034831E+02  0.17463034831E+02  0.00000000000E+00 0. -1.
         21   -1    0    0  501  502 -0.00000000000E+00 -0.00000000000E+00 -0.30475594601E+04  0.30475594601E+04  0.00000000000E+00 0. -1.
      99926    2    1    2    0    0  0.00000000000E+00  0.00000000000E+00 -0.30300964253E+04  0.30650224949E+04  0.46138763313E+03 0.  0.
      99925    2    3    3    0    0 -0.12464494980E+02 -0.21837211373E+02 -0.26688477438E+04  0.26819032637E+04  0.26310569814E+03 0.  0.
         25    1    4    4    0    0 -0.30598503479E+02 -0.26553516895E+02 -0.16507757622E+04  0.16560040709E+04  0.12509000000E+03 0.  0.
         25    1    3    3    0    0  0.12464494980E+02  0.21837211373E+02 -0.36124868143E+03  0.38311923128E+03  0.12509000000E+03 0.  0.
         25    1    4    4    0    0  0.18134008499E+02  0.47163055224E+01 -0.10180719816E+04  0.10258991927E+04  0.12509000000E+03 0.  0.
<mgrwt>
<rscale>  2 0.46138763E+03</rscale>
<asrwt>0</asrwt>
<pdfrwt beam="1">  1       21 0.25680928E-02 0.46138763E+03</pdfrwt>
<pdfrwt beam="2">  1       21 0.44817061E+00 0.46138763E+03</pdfrwt>
<totfact> 0.27617641E+03</totfact>
</mgrwt>
</event>
<event>
 7    0  0.4709932E-002  0.4513627E+03  0.7546771E-02  0.1027316E+00
         21   -1    0    0  502  501  0.00000000000E+00  0.00000000000E+00  0.62514665481E+03  0.62514665481E+03  0.00000000000E+00 0.  1.
         21   -1    0    0  501  502 -0.00000000000E+00 -0.00000000000E+00 -0.81472193746E+02  0.81472193746E+02  0.00000000000E+00 0.  1.
      99926    2    1    2    0    0  0.88817841970E-15 -0.35527136788E-14  0.54367446107E+03  0.70661884856E+03  0.45136268955E+03 0.  0.
      99925    2    3    3    0    0  0.47446523625E+01  0.21308634476E+02  0.51162543000E+03  0.57565618929E+03  0.26295037178E+03 0.  0.
         25    1    4    4    0    0 -0.18187408176E+02 -0.17930654962E+02  0.29455747702E+03  0.32103567648E+03  0.12509000000E+03 0.  0.
         25    1    4    4    0    0  0.22932060539E+02  0.39239289437E+02  0.21706795298E+03  0.25462051282E+03  0.12509000000E+03 0.  0.
         25    1    3    3    0    0 -0.47446523625E+01 -0.21308634476E+02  0.32049031068E+02  0.13096265926E+03  0.12509000000E+03 0.  0.
<mgrwt>
<rscale>  2 0.45136269E+03</rscale>
<asrwt>0</asrwt>
<pdfrwt beam="1">  1       21 0.91933329E-01 0.45136269E+03</pdfrwt>
<pdfrwt beam="2">  1       21 0.11981205E-01 0.45136269E+03</pdfrwt>
<totfact> 0.54076166E+04</totfact>
</mgrwt>
</event>
<event>
 7    0  0.4709932E-002  0.4355828E+03  0.7546771E-02  0.1032111E+00
         21   -1    0    0  502  501  0.00000000000E+00  0.00000000000E+00  0.30639085001E+02  0.30639085001E+02  0.00000000000E+00 0. -1.
         21   -1    0    0  501  502 -0.00000000000E+00 -0.00000000000E+00 -0.15481234708E+04  0.15481234708E+04  0.00000000000E+00 0. -1.
      99926    2    1    2    0    0  0.00000000000E+00  0.00000000000E+00 -0.15174843858E+04  0.15787625559E+04  0.43558276649E+03 0.  0.
      99925    2    3    3    0    0  0.80249580292E+02 -0.29401989318E+02 -0.11125255024E+04  0.11463927170E+04  0.26305664053E+03 0.  0.
         25    1    4    4    0    0  0.29849510401E+02 -0.33924606420E+02 -0.41023987993E+03  0.43126110348E+03  0.12509000000E+03 0.  0.
         25    1    4    4    0    0  0.50400069891E+02  0.45226171013E+01 -0.70228562243E+03  0.71513161354E+03  0.12509000000E+03 0.  0.
         25    1    3    3    0    0 -0.80249580292E+02  0.29401989318E+02 -0.40495888349E+03  0.43236983883E+03  0.12509000000E+03 0.  0.
<mgrwt>
<rscale>  2 0.43558277E+03</rscale>
<asrwt>0</asrwt>
<pdfrwt beam="1">  1       21 0.45057466E-02 0.43558277E+03</pdfrwt>
<pdfrwt beam="2">  1       21 0.22766528E+00 0.43558277E+03</pdfrwt>
<totfact> 0.25554928E+04</totfact>
</mgrwt>
</event>
<event>
 7    0  0.4709932E-002  0.4564522E+03  0.7546771E-02  0.1025815E+00
         21   -1    0    0  502  501  0.00000000000E+00  0.00000000000E+00  0.55996851267E+02  0.55996851267E+02  0.00000000000E+00 0.  1.
         21   -1    0    0  501  502 -0.00000000000E+00 -0.00000000000E+00 -0.93017994993E+03  0.93017994993E+03  0.00000000000E+00 0.  1.
      99926    2    1    2    0    0  0.14210854715E-13  0.00000000000E+00 -0.87418309866E+03  0.98617680120E+03  0.45645218066E+03 0.  0.
      99925    2    3    3    0    0  0.11378701591E+03  0.11952776711E+02 -0.55552218044E+03  0.62522993147E+03  0.26309165777E+03 0.  0.
         25    1    4    4    0    0  0.86238622286E+02  0.25553186088E+02 -0.35379435639E+03  0.38588601945E+03  0.12509000000E+03 0.  0.
         25    1    3    3    0    0 -0.11378701591E+03 -0.11952776711E+02 -0.31866091822E+03  0.36094686972E+03  0.12509000000E+03 0.  0.
         25    1    4    4    0    0  0.27548393626E+02 -0.13600409377E+02 -0.20172782405E+03  0.23934391203E+03  0.12509000000E+03 0.  0.
<mgrwt>
<rscale>  2 0.45645218E+03</rscale>
<asrwt>0</asrwt>
<pdfrwt beam="1">  1       21 0.82348317E-02 0.45645218E+03</pdfrwt>
<pdfrwt beam="2">  1       21 0.13679116E+00 0.45645218E+03</pdfrwt>
<totfact> 0.39261415E+04</totfact>
</mgrwt>
</event>
<event>
 7    0  0.4709932E-002  0.4451375E+03  0.7546771E-02  0.1029182E+00
         21   -1    0    0  502  501  0.00000000000E+00  0.00000000000E+00  0.43061384228E+02  0.43061384228E+02  0.00000000000E+00 0. -1.
         21   -1    0    0  501  502 -0.00000000000E+00 -0.00000000000E+00 -0.11503773026E+04  0.11503773026E+04  0.00000000000E+00 0. -1.
      99926    2    1    2    0    0 -0.88817841970E-15  0.00000000000E+00 -0.11073159184E+04  0.11934386868E+04  0.44513745757E+03 0.  0.
      99925    2    3    3    0    0  0.72233010137E+01 -0.76513112868E+02 -0.51676607319E+03  0.58491337079E+03  0.26300198556E+03 0.  0.
         25    1    4    4    0    0 -0.99978295616E+01 -0.71682068427E+02 -0.23140174222E+03  0.27282329433E+03  0.12509000000E+03 0.  0.
         25    1    3    3    0    0 -0.72233010137E+01  0.76513112868E+02 -0.59054984517E+03  0.60852531603E+03  0.12509000000E+03 0.  0.
         25    1    4    4    0    0  0.17221130575E+02 -0.48310444405E+01 -0.28536433098E+03  0.31209007646E+03  0.12509000000E+03 0.  0.
<mgrwt>
<rscale>  2 0.44513746E+03</rscale>
<asrwt>0</asrwt>
<pdfrwt beam="1">  1       21 0.63325570E-02 0.44513746E+03</pdfrwt>
<pdfrwt beam="2">  1       21 0.16917312E+00 0.44513746E+03</pdfrwt>
<totfact> 0.34975585E+04</totfact>
</mgrwt>
</event>
<event>
 7    0  0.4709932E-002  0.4532406E+03  0.7546771E-02  0.1026760E+00
         21   -1    0    0  502  501  0.00000000000E+00  0.00000000000E+00  0.81296453734E+03  0.81296453734E+03  0.00000000000E+00 0. -1.
         21   -1    0    0  501  502 -0.00000000000E+00 -0.00000000000E+00 -0.63172199150E+02  0.63172199150E+02  0.00000000000E+00 0. -1.
      99926    2    1    2    0    0  0.00000000000E+00  0.00000000000E+00  0.74979233819E+03  0.87613673649E+03  0.45324058801E+03 0.  0.
      99925    2    3    3    0    0 -0.11020098059E+03 -0.94990656079E+01  0.44471778098E+03  0.52835450300E+03  0.26296404270E+03 0.  0.
         25    1    3    3    0    0  0.11020098059E+03  0.94990656079E+01  0.30507455721E+03  0.34778223348E+03  0.12509000000E+03 0.  0.
         25    1    4    4    0    0 -0.26250199766E+02  0.19631435528E+02  0.23867453708E+03  0.27145443264E+03  0.12509000000E+03 0.  0.
         25    1    4    4    0    0 -0.83950780823E+02 -0.29130501136E+02  0.20604324389E+03  0.25690007036E+03  0.12509000000E+03 0.  0.
<mgrwt>
<rscale>  2 0.45324059E+03</rscale>
<asrwt>0</asrwt>
<pdfrwt beam="1">  1       21 0.11955360E+00 0.45324059E+03</pdfrwt>
<pdfrwt beam="2">  1       21 0.92900298E-02 0.45324059E+03</pdfrwt>
<totfact> 0.44897081E+04</totfact>
</mgrwt>
</event>
<event>
 7    0  0.4709932E-002  0.4575469E+03  0.7546771E-02  0.1025495E+00
         21   -1    0    0  502  501  0.00000000000E+00  0.00000000000E+00  0.12904239854E+04  0.12904239854E+04  0.00000000000E+00 0. -1.
         21   -1    0    0  501  502 -0.00000000000E+00 -0.00000000000E+00 -0.40558210920E+02  0.40558210920E+02  0.00000000000E+00 0. -1.
      99926    2    1    2    0    0 -0.14210854715E-13 -0.14210854715E-13  0.12498657744E+04  0.13309821963E+04  0.45754688579E+03 0.  0.
      99925    2    3    3    0    0  0.65018861907E+02  0.78205448398E+02  0.62645080926E+03  0.68705885343E+03  0.26318378955E+03 0.  0.
         25    1    4    4    0    0  0.34543514616E+02  0.44695544309E+02  0.21916783757E+03  0.25859813458E+03  0.12509000000E+03 0.  0.
         25    1    4    4    0    0  0.30475347291E+02  0.33509904089E+02  0.40728297169E+03  0.42846071885E+03  0.12509000000E+03 0.  0.
         25    1    3    3    0    0 -0.65018861907E+02 -0.78205448398E+02  0.62341496518E+03  0.64392334285E+03  0.12509000000E+03 0.  0.
<mgrwt>
<rscale>  2 0.45754689E+03</rscale>
<asrwt>0</asrwt>
<pdfrwt beam="1">  1       21 0.18976821E+00 0.45754689E+03</pdfrwt>
<pdfrwt beam="2">  1       21 0.59644436E-02 0.45754689E+03</pdfrwt>
<totfact> 0.27675925E+04</totfact>
</mgrwt>
</event>
<event>
 7    0  0.4709932E-002  0.4478843E+03  0.7546771E-02  0.1028355E+00
         21   -1    0    0  502  501  0.00000000000E+00  0.00000000000E+00  0.35370082990E+03  0.35370082990E+03  0.00000000000E+00 0. -1.
         21   -1    0    0  501  502 -0.00000000000E+00 -0.00000000000E+00 -0.14178670996E+03  0.14178670996E+03  0.00000000000E+00 0. -1.
      99926    2    1    2    0    0  0.00000000000E+00  0.00000000000E+00  0.21191411994E+03  0.49548753987E+03  0.44788425729E+03 0.  0.
      99925    2    3    3    0    0  0.91195399561E+02 -0.21676975072E+02  0.18981835826E+03  0.33761980113E+03  0.26300119550E+03 0.  0.
         25    1    4    4    0    0  0.15678424363E+02  0.17243153928E+02  0.74450404669E+02  0.14742289579E+03  0.12509000000E+03 0.  0.
         25    1    4    4    0    0  0.75516975198E+02 -0.38920129001E+02  0.11536795359E+03  0.19019690534E+03  0.12509000000E+03 0.  0.
         25    1    3    3    0    0 -0.91195399561E+02  0.21676975072E+02  0.22095761677E+02  0.15786773874E+03  0.12509000000E+03 0.  0.
<mgrwt>
<rscale>  2 0.44788426E+03</rscale>
<asrwt>0</asrwt>
<pdfrwt beam="1">  1       21 0.52014828E-01 0.44788426E+03</pdfrwt>
<pdfrwt beam="2">  1       21 0.20850987E-01 0.44788426E+03</pdfrwt>
<totfact> 0.69428441E+04</totfact>
</mgrwt>
</event>
<event>
 7    0  0.4709932E-002  0.4439246E+03  0.7546771E-02  0.1029549E+00
         21   -1    0    0  502  501  0.00000000000E+00  0.00000000000E+00  0.12888180743E+03  0.12888180743E+03  0.00000000000E+00 0. -1.
         21   -1    0    0  501  502 -0.00000000000E+00 -0.00000000000E+00 -0.38226703964E+03  0.38226703964E+03  0.00000000000E+00 0. -1.
      99926    2    1    2    0    0  0.17763568394E-14  0.71054273576E-14 -0.25338523222E+03  0.51114884707E+03  0.44392461968E+03 0.  0.
      99925    2    3    3    0    0  0.79037257477E+01 -0.59427171002E+02 -0.65969860760E+02  0.27798348280E+03  0.26330350672E+03 0.  0.
         25    1    4    4    0    0  0.40770753634E+02 -0.26341769325E+02 -0.51417788163E+02  0.14369217168E+03  0.12509000000E+03 0.  0.
         25    1    4    4    0    0 -0.32867027887E+02 -0.33085401677E+02 -0.14552072597E+02  0.13429131112E+03  0.12509000000E+03 0.  0.
         25    1    3    3    0    0 -0.79037257477E+01  0.59427171002E+02 -0.18741537146E+03  0.23316536426E+03  0.12509000000E+03 0.  0.
<mgrwt>
<rscale>  2 0.44392462E+03</rscale>
<asrwt>0</asrwt>
<pdfrwt beam="1">  1       21 0.18953207E-01 0.44392462E+03</pdfrwt>
<pdfrwt beam="2">  1       21 0.56215740E-01 0.44392462E+03</pdfrwt>
<totfact> 0.70487799E+04</totfact>
</mgrwt>
</event>
<event>
 7    0  0.4709932E-002  0.4483893E+03  0.7546771E-02  0.1028203E+00
         21   -1    0    0  502  501  0.00000000000E+00  0.00000000000E+00  0.52365486377E+03  0.52365486377E+03  0.00000000000E+00 0. -1.
         21   -1    0    0  501  502 -0.00000000000E+00 -0.00000000000E+00 -0.95985448324E+02  0.95985448324E+02  0.00000000000E+00 0. -1.
      99926    2    1    2    0    0  0.00000000000E+00  0.00000000000E+00  0.42766941545E+03  0.61964031209E+03  0.44838932577E+03 0.  0.
      99925    2    3    3    0    0 -0.81728465459E+02  0.64072917654E+02  0.23860262568E+03  0.37028386053E+03  0.26342749201E+03 0.  0.
         25    1    3    3    0    0  0.81728465459E+02 -0.64072917654E+02  0.18906678977E+03  0.24935645156E+03  0.12509000000E+03 0.  0.
         25    1    4    4    0    0 -0.66910586126E+02  0.27331238887E+02  0.82524839165E+02  0.16637872561E+03  0.12509000000E+03 0.  0.
         25    1    4    4    0    0 -0.14817879334E+02  0.36741678766E+02  0.15607778651E+03  0.20390513493E+03  0.12509000000E+03 0.  0.
<mgrwt>
<rscale>  2 0.44838933E+03</rscale>
<asrwt>0</asrwt>
<pdfrwt beam="1">  1       21 0.77008067E-01 0.44838933E+03</pdfrwt>
<pdfrwt beam="2">  1       21 0.14115507E-01 0.44838933E+03</pdfrwt>
<totfact> 0.60586559E+04</totfact>
</mgrwt>
</event>
<event>
 7    0  0.4709932E-002  0.4435201E+03  0.7546771E-02  0.1029672E+00
         21   -1    0    0  502  501  0.00000000000E+00  0.00000000000E+00  0.70381128937E+03  0.70381128937E+03  0.00000000000E+00 0.  1.
         21   -1    0    0  501  502 -0.00000000000E+00 -0.00000000000E+00 -0.69873175076E+02  0.69873175076E+02  0.00000000000E+00 0.  1.
      99926    2    1    2    0    0  0.00000000000E+00  0.00000000000E+00  0.63393811429E+03  0.77368446445E+03  0.44352014359E+03 0.  0.
      99925    2    3    3    0    0 -0.90481674279E+02  0.46494179800E+02  0.41673791638E+03  0.50318108885E+03  0.26300584612E+03 0.  0.
         25    1    3    3    0    0  0.90481674279E+02 -0.46494179800E+02  0.21720019792E+03  0.27050337560E+03  0.12509000000E+03 0.  0.
         25    1    4    4    0    0 -0.47638389162E+02  0.24036227255E+02  0.13743788891E+03  0.19334900504E+03  0.12509000000E+03 0.  0.
         25    1    4    4    0    0 -0.42843285117E+02  0.22457952545E+02  0.27930002746E+03  0.30983208380E+03  0.12509000000E+03 0.  0.
<mgrwt>
<rscale>  2 0.44352014E+03</rscale>
<asrwt>0</asrwt>
<pdfrwt beam="1">  1       21 0.10350166E+00 0.44352014E+03</pdfrwt>
<pdfrwt beam="2">  1       21 0.10275467E-01 0.44352014E+03</pdfrwt>
<totfact> 0.53746188E+04</totfact>
</mgrwt>
</event>
<event>
 7    0  0.4709932E-002  0.4524625E+03  0.7546771E-02  0.1026990E+00
         21   -1    0    0  502  501  0.00000000000E+00  0.00000000000E+00  0.12286763118E+03  0.12286763118E+03  0.00000000000E+00 0.  1.
         21   -1    0    0  501  502 -0.00000000000E+00 -0.00000000000E+00 -0.41655056269E+03  0.41655056269E+03  0.00000000000E+00 0.  1.
      99926    2    1    2    0    0  0.14210854715E-13  0.00000000000E+00 -0.29368293151E+03  0.53941819386E+03  0.45246251072E+03 0.  0.
      99925    2    3    3    0    0  0.90525782690E+02 -0.34199924121E+02 -0.12090097948E+03  0.30518398801E+03  0.26297465193E+03 0.  0.
         25    1    4    4    0    0  0.22536316858E+02 -0.26777624321E+02 -0.22179814212E+02  0.13177396936E+03  0.12509000000E+03 0.  0.
         25    1    4    4    0    0  0.67989465831E+02 -0.74222997998E+01 -0.98721165263E+02  0.17341001865E+03  0.12509000000E+03 0.  0.
         25    1    3    3    0    0 -0.90525782690E+02  0.34199924121E+02 -0.17278195203E+03  0.23423420585E+03  0.12509000000E+03 0.  0.
<mgrwt>
<rscale>  2 0.45246251E+03</rscale>
<asrwt>0</asrwt>
<pdfrwt beam="1">  1       21 0.18068770E-01 0.45246251E+03</pdfrwt>
<pdfrwt beam="2">  1       21 0.61257434E-01 0.45246251E+03</pdfrwt>
<totfact> 0.63843691E+04</totfact>
</mgrwt>
</event>
<event>
 7    0  0.4709932E-002  0.4712055E+03  0.7546771E-02  0.1021581E+00
         21   -1    0    0  502  501  0.00000000000E+00  0.00000000000E+00  0.16895482797E+03  0.16895482797E+03  0.00000000000E+00 0.  1.
         21   -1    0    0  501  502 -0.00000000000E+00 -0.00000000000E+00 -0.32854141151E+03  0.32854141151E+03  0.00000000000E+00 0.  1.
      99926    2    1    2    0    0  0.14210854715E-13  0.71054273576E-14 -0.15958658355E+03  0.49749623948E+03  0.47120550787E+03 0.  0.
      99925    2    3    3    0    0  0.10540190662E+03  0.36562137420E+02 -0.16476641446E+03  0.32980398992E+03  0.26301397040E+03 0.  0.
         25    1    4    4    0    0  0.89930526888E+02  0.40447365616E+02 -0.99581947028E+02  0.18784983717E+03  0.12509000000E+03 0.  0.
         25    1    4    4    0    0  0.15471379732E+02 -0.38852281960E+01 -0.65184467435E+02  0.14195415275E+03  0.12509000000E+03 0.  0.
         25    1    3    3    0    0 -0.10540190662E+03 -0.36562137420E+02  0.51798309175E+01  0.16769224955E+03  0.12509000000E+03 0.  0.
<mgrwt>
<rscale>  2 0.47120551E+03</rscale>
<asrwt>0</asrwt>
<pdfrwt beam="1">  1       21 0.24846299E-01 0.47120551E+03</pdfrwt>
<pdfrwt beam="2">  1       21 0.48314913E-01 0.47120551E+03</pdfrwt>
<totfact> 0.57663913E+04</totfact>
</mgrwt>
</event>
<event>
 7    0  0.4709932E-002  0.4516209E+03  0.7546771E-02  0.1027240E+00
         21   -1    0    0  502  501  0.00000000000E+00  0.00000000000E+00  0.76976019255E+02  0.76976019255E+02  0.00000000000E+00 0.  1.
         21   -1    0    0  501  502 -0.00000000000E+00 -0.00000000000E+00 -0.66241863944E+03  0.66241863944E+03  0.00000000000E+00 0.  1.
      99926    2    1    2    0    0 -0.14210854715E-13  0.71054273576E-14 -0.58544262018E+03  0.73939465869E+03  0.45162085844E+03 0.  0.
      99925    2    3    3    0    0  0.86435985647E+02 -0.45940462903E+02 -0.28793251325E+03  0.40213885434E+03  0.26311370210E+03 0.  0.
         25    1    3    3    0    0 -0.86435985647E+02  0.45940462903E+02 -0.29751010693E+03  0.33725580435E+03  0.12509000000E+03 0.  0.
         25    1    4    4    0    0  0.34838098024E+02  0.17934381764E+02 -0.13228507260E+03  0.18623153239E+03  0.12509000000E+03 0.  0.
         25    1    4    4    0    0  0.51597887623E+02 -0.63874844667E+02 -0.15564744065E+03  0.21590732195E+03  0.12509000000E+03 0.  0.
<mgrwt>
<rscale>  2 0.45162086E+03</rscale>
<asrwt>0</asrwt>
<pdfrwt beam="1">  1       21 0.11320003E-01 0.45162086E+03</pdfrwt>
<pdfrwt beam="2">  1       21 0.97414501E-01 0.45162086E+03</pdfrwt>
<totfact> 0.52188377E+04</totfact>
</mgrwt>
</event>
<event>
 7    0  0.4709932E-002  0.4514461E+03  0.7546771E-02  0.1027292E+00
         21   -1    0    0  502  501  0.00000000000E+00  0.00000000000E+00  0.33724696314E+03  0.33724696314E+03  0.00000000000E+00 0. -1.
         21   -1    0    0  501  502 -0.00000000000E+00 -0.00000000000E+00 -0.15107891816E+03  0.15107891816E+03  0.00000000000E+00 0. -1.
      99926    2    1    2    0    0  0.00000000000E+00  0.00000000000E+00  0.18616804498E+03  0.48832588130E+03  0.45144614892E+03 0.  0.
      99925    2    3    3    0    0  0.39226110725E+02 -0.10085986948E+03  0.13768211751E+03  0.31596058811E+03  0.26298921408E+03 0.  0.
         25    1    3    3    0    0 -0.39226110725E+02  0.10085986948E+03  0.48485927474E+02  0.17236529319E+03  0.12509000000E+03 0.  0.
         25    1    4    4    0    0  0.38020068436E+02 -0.17992327385E+02  0.44235720393E+02  0.13918892380E+03  0.12509000000E+03 0.  0.
         25    1    4    4    0    0  0.12060422897E+01 -0.82867542096E+02  0.93446397112E+02  0.17677166431E+03  0.12509000000E+03 0.  0.
<mgrwt>
<rscale>  2 0.45144615E+03</rscale>
<asrwt>0</asrwt>
<pdfrwt beam="1">  1       21 0.49595142E-01 0.45144615E+03</pdfrwt>
<pdfrwt beam="2">  1       21 0.22217488E-01 0.45144615E+03</pdfrwt>
<totfact> 0.67997089E+04</totfact>
</mgrwt>
</event>
<event>
 7    0  0.4709932E-002  0.4555643E+03  0.7546771E-02  0.1026076E+00
         21   -1    0    0  502  501  0.00000000000E+00  0.00000000000E+00  0.58645965224E+02  0.58645965224E+02  0.00000000000E+00 0.  1.
         21   -1    0    0  501  502 -0.00000000000E+00 -0.00000000000E+00 -0.88471052535E+03  0.88471052535E+03  0.00000000000E+00 0.  1.
      99926    2    1    2    0    0  0.00000000000E+00  0.00000000000E+00 -0.82606456013E+03  0.94335649058E+03  0.45556427737E+03 0.  0.
      99925    2    3    3    0    0  0.10972702203E+02  0.77057850651E+02 -0.69118094072E+03  0.74360812031E+03  0.26298979302E+03 0.  0.
         25    1    3    3    0    0 -0.10972702203E+02 -0.77057850651E+02 -0.13488361941E+03  0.19974837027E+03  0.12509000000E+03 0.  0.
         25    1    4    4    0    0  0.72089460050E+00 -0.14086371392E+01 -0.28297895149E+03  0.30939796223E+03  0.12509000000E+03 0.  0.
         25    1    4    4    0    0  0.10251807602E+02  0.78466487790E+02 -0.40820198923E+03  0.43421015808E+03  0.12509000000E+03 0.  0.
<mgrwt>
<rscale>  2 0.45556428E+03</rscale>
<asrwt>0</asrwt>
<pdfrwt beam="1">  1       21 0.86244066E-02 0.45556428E+03</pdfrwt>
<pdfrwt beam="2">  1       21 0.13010449E+00 0.45556428E+03</pdfrwt>
<totfact> 0.41228753E+04</totfact>
</mgrwt>
</event>
<event>
 7    0  0.4709932E-002  0.4701566E+03  0.7546771E-02  0.1021876E+00
         21   -1    0    0  502  501  0.00000000000E+00  0.00000000000E+00  0.88077199919E+02  0.88077199919E+02  0.00000000000E+00 0.  1.
         21   -1    0    0  501  502 -0.00000000000E+00 -0.00000000000E+00 -0.62742468863E+03  0.62742468863E+03  0.00000000000E+00 0.  1.
      99926    2    1    2    0    0  0.00000000000E+00  0.00000000000E+00 -0.53934748872E+03  0.71550188855E+03  0.47015661108E+03 0.  0.
      99925    2    3    3    0    0 -0.87388774455E+01 -0.83697135302E+02 -0.47939087498E+03  0.55325552629E+03  0.26304845166E+03 0.  0.
         25    1    3    3    0    0  0.87388774455E+01  0.83697135302E+02 -0.59956613739E+02  0.16224636226E+03  0.12509000000E+03 0.  0.
         25    1    4    4    0    0 -0.38551818191E+02 -0.46860821812E+02 -0.28737526182E+03  0.31924007974E+03  0.12509000000E+03 0.  0.
         25    1    4    4    0    0  0.29812940746E+02 -0.36836313490E+02 -0.19201561315E+03  0.23401544655E+03  0.12509000000E+03 0.  0.
<mgrwt>
<rscale>  2 0.47015661E+03</rscale>
<asrwt>0</asrwt>
<pdfrwt beam="1">  1       21 0.12952529E-01 0.47015661E+03</pdfrwt>
<pdfrwt beam="2">  1       21 0.92268337E-01 0.47015661E+03</pdfrwt>
<totfact> 0.46297004E+04</totfact>
</mgrwt>
</event>
<event>
 7    0  0.4709932E-002  0.4428619E+03  0.7546771E-02  0.1029872E+00
         21   -1    0    0  502  501  0.00000000000E+00  0.00000000000E+00  0.10713092166E+03  0.10713092166E+03  0.00000000000E+00 0.  1.
         21   -1    0    0  501  502 -0.00000000000E+00 -0.00000000000E+00 -0.45767994907E+03  0.45767994907E+03  0.00000000000E+00 0.  1.
      99926    2    1    2    0    0  0.00000000000E+00 -0.88817841970E-15 -0.35054902740E+03  0.56481087073E+03  0.44286194133E+03 0.  0.
      99925    2    3    3    0    0  0.52443190374E+02 -0.58419385312E+01 -0.33327650285E+03  0.42795231357E+03  0.26322146356E+03 0.  0.
         25    1    3    3    0    0 -0.52443190374E+02  0.58419385312E+01 -0.17272524556E+02  0.13685855716E+03  0.12509000000E+03 0.  0.
         25    1    4    4    0    0  0.59919109871E+02  0.11433422078E+02 -0.14369211048E+03  0.20003987998E+03  0.12509000000E+03 0.  0.
         25    1    4    4    0    0 -0.74759194970E+01 -0.17275360610E+02 -0.18958439237E+03  0.22791243360E+03  0.12509000000E+03 0.  0.
<mgrwt>
<rscale>  2 0.44286194E+03</rscale>
<asrwt>0</asrwt>
<pdfrwt beam="1">  1       21 0.15754547E-01 0.44286194E+03</pdfrwt>
<pdfrwt beam="2">  1       21 0.67305875E-01 0.44286194E+03</pdfrwt>
<totfact> 0.67112510E+04</totfact>
</mgrwt>
</event>
<event>
 7    0  0.4709932E-002  0.4518456E+03  0.7546771E-02  0.1027173E+00
         21   -1    0    0  502  501  0.00000000000E+00  0.00000000000E+00  0.34997120384E+03  0.34997120384E+03  0.00000000000E+00 0.  1.
         21   -1    0    0  501  502 -0.00000000000E+00 -0.00000000000E+00 -0.14584374255E+03  0.14584374255E+03  0.00000000000E+00 0.  1.
      99926    2    1    2    0    0  0.00000000000E+00  0.00000000000E+00  0.20412746129E+03  0.49581494639E+03  0.45184559377E+03 0.  0.
      99925    2    3    3    0    0 -0.79567920741E+02 -0.42492416837E+02  0.59638334719E+02  0.28448280189E+03  0.26312938662E+03 0.  0.
         25    1    4    4    0    0  0.40175241718E-01 -0.33812839236E+02  0.30607213271E+02  0.13314510624E+03  0.12509000000E+03 0.  0.
         25    1    3    3    0    0  0.79567920741E+02  0.42492416837E+02  0.14448912657E+03  0.21133214450E+03  0.12509000000E+03 0.  0.
         25    1    4    4    0    0 -0.79608095983E+02 -0.86795776015E+01  0.29031121448E+02  0.15133769565E+03  0.12509000000E+03 0.  0.
<mgrwt>
<rscale>  2 0.45184559E+03</rscale>
<asrwt>0</asrwt>
<pdfrwt beam="1">  1       21 0.51466353E-01 0.45184559E+03</pdfrwt>
<pdfrwt beam="2">  1       21 0.21447609E-01 0.45184559E+03</pdfrwt>
<totfact> 0.67233548E+04</totfact>
</mgrwt>
</event>
<event>
 7    0  0.4709932E-002  0.4484419E+03  0.7546771E-02  0.1028188E+00
         21   -1    0    0  502  501  0.00000000000E+00  0.00000000000E+00  0.99816121988E+03  0.99816121988E+03  0.00000000000E+00 0.  1.
         21   -1    0    0  501  502 -0.00000000000E+00 -0.00000000000E+00 -0.50367641475E+02  0.50367641475E+02  0.00000000000E+00 0.  1.
      99926    2    1    2    0    0  0.00000000000E+00  0.00000000000E+00  0.94779357841E+03  0.10485288614E+04  0.44844186449E+03 0.  0.
      99925    2    3    3    0    0  0.53764350128E+02  0.29298789577E+02  0.80490573564E+03  0.84899573597E+03  0.26300473763E+03 0.  0.
         25    1    4    4    0    0  0.66131264899E+02  0.26383327977E+02  0.45172110232E+03  0.47409797149E+03  0.12509000000E+03 0.  0.
         25    1    3    3    0    0 -0.53764350128E+02 -0.29298789577E+02  0.14288784277E+03  0.19953312538E+03  0.12509000000E+03 0.  0.
         25    1    4    4    0    0 -0.12366914772E+02  0.29154616001E+01  0.35318463332E+03  0.37489776448E+03  0.12509000000E+03 0.  0.
<mgrwt>
<rscale>  2 0.44844186E+03</rscale>
<asrwt>0</asrwt>
<pdfrwt beam="1">  1       21 0.14678840E+00 0.44844186E+03</pdfrwt>
<pdfrwt beam="2">  1       21 0.74070067E-02 0.44844186E+03</pdfrwt>
<totfact> 0.39305164E+04</totfact>
</mgrwt>
</event>
<event>
 7    0  0.4709932E-002  0.4416117E+03  0.7546771E-02  0.1030253E+00
         21   -1    0    0  502  501  0.00000000000E+00  0.00000000000E+00  0.15352068550E+03  0.15352068550E+03  0.00000000000E+00 0. -1.
         21   -1    0    0  501  502 -0.00000000000E+00 -0.00000000000E+00 -0.31758078461E+03  0.31758078461E+03  0.00000000000E+00 0. -1.
      99926    2    1    2    0    0  0.00000000000E+00  0.00000000000E+00 -0.16406009911E+03  0.47110147011E+03  0.44161168352E+03 0.  0.
      99925    2    3    3    0    0 -0.70964647192E+02  0.64201202313E+02 -0.13608301918E+03  0.31113897253E+03  0.26292793041E+03 0.  0.
         25    1    3    3    0    0  0.70964647192E+02 -0.64201202313E+02 -0.27977079930E+02  0.15996249758E+03  0.12509000000E+03 0.  0.
         25    1    4    4    0    0 -0.62116578881E+02  0.63508138857E+02 -0.61941429287E+02  0.16545694858E+03  0.12509000000E+03 0.  0.
         25    1    4    4    0    0 -0.88480683107E+01  0.69306345630E+00 -0.74141589897E+02  0.14568202395E+03  0.12509000000E+03 0.  0.
<mgrwt>
<rscale>  2 0.44161168E+03</rscale>
<asrwt>0</asrwt>
<pdfrwt beam="1">  1       21 0.22576571E-01 0.44161168E+03</pdfrwt>
<pdfrwt beam="2">  1       21 0.46703057E-01 0.44161168E+03</pdfrwt>
<totfact> 0.75013615E+04</totfact>
</mgrwt>
</event>
<event>
 7    0  0.4709932E-002  0.4539079E+03  0.7546771E-02  0.1026563E+00
         21   -1    0    0  502  501  0.00000000000E+00  0.00000000000E+00  0.20166692827E+03  0.20166692827E+03  0.00000000000E+00 0.  1.
         21   -1    0    0  501  502 -0.00000000000E+00 -0.00000000000E+00 -0.25541170441E+03  0.25541170441E+03  0.00000000000E+00 0.  1.
      99926    2    1    2    0    0  0.00000000000E+00  0.00000000000E+00 -0.53744776139E+02  0.45707863268E+03  0.45390789318E+03 0.  0.
      99925    2    3    3    0    0 -0.10470867096E+03 -0.37388361810E+02 -0.50925368649E+02  0.28969508352E+03  0.26261769337E+03 0.  0.
         25    1    4    4    0    0 -0.56823544873E+02 -0.43706874776E+02  0.53467968027E+01  0.14427509311E+03  0.12509000000E+03 0.  0.
         25    1    3    3    0    0  0.10470867096E+03  0.37388361810E+02 -0.28194074900E+01  0.16738354916E+03  0.12509000000E+03 0.  0.
         25    1    4    4    0    0 -0.47885126084E+02  0.63185129656E+01 -0.56272165452E+02  0.14541999041E+03  0.12509000000E+03 0.  0.
<mgrwt>
<rscale>  2 0.45390789E+03</rscale>
<asrwt>0</asrwt>
<pdfrwt beam="1">  1       21 0.29656902E-01 0.45390789E+03</pdfrwt>
<pdfrwt beam="2">  1       21 0.37560544E-01 0.45390789E+03</pdfrwt>
<totfact> 0.68992871E+04</totfact>
</mgrwt>
</event>
<event>
 7    0  0.4709932E-002  0.4506984E+03  0.7546771E-02  0.1027514E+00
         21   -1    0    0  502  501  0.00000000000E+00  0.00000000000E+00  0.10169004070E+03  0.10169004070E+03  0.00000000000E+00 0. -1.
         21   -1    0    0  501  502 -0.00000000000E+00 -0.00000000000E+00 -0.49938281633E+03  0.49938281633E+03  0.00000000000E+00 0. -1.
      99926    2    1    2    0    0  0.00000000000E+00  0.00000000000E+00 -0.39769277562E+03  0.60107285703E+03  0.45069838659E+03 0.  0.
      99925    2    3    3    0    0 -0.67191535369E+02 -0.77428829971E+02 -0.30179575537E+03  0.41304713345E+03  0.26271149642E+03 0.  0.
         25    1    4    4    0    0 -0.29340113081E+02 -0.12740973077E+02 -0.18804284794E+03  0.22810259839E+03  0.12509000000E+03 0.  0.
         25    1    4    4    0    0 -0.37851422288E+02 -0.64687856894E+02 -0.11375290743E+03  0.18494453506E+03  0.12509000000E+03 0.  0.
         25    1    3    3    0    0  0.67191535369E+02  0.77428829971E+02 -0.95897020252E+02  0.18802572358E+03  0.12509000000E+03 0.  0.
<mgrwt>
<rscale>  2 0.45069839E+03</rscale>
<asrwt>0</asrwt>
<pdfrwt beam="1">  1       21 0.14954418E-01 0.45069839E+03</pdfrwt>
<pdfrwt beam="2">  1       21 0.73438647E-01 0.45069839E+03</pdfrwt>
<totfact> 0.60647330E+04</totfact>
</mgrwt>
</event>
<event>
 7    0  0.4709932E-002  0.4619983E+03  0.7546771E-02  0.1024203E+00
         21   -1    0    0  502  501  0.00000000000E+00  0.00000000000E+00  0.37592079273E+03  0.37592079273E+03  0.00000000000E+00 0.  1.
         21   -1    0    0  501  502 -0.00000000000E+00 -0.00000000000E+00 -0.14194643873E+03  0.14194643873E+03  0.00000000000E+00 0.  1.
      99926    2    1    2    0    0  0.00000000000E+00  0.00000000000E+00  0.23397435399E+03  0.51786723146E+03  0.46199834534E+03 0.  0.
      99925    2    3    3    0    0  0.93606983579E+02 -0.73512247066E+02  0.13287952598E+03  0.31778227402E+03  0.26298723812E+03 0.  0.
         25    1    3    3    0    0 -0.93606983579E+02  0.73512247066E+02  0.10109482801E+03  0.20008495744E+03  0.12509000000E+03 0.  0.
         25    1    4    4    0    0  0.36318768430E+02  0.47879153075E+01  0.58210751443E+02  0.14275145098E+03  0.12509000000E+03 0.  0.
         25    1    4    4    0    0  0.57288215149E+02 -0.78300162374E+02  0.74668774536E+02  0.17503082304E+03  0.12509000000E+03 0.  0.
<mgrwt>
<rscale>  2 0.46199835E+03</rscale>
<asrwt>0</asrwt>
<pdfrwt beam="1">  1       21 0.55282470E-01 0.46199835E+03</pdfrwt>
<pdfrwt beam="2">  1       21 0.20874476E-01 0.46199835E+03</pdfrwt>
<totfact> 0.60597012E+04</totfact>
</mgrwt>
</event>
<event>
 7    0  0.4709932E-002  0.4627291E+03  0.7546771E-02  0.1023993E+00
         21   -1    0    0  502  501  0.00000000000E+00  0.00000000000E+00  0.83288856209E+03  0.83288856209E+03  0.00000000000E+00 0. -1.
         21   -1    0    0  501  502 -0.00000000000E+00 -0.00000000000E+00 -0.64269760315E+02  0.64269760315E+02  0.00000000000E+00 0. -1.
      99926    2    1    2    0    0 -0.71054273576E-14 -0.14210854715E-13  0.76861880177E+03  0.89715832240E+03  0.46272907086E+03 0.  0.
      99925    2    3    3    0    0  0.51060132791E+02  0.10034913420E+03  0.56232331541E+03  0.63092079370E+03  0.26301416497E+03 0.  0.
         25    1    4    4    0    0  0.50187523768E+02  0.18011608294E+02  0.25181270118E+03  0.28618237218E+03  0.12509000000E+03 0.  0.
         25    1    3    3    0    0 -0.51060132791E+02 -0.10034913420E+03  0.20629548636E+03  0.26623752870E+03  0.12509000000E+03 0.  0.
         25    1    4    4    0    0  0.87260902261E+00  0.82337525904E+02  0.31051061424E+03  0.34473842152E+03  0.12509000000E+03 0.  0.
<mgrwt>
<rscale>  2 0.46272907E+03</rscale>
<asrwt>0</asrwt>
<pdfrwt beam="1">  1       21 0.12248361E+00 0.46272907E+03</pdfrwt>
<pdfrwt beam="2">  1       21 0.94514358E-02 0.46272907E+03</pdfrwt>
<totfact> 0.40829232E+04</totfact>
</mgrwt>
</event>
<event>
 7    0  0.4709932E-002  0.4822757E+03  0.7546771E-02  0.1018512E+00
         21   -1    0    0  502  501  0.00000000000E+00  0.00000000000E+00  0.37636731856E+03  0.37636731856E+03  0.00000000000E+00 0. -1.
         21   -1    0    0  501  502 -0.00000000000E+00 -0.00000000000E+00 -0.15449660224E+03  0.15449660224E+03  0.00000000000E+00 0. -1.
      99926    2    1    2    0    0 -0.17763568394E-14  0.00000000000E+00  0.22187071632E+03  0.53086392080E+03  0.48227573819E+03 0.  0.
      99925    2    3    3    0    0  0.75515428952E+01  0.13122440113E+03  0.17986840051E+03  0.34461523789E+03  0.26292613304E+03 0.  0.
         25    1    4    4    0    0  0.22617535501E+02  0.83894267919E+02  0.13267612234E+03  0.20199074890E+03  0.12509000000E+03 0.  0.
         25    1    3    3    0    0 -0.75515428952E+01 -0.13122440113E+03  0.42002315819E+02  0.18624868291E+03  0.12509000000E+03 0.  0.
         25    1    4    4    0    0 -0.15065992605E+02  0.47330133208E+02  0.47192278168E+02  0.14262448900E+03  0.12509000000E+03 0.  0.
<mgrwt>
<rscale>  2 0.48227574E+03</rscale>
<asrwt>0</asrwt>
<pdfrwt beam="1">  1       21 0.55348135E-01 0.48227574E+03</pdfrwt>
<pdfrwt beam="2">  1       21 0.22720089E-01 0.48227574E+03</pdfrwt>
<totfact> 0.51152480E+04</totfact>
</mgrwt>
</event>
<event>
 7    0  0.4709932E-002  0.4540828E+03  0.7546771E-02  0.1026511E+00
         21   -1    0    0  502  501  0.00000000000E+00  0.00000000000E+00  0.19647455770E+03  0.19647455770E+03  0.00000000000E+00 0. -1.
         21   -1    0    0  501  502 -0.00000000000E+00 -0.00000000000E+00 -0.26236369738E+03  0.26236369738E+03  0.00000000000E+00 0. -1.
      99926    2    1    2    0    0  0.14210854715E-13  0.71054273576E-14 -0.65889139675E+02  0.45883825508E+03  0.45408277395E+03 0.  0.
      99925    2    3    3    0    0  0.87148849771E+02  0.48764878232E+02  0.10608771200E+02  0.28143370657E+03  0.26290578122E+03 0.  0.
         25    1    3    3    0    0 -0.87148849771E+02 -0.48764878232E+02 -0.76497910875E+02  0.17740454851E+03  0.12509000000E+03 0.  0.
         25    1    4    4    0    0  0.69648235795E+02  0.16893451521E+02 -0.25160351602E+02  0.14634485589E+03  0.12509000000E+03 0.  0.
         25    1    4    4    0    0  0.17500613976E+02  0.31871426711E+02  0.35769122803E+02  0.13508885067E+03  0.12509000000E+03 0.  0.
<mgrwt>
<rscale>  2 0.45408277E+03</rscale>
<asrwt>0</asrwt>
<pdfrwt beam="1">  1       21 0.28893317E-01 0.45408277E+03</pdfrwt>
<pdfrwt beam="2">  1       21 0.38582897E-01 0.45408277E+03</pdfrwt>
<totfact> 0.68766951E+04</totfact>
</mgrwt>
</event>
<event>
 7    0  0.4709932E-002  0.4468304E+03  0.7546771E-02  0.1028671E+00
         21   -1    0    0  502  501  0.00000000000E+00  0.00000000000E+00  0.66333544572E+02  0.66333544572E+02  0.00000000000E+00 0.  1.
         21   -1    0    0  501  502 -0.00000000000E+00 -0.00000000000E+00 -0.75247513814E+03  0.75247513814E+03  0.00000000000E+00 0.  1.
      99926    2    1    2    0    0  0.00000000000E+00  0.00000000000E+00 -0.68614159356E+03  0.81880868271E+03  0.44683036206E+03 0.  0.
      99925    2    3    3    0    0  0.34771580531E+02 -0.98054981717E+02 -0.46524029783E+03  0.54445720593E+03  0.26298530779E+03 0.  0.
         25    1    4    4    0    0  0.46696522129E+02 -0.50884049421E+02 -0.18521481375E+03  0.23392688387E+03  0.12509000000E+03 0.  0.
         25    1    3    3    0    0 -0.34771580531E+02  0.98054981717E+02 -0.22090129573E+03  0.27435147677E+03  0.12509000000E+03 0.  0.
         25    1    4    4    0    0 -0.11924941599E+02 -0.47170932296E+02 -0.28002548408E+03  0.31053032206E+03  0.12509000000E+03 0.  0.
<mgrwt>
<rscale>  2 0.44683036E+03</rscale>
<asrwt>0</asrwt>
<pdfrwt beam="1">  1       21 0.97549331E-02 0.44683036E+03</pdfrwt>
<pdfrwt beam="2">  1       21 0.11065811E+00 0.44683036E+03</pdfrwt>
<totfact> 0.49997327E+04</totfact>
</mgrwt>
</event>
<event>
 7    0  0.4709932E-002  0.4423040E+03  0.7546771E-02  0.1030042E+00
         21   -1    0    0  502  501  0.00000000000E+00  0.00000000000E+00  0.13107910335E+03  0.13107910335E+03  0.00000000000E+00 0.  1.
         21   -1    0    0  501  502 -0.00000000000E+00 -0.00000000000E+00 -0.37311970624E+03  0.37311970624E+03  0.00000000000E+00 0.  1.
      99926    2    1    2    0    0  0.00000000000E+00  0.00000000000E+00 -0.24204060289E+03  0.50419880959E+03  0.44230395221E+03 0.  0.
      99925    2    3    3    0    0  0.56384119144E+02 -0.18871637229E+02 -0.24694813774E+03  0.36560985050E+03  0.26296743613E+03 0.  0.
         25    1    3    3    0    0 -0.56384119144E+02  0.18871637229E+02  0.49075348499E+01  0.13858895909E+03  0.12509000000E+03 0.  0.
         25    1    4    4    0    0 -0.12617273229E+02 -0.19393074891E+01 -0.11648639239E+03  0.17140462132E+03  0.12509000000E+03 0.  0.
         25    1    4    4    0    0  0.69001392373E+02 -0.16932329740E+02 -0.13046174536E+03  0.19420522918E+03  0.12509000000E+03 0.  0.
<mgrwt>
<rscale>  2 0.44230395E+03</rscale>
<asrwt>0</asrwt>
<pdfrwt beam="1">  1       21 0.19276339E-01 0.44230395E+03</pdfrwt>
<pdfrwt beam="2">  1       21 0.54870546E-01 0.44230395E+03</pdfrwt>
<totfact> 0.71958008E+04</totfact>
</mgrwt>
</event>
<event>
 7    0  0.4709932E-002  0.4485420E+03  0.7546771E-02  0.1028158E+00
         21   -1    0    0  502  501  0.00000000000E+00  0.00000000000E+00  0.30863110247E+03  0.30863110247E+03  0.00000000000E+00 0. -1.
         21   -1    0    0  501  502 -0.00000000000E+00 -0.00000000000E+00 -0.16296959760E+03  0.16296959760E+03  0.00000000000E+00 0. -1.
      99926    2    1    2    0    0  0.14210854715E-13  0.71054273576E-14  0.14566150487E+03  0.47160070007E+03  0.44854202290E+03 0.  0.
      99925    2    3    3    0    0 -0.85922886959E+02 -0.54374942452E+02  0.12725691446E+03  0.30934900080E+03  0.26298879281E+03 0.  0.
         25    1    4    4    0    0 -0.55396354965E+02 -0.82270607350E+01  0.26821553559E+02  0.13965437518E+03  0.12509000000E+03 0.  0.
         25    1    3    3    0    0  0.85922886959E+02  0.54374942452E+02  0.18404590405E+02  0.16225169928E+03  0.12509000000E+03 0.  0.
         25    1    4    4    0    0 -0.30526531994E+02 -0.46147881717E+02  0.10043536090E+03  0.16969462561E+03  0.12509000000E+03 0.  0.
<mgrwt>
<rscale>  2 0.44854202E+03</rscale>
<asrwt>0</asrwt>
<pdfrwt beam="1">  1       21 0.45386927E-01 0.44854202E+03</pdfrwt>
<pdfrwt beam="2">  1       21 0.23966117E-01 0.44854202E+03</pdfrwt>
<totfact> 0.70880354E+04</totfact>
</mgrwt>
</event>
<event>
 7    0  0.4709932E-002  0.4583724E+03  0.7546771E-02  0.1025254E+00
         21   -1    0    0  502  501  0.00000000000E+00  0.00000000000E+00  0.28309719755E+03  0.28309719755E+03  0.00000000000E+00 0.  1.
         21   -1    0    0  501  502 -0.00000000000E+00 -0.00000000000E+00 -0.18554160930E+03  0.18554160930E+03  0.00000000000E+00 0.  1.
      99926    2    1    2    0    0  0.00000000000E+00  0.00000000000E+00  0.97555588248E+02  0.46863880685E+03  0.45837237972E+03 0.  0.
      99925    2    3    3    0    0 -0.70197756803E+02  0.66522057495E+02 -0.38505745436E+01  0.28079944158E+03  0.26359171132E+03 0.  0.
         25    1    3    3    0    0  0.70197756803E+02 -0.66522057495E+02  0.10140616279E+03  0.18783936527E+03  0.12509000000E+03 0.  0.
         25    1    4    4    0    0 -0.10312666917E+02  0.18160724031E+02  0.29449602145E+02  0.13019581469E+03  0.12509000000E+03 0.  0.
         25    1    4    4    0    0 -0.59885089886E+02  0.48361333465E+02 -0.33300176689E+02  0.15060362689E+03  0.12509000000E+03 0.  0.
<mgrwt>
<rscale>  2 0.45837238E+03</rscale>
<asrwt>0</asrwt>
<pdfrwt beam="1">  1       21 0.41631941E-01 0.45837238E+03</pdfrwt>
<pdfrwt beam="2">  1       21 0.27285531E-01 0.45837238E+03</pdfrwt>
<totfact> 0.65760446E+04</totfact>
</mgrwt>
</event>
<event>
 7    0  0.4709932E-002  0.4541238E+03  0.7546771E-02  0.1026499E+00
         21   -1    0    0  502  501  0.00000000000E+00  0.00000000000E+00  0.14033786633E+03  0.14033786633E+03  0.00000000000E+00 0.  1.
         21   -1    0    0  501  502 -0.00000000000E+00 -0.00000000000E+00 -0.36737850920E+03  0.36737850920E+03  0.00000000000E+00 0.  1.
      99926    2    1    2    0    0 -0.11102230246E-15  0.00000000000E+00 -0.22704064287E+03  0.50771637552E+03  0.45412384265E+03 0.  0.
      99925    2    3    3    0    0 -0.44935756908E+00  0.10986051486E+03 -0.16917043767E+03  0.33146086952E+03  0.26301736899E+03 0.  0.
         25    1    4    4    0    0  0.66324259181E+01  0.72942500165E+02 -0.46392559558E+02  0.15219847268E+03  0.12509000000E+03 0.  0.
         25    1    3    3    0    0  0.44935756908E+00 -0.10986051486E+03 -0.57870205204E+02  0.17625550601E+03  0.12509000000E+03 0.  0.
         25    1    4    4    0    0 -0.70817834871E+01  0.36918014696E+02 -0.12277787811E+03  0.17926239684E+03  0.12509000000E+03 0.  0.
<mgrwt>
<rscale>  2 0.45412384E+03</rscale>
<asrwt>0</asrwt>
<pdfrwt beam="1">  1       21 0.20637922E-01 0.45412384E+03</pdfrwt>
<pdfrwt beam="2">  1       21 0.54026250E-01 0.45412384E+03</pdfrwt>
<totfact> 0.65183988E+04</totfact>
</mgrwt>
</event>
<event>
 7    0  0.4709932E-002  0.4503409E+03  0.7546771E-02  0.1027620E+00
         21   -1    0    0  502  501  0.00000000000E+00  0.00000000000E+00  0.17477816467E+02  0.17477816467E+02  0.00000000000E+00 0.  1.
         21   -1    0    0  501  502 -0.00000000000E+00 -0.00000000000E+00 -0.29009189750E+04  0.29009189750E+04  0.00000000000E+00 0.  1.
      99926    2    1    2    0    0  0.71054273576E-14  0.00000000000E+00 -0.28834411585E+04  0.29183967915E+04  0.45034089058E+03 0.  0.
      99925    2    3    3    0    0  0.37334125031E+02  0.73155151448E+01 -0.24821868909E+04  0.24963780134E+04  0.26306666598E+03 0.  0.
         25    1    4    4    0    0  0.90074702379E+00  0.15579194580E+02 -0.15462566547E+04  0.15513866935E+04  0.12509000000E+03 0.  0.
         25    1    4    4    0    0  0.36433378007E+02 -0.82636794355E+01 -0.93593023618E+03  0.94499131981E+03  0.12509000000E+03 0.  0.
         25    1    3    3    0    0 -0.37334125031E+02 -0.73155151448E+01 -0.40125426768E+03  0.42201877812E+03  0.12509000000E+03 0.  0.
<mgrwt>
<rscale>  2 0.45034089E+03</rscale>
<asrwt>0</asrwt>
<pdfrwt beam="1">  1       21 0.25702679E-02 0.45034089E+03</pdfrwt>
<pdfrwt beam="2">  1       21 0.42660561E+00 0.45034089E+03</pdfrwt>
<totfact> 0.38660185E+03</totfact>
</mgrwt>
</event>
<event>
 7    0  0.4709932E-002  0.4528368E+03  0.7546771E-02  0.1026879E+00
         21   -1    0    0  502  501  0.00000000000E+00  0.00000000000E+00  0.28494188769E+03  0.28494188769E+03  0.00000000000E+00 0.  1.
         21   -1    0    0  501  502 -0.00000000000E+00 -0.00000000000E+00 -0.17991490466E+03  0.17991490466E+03  0.00000000000E+00 0.  1.
      99926    2    1    2    0    0  0.00000000000E+00  0.00000000000E+00  0.10502698303E+03  0.46485679235E+03  0.45283680308E+03 0.  0.
      99925    2    3    3    0    0  0.80076739173E+02 -0.74134276033E+02  0.43791631127E+02  0.28792332615E+03  0.26281925299E+03 0.  0.
         25    1    4    4    0    0  0.66174091811E+01 -0.49789002530E+02  0.40662616859E+02  0.14079663131E+03  0.12509000000E+03 0.  0.
         25    1    3    3    0    0 -0.80076739173E+02  0.74134276033E+02  0.61235351900E+02  0.17693346620E+03  0.12509000000E+03 0.  0.
         25    1    4    4    0    0  0.73459329992E+02 -0.24345273503E+02  0.31290142680E+01  0.14712669484E+03  0.12509000000E+03 0.  0.
<mgrwt>
<rscale>  2 0.45283680E+03</rscale>
<asrwt>0</asrwt>
<pdfrwt beam="1">  1       21 0.41903219E-01 0.45283680E+03</pdfrwt>
<pdfrwt beam="2">  1       21 0.26458074E-01 0.45283680E+03</pdfrwt>
<totfact> 0.68996756E+04</totfact>
</mgrwt>
</event>
<event>
 7    0  0.4709932E-002  0.4399384E+03  0.7546771E-02  0.1030766E+00
         21   -1    0    0  502  501  0.00000000000E+00  0.00000000000E+00  0.13676703831E+03  0.13676703831E+03  0.00000000000E+00 0.  1.
         21   -1    0    0  501  502 -0.00000000000E+00 -0.00000000000E+00 -0.35378738738E+03  0.35378738738E+03  0.00000000000E+00 0.  1.
      99926    2    1    2    0    0  0.14210854715E-13  0.35527136788E-14 -0.21702034908E+03  0.49055442569E+03  0.43993841916E+03 0.  0.
      99925    2    3    3    0    0  0.82964745045E+02  0.31351402184E+02 -0.91015322636E+02  0.29208318312E+03  0.26298809396E+03 0.  0.
         25    1    3    3    0    0 -0.82964745045E+02 -0.31351402184E+02 -0.12600502644E+03  0.19847124257E+03  0.12509000000E+03 0.  0.
         25    1    4    4    0    0  0.50820973589E+02  0.54090471389E+02 -0.59897046521E+02  0.15730135007E+03  0.12509000000E+03 0.  0.
         25    1    4    4    0    0  0.32143771456E+02 -0.22739069204E+02 -0.31118276115E+02  0.13478183305E+03  0.12509000000E+03 0.  0.
<mgrwt>
<rscale>  2 0.43993842E+03</rscale>
<asrwt>0</asrwt>
<pdfrwt beam="1">  1       21 0.20112800E-01 0.43993842E+03</pdfrwt>
<pdfrwt beam="2">  1       21 0.52027555E-01 0.43993842E+03</pdfrwt>
<totfact> 0.74450454E+04</totfact>
</mgrwt>
</event>
<event>
 7    0  0.4709932E-002  0.4557332E+03  0.7546771E-02  0.1026026E+00
         21   -1    0    0  502  501  0.00000000000E+00  0.00000000000E+00  0.44503994823E+03  0.44503994823E+03  0.00000000000E+00 0. -1.
         21   -1    0    0  501  502 -0.00000000000E+00 -0.00000000000E+00 -0.11667082850E+03  0.11667082850E+03  0.00000000000E+00 0. -1.
      99926    2    1    2    0    0  0.00000000000E+00 -0.14210854715E-13  0.32836911972E+03  0.56171077673E+03  0.45573316525E+03 0.  0.
      99925    2    3    3    0    0 -0.64097364252E+02  0.71333901676E+02  0.28242604994E+03  0.39753017071E+03  0.26280937066E+03 0.  0.
         25    1    4    4    0    0 -0.97580109573E+01  0.62618624994E+02  0.11459218957E+03  0.18109442008E+03  0.12509000000E+03 0.  0.
         25    1    3    3    0    0  0.64097364252E+02 -0.71333901676E+02  0.45943069783E+02  0.16418060602E+03  0.12509000000E+03 0.  0.
         25    1    4    4    0    0 -0.54339353295E+02  0.87152766816E+01  0.16783386037E+03  0.21643575063E+03  0.12509000000E+03 0.  0.
<mgrwt>
<rscale>  2 0.45573317E+03</rscale>
<asrwt>0</asrwt>
<pdfrwt beam="1">  1       21 0.65447051E-01 0.45573317E+03</pdfrwt>
<pdfrwt beam="2">  1       21 0.17157475E-01 0.45573317E+03</pdfrwt>
<totfact> 0.60746190E+04</totfact>
</mgrwt>
</event>
<event>
 7    0  0.4709932E-002  0.4462451E+03  0.7546771E-02  0.1028848E+00
         21   -1    0    0  502  501  0.00000000000E+00  0.00000000000E+00  0.60833872301E+03  0.60833872301E+03  0.00000000000E+00 0.  1.
         21   -1    0    0  501  502 -0.00000000000E+00 -0.00000000000E+00 -0.81835434387E+02  0.81835434387E+02  0.00000000000E+00 0.  1.
      99926    2    1    2    0    0 -0.44408920985E-15  0.00000000000E+00  0.52650328862E+03  0.69017415739E+03  0.44624506116E+03 0.  0.
      99925    2    3    3    0    0 -0.37558632984E+01  0.10438214575E+03  0.31945583008E+03  0.42668621261E+03  0.26286756703E+03 0.  0.
         25    1    4    4    0    0  0.26179287935E+01  0.77326966992E+02  0.21925449022E+03  0.26401960715E+03  0.12509000000E+03 0.  0.
         25    1    3    3    0    0  0.37558632984E+01 -0.10438214575E+03  0.20704745854E+03  0.26348794478E+03  0.12509000000E+03 0.  0.
         25    1    4    4    0    0 -0.63737920919E+01  0.27055178755E+02  0.10020133986E+03  0.16266660546E+03  0.12509000000E+03 0.  0.
<mgrwt>
<rscale>  2 0.44624506E+03</rscale>
<asrwt>0</asrwt>
<pdfrwt beam="1">  1       21 0.89461575E-01 0.44624506E+03</pdfrwt>
<pdfrwt beam="2">  1       21 0.12034623E-01 0.44624506E+03</pdfrwt>
<totfact> 0.57286903E+04</totfact>
</mgrwt>
</event>
<event>
 7    0  0.4709932E-002  0.4624725E+03  0.7546771E-02  0.1024067E+00
         21   -1    0    0  502  501  0.00000000000E+00  0.00000000000E+00  0.60308433435E+02  0.60308433435E+02  0.00000000000E+00 0.  1.
         21   -1    0    0  501  502 -0.00000000000E+00 -0.00000000000E+00 -0.88661230197E+03  0.88661230197E+03  0.00000000000E+00 0.  1.
      99926    2    1    2    0    0  0.00000000000E+00  0.00000000000E+00 -0.82630386854E+03  0.94692073541E+03  0.46247248133E+03 0.  0.
      99925    2    3    3    0    0  0.40054413188E+02 -0.85736840204E+02 -0.36464937501E+03  0.45934762163E+03  0.26282296136E+03 0.  0.
         25    1    4    4    0    0  0.14112810189E+02 -0.70144459908E+02 -0.14283834756E+03  0.20290322398E+03  0.12509000000E+03 0.  0.
         25    1    3    3    0    0 -0.40054413188E+02  0.85736840204E+02 -0.46165449353E+03  0.48757311378E+03  0.12509000000E+03 0.  0.
         25    1    4    4    0    0  0.25941602999E+02 -0.15592380297E+02 -0.22181102745E+03  0.25644439765E+03  0.12509000000E+03 0.  0.
<mgrwt>
<rscale>  2 0.46247248E+03</rscale>
<asrwt>0</asrwt>
<pdfrwt beam="1">  1       21 0.88688878E-02 0.46247248E+03</pdfrwt>
<pdfrwt beam="2">  1       21 0.13038415E+00 0.46247248E+03</pdfrwt>
<totfact> 0.38939945E+04</totfact>
</mgrwt>
</event>
<event>
 7    0  0.4709932E-002  0.4486176E+03  0.7546771E-02  0.1028135E+00
         21   -1    0    0  502  501  0.00000000000E+00  0.00000000000E+00  0.12094471461E+03  0.12094471461E+03  0.00000000000E+00 0. -1.
         21   -1    0    0  501  502 -0.00000000000E+00 -0.00000000000E+00 -0.41601185453E+03  0.41601185453E+03  0.00000000000E+00 0. -1.
      99926    2    1    2    0    0 -0.71054273576E-14  0.00000000000E+00 -0.29506713992E+03  0.53695656914E+03  0.44861758780E+03 0.  0.
      99925    2    3    3    0    0  0.63754759553E+02  0.84863731912E+02 -0.20421402044E+03  0.34942438583E+03  0.26292111537E+03 0.  0.
         25    1    4    4    0    0  0.65632881107E+02  0.27311793816E+02 -0.12477719837E+03  0.19044806771E+03  0.12509000000E+03 0.  0.
         25    1    4    4    0    0 -0.18781215545E+01  0.57551938096E+02 -0.79436822075E+02  0.15897631811E+03  0.12509000000E+03 0.  0.
         25    1    3    3    0    0 -0.63754759553E+02 -0.84863731912E+02 -0.90853119484E+02  0.18753218332E+03  0.12509000000E+03 0.  0.
<mgrwt>
<rscale>  2 0.44861759E+03</rscale>
<asrwt>0</asrwt>
<pdfrwt beam="1">  1       21 0.17785987E-01 0.44861759E+03</pdfrwt>
<pdfrwt beam="2">  1       21 0.61178214E-01 0.44861759E+03</pdfrwt>
<totfact> 0.66008390E+04</totfact>
</mgrwt>
</event>
<event>
 7    0  0.4709932E-002  0.4537775E+03  0.7546771E-02  0.1026602E+00
         21   -1    0    0  502  501  0.00000000000E+00  0.00000000000E+00  0.19616828230E+03  0.19616828230E+03  0.00000000000E+00 0. -1.
         21   -1    0    0  501  502 -0.00000000000E+00 -0.00000000000E+00 -0.26242011973E+03  0.26242011973E+03  0.00000000000E+00 0. -1.
      99926    2    1    2    0    0 -0.71054273576E-14  0.00000000000E+00 -0.66251837430E+02  0.45858840203E+03  0.45377749670E+03 0.  0.
      99925    2    3    3    0    0  0.44776113740E+02  0.91184969768E+02 -0.88672896694E+02  0.29589294704E+03  0.26338214524E+03 0.  0.
         25    1    4    4    0    0  0.63931534392E+02  0.47775528311E+02 -0.51027040674E+02  0.15691083192E+03  0.12509000000E+03 0.  0.
         25    1    4    4    0    0 -0.19155420652E+02  0.43409441457E+02 -0.37645856020E+02  0.13898211512E+03  0.12509000000E+03 0.  0.
         25    1    3    3    0    0 -0.44776113740E+02 -0.91184969768E+02  0.22421059264E+02  0.16269545498E+03  0.12509000000E+03 0.  0.
<mgrwt>
<rscale>  2 0.45377750E+03</rscale>
<asrwt>0</asrwt>
<pdfrwt beam="1">  1       21 0.28848277E-01 0.45377750E+03</pdfrwt>
<pdfrwt beam="2">  1       21 0.38591194E-01 0.45377750E+03</pdfrwt>
<totfact> 0.68953354E+04</totfact>
</mgrwt>
</event>
<event>
 7    0  0.4709932E-002  0.4539679E+03  0.7546771E-02  0.1026545E+00
         21   -1    0    0  502  501  0.00000000000E+00  0.00000000000E+00  0.16936613634E+03  0.16936613634E+03  0.00000000000E+00 0. -1.
         21   -1    0    0  501  502 -0.00000000000E+00 -0.00000000000E+00 -0.30420321861E+03  0.30420321861E+03  0.00000000000E+00 0. -1.
      99926    2    1    2    0    0 -0.35527136788E-14  0.00000000000E+00 -0.13483708227E+03  0.47356935494E+03  0.45396794511E+03 0.  0.
      99925    2    3    3    0    0 -0.21689550236E+02 -0.75951128752E+02 -0.17698159664E+01  0.27458841111E+03  0.26297652503E+03 0.  0.
         25    1    3    3    0    0  0.21689550236E+02  0.75951128752E+02 -0.13306726630E+03  0.19898094384E+03  0.12509000000E+03 0.  0.
         25    1    4    4    0    0 -0.49454159356E+02 -0.52076432937E+02 -0.26566900251E+00  0.14424024204E+03  0.12509000000E+03 0.  0.
         25    1    4    4    0    0  0.27764609120E+02 -0.23874695815E+02 -0.15041469639E+01  0.13034816906E+03  0.12509000000E+03 0.  0.
<mgrwt>
<rscale>  2 0.45396795E+03</rscale>
<asrwt>0</asrwt>
<pdfrwt beam="1">  1       21 0.24906785E-01 0.45396795E+03</pdfrwt>
<pdfrwt beam="2">  1       21 0.44735767E-01 0.45396795E+03</pdfrwt>
<totfact> 0.67724237E+04</totfact>
</mgrwt>
</event>
<event>
 7    0  0.4709932E-002  0.4471201E+03  0.7546771E-02  0.1028584E+00
         21   -1    0    0  502  501  0.00000000000E+00  0.00000000000E+00  0.55323995217E+02  0.55323995217E+02  0.00000000000E+00 0.  1.
         21   -1    0    0  501  502 -0.00000000000E+00 -0.00000000000E+00 -0.90338915512E+03  0.90338915512E+03  0.00000000000E+00 0.  1.
      99926    2    1    2    0    0  0.00000000000E+00  0.00000000000E+00 -0.84806515991E+03  0.95871315034E+03  0.44712010600E+03 0.  0.
      99925    2    3    3    0    0 -0.87408585970E+02 -0.54571892891E+02 -0.58797130387E+03  0.65225813824E+03  0.26289175021E+03 0.  0.
         25    1    4    4    0    0 -0.74399384762E+02 -0.27788065132E+02 -0.24945082479E+03  0.29013904788E+03  0.12509000000E+03 0.  0.
         25    1    4    4    0    0 -0.13009201208E+02 -0.26783827758E+02 -0.33852047907E+03  0.36211909035E+03  0.12509000000E+03 0.  0.
         25    1    3    3    0    0  0.87408585970E+02  0.54571892891E+02 -0.26009385604E+03  0.30645501211E+03  0.12509000000E+03 0.  0.
<mgrwt>
<rscale>  2 0.44712011E+03</rscale>
<asrwt>0</asrwt>
<pdfrwt beam="1">  1       21 0.81358815E-02 0.44712011E+03</pdfrwt>
<pdfrwt beam="2">  1       21 0.13285135E+00 0.44712011E+03</pdfrwt>
<totfact> 0.43403097E+04</totfact>
</mgrwt>
</event>
<event>
 7    0  0.4709932E-002  0.4333484E+03  0.7546771E-02  0.1032807E+00
         21   -1    0    0  502  501  0.00000000000E+00  0.00000000000E+00  0.71021363624E+02  0.71021363624E+02  0.00000000000E+00 0.  1.
         21   -1    0    0  501  502 -0.00000000000E+00 -0.00000000000E+00 -0.66103653491E+03  0.66103653491E+03  0.00000000000E+00 0.  1.
      99926    2    1    2    0    0  0.14210854715E-13  0.00000000000E+00 -0.59001517129E+03  0.73205789853E+03  0.43334843309E+03 0.  0.
      99925    2    3    3    0    0 -0.79418601129E+02  0.17711777004E+02 -0.45052848251E+03  0.52779075557E+03  0.26261406448E+03 0.  0.
         25    1    3    3    0    0  0.79418601129E+02 -0.17711777004E+02 -0.13948668878E+03  0.20426714297E+03  0.12509000000E+03 0.  0.
         25    1    4    4    0    0 -0.68465637253E+01 -0.15315333282E+02 -0.19332289316E+03  0.23087374036E+03  0.12509000000E+03 0.  0.
         25    1    4    4    0    0 -0.72572037403E+02  0.33027110285E+02 -0.25720558935E+03  0.29691701521E+03  0.12509000000E+03 0.  0.
<mgrwt>
<rscale>  2 0.43334843E+03</rscale>
<asrwt>0</asrwt>
<pdfrwt beam="1">  1       21 0.10444317E-01 0.43334843E+03</pdfrwt>
<pdfrwt beam="2">  1       21 0.97211262E-01 0.43334843E+03</pdfrwt>
<totfact> 0.60925295E+04</totfact>
</mgrwt>
</event>
<event>
 7    0  0.4709932E-002  0.4848652E+03  0.7546771E-02  0.1017807E+00
         21   -1    0    0  502  501  0.00000000000E+00  0.00000000000E+00  0.23633126707E+04  0.23633126707E+04  0.00000000000E+00 0.  1.
         21   -1    0    0  501  502 -0.00000000000E+00 -0.00000000000E+00 -0.24869143984E+02  0.24869143984E+02  0.00000000000E+00 0.  1.
      99926    2    1    2    0    0  0.26645352591E-14  0.00000000000E+00  0.23384435268E+04  0.23881818147E+04  0.48486518987E+03 0.  0.
      99925    2    3    3    0    0 -0.48490521654E+01 -0.13874394184E+03  0.13766186952E+04  0.14083716753E+04  0.26297975014E+03 0.  0.
         25    1    4    4    0    0  0.20122183559E+02 -0.90561745659E+02  0.60050101650E+03  0.62036707760E+03  0.12509000000E+03 0.  0.
         25    1    4    4    0    0 -0.24971235724E+02 -0.48182196184E+02  0.77611767871E+03  0.78800459767E+03  0.12509000000E+03 0.  0.
         25    1    3    3    0    0  0.48490521654E+01  0.13874394184E+03  0.96182483155E+03  0.97981013946E+03  0.12509000000E+03 0.  0.
<mgrwt>
<rscale>  2 0.48486519E+03</rscale>
<asrwt>0</asrwt>
<pdfrwt beam="1">  1       21 0.34754583E+00 0.48486519E+03</pdfrwt>
<pdfrwt beam="2">  1       21 0.36572287E-02 0.48486519E+03</pdfrwt>
<totfact> 0.66595818E+03</totfact>
</mgrwt>
</event>
<event>
 7    0  0.4709932E-002  0.4566892E+03  0.7546771E-02  0.1025746E+00
         21   -1    0    0  502  501  0.00000000000E+00  0.00000000000E+00  0.10199339338E+04  0.10199339338E+04  0.00000000000E+00 0.  1.
         21   -1    0    0  501  502 -0.00000000000E+00 -0.00000000000E+00 -0.51122193186E+02  0.51122193186E+02  0.00000000000E+00 0.  1.
      99926    2    1    2    0    0 -0.35527136788E-14  0.00000000000E+00  0.96881174061E+03  0.10710561270E+04  0.45668921424E+03 0.  0.
      99925    2    3    3    0    0 -0.20512570342E+02 -0.89968621555E+02  0.44904272936E+03  0.52854119487E+03  0.26306140629E+03 0.  0.
         25    1    4    4    0    0  0.63069968921E+01 -0.26976173495E+02  0.27618099020E+03  0.30445186745E+03  0.12509000000E+03 0.  0.
         25    1    4    4    0    0 -0.26819567234E+02 -0.62992448060E+02  0.17286173916E+03  0.22408932743E+03  0.12509000000E+03 0.  0.
         25    1    3    3    0    0  0.20512570342E+02  0.89968621555E+02  0.51976901125E+03  0.54251493211E+03  0.12509000000E+03 0.  0.
<mgrwt>
<rscale>  2 0.45668921E+03</rscale>
<asrwt>0</asrwt>
<pdfrwt beam="1">  1       21 0.14999027E+00 0.45668921E+03</pdfrwt>
<pdfrwt beam="2">  1       21 0.75179702E-02 0.45668921E+03</pdfrwt>
<totfact> 0.36036767E+04</totfact>
</mgrwt>
</event>
<event>
 7    0  0.4709932E-002  0.4623276E+03  0.7546771E-02  0.1024108E+00
         21   -1    0    0  502  501  0.00000000000E+00  0.00000000000E+00  0.13126236757E+03  0.13126236757E+03  0.00000000000E+00 0. -1.
         21   -1    0    0  501  502 -0.00000000000E+00 -0.00000000000E+00 -0.40709841354E+03  0.40709841354E+03  0.00000000000E+00 0. -1.
      99926    2    1    2    0    0  0.00000000000E+00  0.00000000000E+00 -0.27583604597E+03  0.53836078111E+03  0.46232759639E+03 0.  0.
      99925    2    3    3    0    0  0.59629934884E+02 -0.81257453530E+02 -0.98442636522E+02  0.29904000745E+03  0.26377162562E+03 0.  0.
         25    1    4    4    0    0  0.35821971424E+02 -0.32170262682E+02 -0.59264445474E+01  0.13416694929E+03  0.12509000000E+03 0.  0.
         25    1    4    4    0    0  0.23807963460E+02 -0.49087190848E+02 -0.92516191975E+02  0.16487305816E+03  0.12509000000E+03 0.  0.
         25    1    3    3    0    0 -0.59629934884E+02  0.81257453530E+02 -0.17739340944E+03  0.23932077365E+03  0.12509000000E+03 0.  0.
<mgrwt>
<rscale>  2 0.46232760E+03</rscale>
<asrwt>0</asrwt>
<pdfrwt beam="1">  1       21 0.19303289E-01 0.46232760E+03</pdfrwt>
<pdfrwt beam="2">  1       21 0.59867415E-01 0.46232760E+03</pdfrwt>
<totfact> 0.59134604E+04</totfact>
</mgrwt>
</event>
<event>
 7    0  0.4709932E-002  0.4240251E+03  0.7546771E-02  0.1035764E+00
         21   -1    0    0  502  501  0.00000000000E+00  0.00000000000E+00  0.13585797602E+03  0.13585797602E+03  0.00000000000E+00 0. -1.
         21   -1    0    0  501  502 -0.00000000000E+00 -0.00000000000E+00 -0.33085517839E+03  0.33085517839E+03  0.00000000000E+00 0. -1.
      99926    2    1    2    0    0  0.00000000000E+00  0.53290705182E-14 -0.19499720238E+03  0.46671315441E+03  0.42402506950E+03 0.  0.
      99925    2    3    3    0    0  0.75702822942E+02  0.12413602946E+02 -0.15416753084E+03  0.31439905422E+03  0.26304775762E+03 0.  0.
         25    1    4    4    0    0  0.18435009635E+02 -0.29186464144E+02 -0.82756044185E+02  0.15390831757E+03  0.12509000000E+03 0.  0.
         25    1    4    4    0    0  0.57267813307E+02  0.41600067090E+02 -0.71411486651E+02  0.16049073664E+03  0.12509000000E+03 0.  0.
         25    1    3    3    0    0 -0.75702822942E+02 -0.12413602946E+02 -0.40829671540E+02  0.15231410019E+03  0.12509000000E+03 0.  0.
<mgrwt>
<rscale>  2 0.42402507E+03</rscale>
<asrwt>0</asrwt>
<pdfrwt beam="1">  1       21 0.19979114E-01 0.42402507E+03</pdfrwt>
<pdfrwt beam="2">  1       21 0.48655172E-01 0.42402507E+03</pdfrwt>
<totfact> 0.87235631E+04</totfact>
</mgrwt>
</event>
<event>
 7    0  0.4709932E-002  0.4439146E+03  0.7546771E-02  0.1029552E+00
         21   -1    0    0  502  501  0.00000000000E+00  0.00000000000E+00  0.45166255762E+02  0.45166255762E+02  0.00000000000E+00 0. -1.
         21   -1    0    0  501  502 -0.00000000000E+00 -0.00000000000E+00 -0.10907490012E+04  0.10907490012E+04  0.00000000000E+00 0. -1.
      99926    2    1    2    0    0  0.00000000000E+00 -0.71054273576E-14 -0.10455827455E+04  0.11359152570E+04  0.44391462405E+03 0.  0.
      99925    2    3    3    0    0  0.50852809431E+02 -0.38288469203E+02 -0.87011164187E+03  0.91121627747E+03  0.26299965761E+03 0.  0.
         25    1    3    3    0    0 -0.50852809431E+02  0.38288469203E+02 -0.17547110359E+03  0.22469897952E+03  0.12509000000E+03 0.  0.
         25    1    4    4    0    0  0.29166523689E+02 -0.41932595112E+02 -0.56072459693E+03  0.57677431491E+03  0.12509000000E+03 0.  0.
         25    1    4    4    0    0  0.21686285742E+02  0.36441259085E+01 -0.30938704494E+03  0.33444196256E+03  0.12509000000E+03 0.  0.
<mgrwt>
<rscale>  2 0.44391462E+03</rscale>
<asrwt>0</asrwt>
<pdfrwt beam="1">  1       21 0.66420974E-02 0.44391462E+03</pdfrwt>
<pdfrwt beam="2">  1       21 0.16040424E+00 0.44391462E+03</pdfrwt>
<totfact> 0.37383402E+04</totfact>
</mgrwt>
</event>
<event>
 7    0  0.4709932E-002  0.4522050E+03  0.7546771E-02  0.1027067E+00
         21   -1    0    0  502  501  0.00000000000E+00  0.00000000000E+00  0.20206869918E+04  0.20206869918E+04  0.00000000000E+00 0.  1.
         21   -1    0    0  501  502 -0.00000000000E+00 -0.00000000000E+00 -0.25299481722E+02  0.25299481722E+02  0.00000000000E+00 0.  1.
      99926    2    1    2    0    0  0.00000000000E+00  0.00000000000E+00  0.19953875101E+04  0.20459864735E+04  0.45220496952E+03 0.  0.
      99925    2    3    3    0    0 -0.81933360127E+02  0.73244448648E+02  0.12028613157E+04  0.12361574165E+04  0.26292962698E+03 0.  0.
         25    1    3    3    0    0  0.81933360127E+02 -0.73244448648E+02  0.79252619440E+03  0.80982905706E+03  0.12509000000E+03 0.  0.
         25    1    4    4    0    0 -0.73248837889E+02  0.26639630233E+02  0.52908829526E+03  0.54923309663E+03  0.12509000000E+03 0.  0.
         25    1    4    4    0    0 -0.86845222381E+01  0.46604818416E+02  0.67377302045E+03  0.68692431986E+03  0.12509000000E+03 0.  0.
<mgrwt>
<rscale>  2 0.45220497E+03</rscale>
<asrwt>0</asrwt>
<pdfrwt beam="1">  1       21 0.29715974E+00 0.45220497E+03</pdfrwt>
<pdfrwt beam="2">  1       21 0.37205134E-02 0.45220497E+03</pdfrwt>
<totfact> 0.13258782E+04</totfact>
</mgrwt>
</event>
<event>
 7    0  0.4709932E-002  0.4598627E+03  0.7546771E-02  0.1024821E+00
         21   -1    0    0  502  501  0.00000000000E+00  0.00000000000E+00  0.56221394426E+03  0.56221394426E+03  0.00000000000E+00 0.  1.
         21   -1    0    0  501  502 -0.00000000000E+00 -0.00000000000E+00 -0.94036142076E+02  0.94036142076E+02  0.00000000000E+00 0.  1.
      99926    2    1    2    0    0  0.14210854715E-13  0.88817841970E-15  0.46817780218E+03  0.65625008634E+03  0.45986272012E+03 0.  0.
      99925    2    3    3    0    0  0.66429666736E+02  0.29228197514E+01  0.43178369349E+03  0.50998497516E+03  0.26310848226E+03 0.  0.
         25    1    3    3    0    0 -0.66429666736E+02 -0.29228197514E+01  0.36394108699E+02  0.14626511117E+03  0.12509000000E+03 0.  0.
         25    1    4    4    0    0 -0.23517714584E+01 -0.25576158208E+01  0.24203090748E+03  0.27246750358E+03  0.12509000000E+03 0.  0.
         25    1    4    4    0    0  0.68781438195E+02  0.54804355721E+01  0.18975278600E+03  0.23751747159E+03  0.12509000000E+03 0.  0.
<mgrwt>
<rscale>  2 0.45986272E+03</rscale>
<asrwt>0</asrwt>
<pdfrwt beam="1">  1       21 0.82678520E-01 0.45986272E+03</pdfrwt>
<pdfrwt beam="2">  1       21 0.13828845E-01 0.45986272E+03</pdfrwt>
<totfact> 0.53270065E+04</totfact>
</mgrwt>
</event>
<event>
 7    0  0.4709932E-002  0.4524307E+03  0.7546771E-02  0.1027000E+00
         21   -1    0    0  502  501  0.00000000000E+00  0.00000000000E+00  0.42051627843E+02  0.42051627843E+02  0.00000000000E+00 0.  1.
         21   -1    0    0  501  502 -0.00000000000E+00 -0.00000000000E+00 -0.12169177885E+04  0.12169177885E+04  0.00000000000E+00 0.  1.
      99926    2    1    2    0    0 -0.71054273576E-14  0.00000000000E+00 -0.11748661606E+04  0.12589694163E+04  0.45243065305E+03 0.  0.
      99925    2    3    3    0    0 -0.39835572659E+02  0.25835159871E+02 -0.46185111971E+03  0.53350936571E+03  0.26281449389E+03 0.  0.
         25    1    4    4    0    0 -0.16970522424E+02  0.95284163866E+01 -0.30952353441E+03  0.33441159640E+03  0.12509000000E+03 0.  0.
         25    1    3    3    0    0  0.39835572659E+02 -0.25835159871E+02 -0.71301504091E+03  0.72546005059E+03  0.12509000000E+03 0.  0.
         25    1    4    4    0    0 -0.22865050235E+02  0.16306743484E+02 -0.15232758529E+03  0.19909776932E+03  0.12509000000E+03 0.  0.
<mgrwt>
<rscale>  2 0.45243065E+03</rscale>
<asrwt>0</asrwt>
<pdfrwt beam="1">  1       21 0.61840635E-02 0.45243065E+03</pdfrwt>
<pdfrwt beam="2">  1       21 0.17895848E+00 0.45243065E+03</pdfrwt>
<totfact> 0.30944206E+04</totfact>
</mgrwt>
</event>
<event>
 7    0  0.4709932E-002  0.4557869E+03  0.7546771E-02  0.1026010E+00
         21   -1    0    0  502  501  0.00000000000E+00  0.00000000000E+00  0.13037638873E+04  0.13037638873E+04  0.00000000000E+00 0.  1.
         21   -1    0    0  501  502 -0.00000000000E+00 -0.00000000000E+00 -0.39834986272E+02  0.39834986272E+02  0.00000000000E+00 0.  1.
      99926    2    1    2    0    0  0.35527136788E-14  0.14210854715E-13  0.12639289010E+04  0.13435988736E+04  0.45578686489E+03 0.  0.
      99925    2    3    3    0    0  0.30243943222E+02  0.10589295469E+03  0.88059522619E+03  0.92560338518E+03  0.26299365070E+03 0.  0.
         25    1    4    4    0    0  0.55767409526E+02  0.58576335687E+02  0.46355279869E+03  0.48689824023E+03  0.12509000000E+03 0.  0.
         25    1    4    4    0    0 -0.25523466304E+02  0.47316618998E+02  0.41704242750E+03  0.43870514495E+03  0.12509000000E+03 0.  0.
         25    1    3    3    0    0 -0.30243943222E+02 -0.10589295469E+03  0.38333367484E+03  0.41799548839E+03  0.12509000000E+03 0.  0.
<mgrwt>
<rscale>  2 0.45578686E+03</rscale>
<asrwt>0</asrwt>
<pdfrwt beam="1">  1       21 0.19172996E+00 0.45578686E+03</pdfrwt>
<pdfrwt beam="2">  1       21 0.58580871E-02 0.45578686E+03</pdfrwt>
<totfact> 0.27704488E+04</totfact>
</mgrwt>
</event>
<event>
 7    0  0.4709932E-002  0.4557666E+03  0.7546771E-02  0.1026016E+00
         21   -1    0    0  502  501  0.00000000000E+00  0.00000000000E+00  0.47882407027E+03  0.47882407027E+03  0.00000000000E+00 0.  1.
         21   -1    0    0  501  502 -0.00000000000E+00 -0.00000000000E+00 -0.10845485824E+03  0.10845485824E+03  0.00000000000E+00 0.  1.
      99926    2    1    2    0    0  0.00000000000E+00  0.00000000000E+00  0.37036921203E+03  0.58727892850E+03  0.45576659229E+03 0.  0.
      99925    2    3    3    0    0  0.54583497206E+02  0.96265165404E+02  0.19847991304E+03  0.34761295378E+03  0.26304780842E+03 0.  0.
         25    1    3    3    0    0 -0.54583497206E+02 -0.96265165404E+02  0.17188929898E+03  0.23966597473E+03  0.12509000000E+03 0.  0.
         25    1    4    4    0    0  0.23776071401E+02  0.79265949686E+02  0.72363921165E+02  0.16653059039E+03  0.12509000000E+03 0.  0.
         25    1    4    4    0    0  0.30807425806E+02  0.16999215718E+02  0.12611599188E+03  0.18108236338E+03  0.12509000000E+03 0.  0.
<mgrwt>
<rscale>  2 0.45576659E+03</rscale>
<asrwt>0</asrwt>
<pdfrwt beam="1">  1       21 0.70415304E-01 0.45576659E+03</pdfrwt>
<pdfrwt beam="2">  1       21 0.15949244E-01 0.45576659E+03</pdfrwt>
<totfact> 0.59109220E+04</totfact>
</mgrwt>
</event>
<event>
 7    0  0.4709932E-002  0.4474132E+03  0.7546771E-02  0.1028496E+00
         21   -1    0    0  502  501  0.00000000000E+00  0.00000000000E+00  0.35151145640E+03  0.35151145640E+03  0.00000000000E+00 0. -1.
         21   -1    0    0  501  502 -0.00000000000E+00 -0.00000000000E+00 -0.14236985953E+03  0.14236985953E+03  0.00000000000E+00 0. -1.
      99926    2    1    2    0    0  0.35527136788E-14  0.00000000000E+00  0.20914159687E+03  0.49388131594E+03  0.44741317224E+03 0.  0.
      99925    2    3    3    0    0  0.22368278801E+02  0.88189042302E+02  0.19225493051E+03  0.33828467497E+03  0.26305306678E+03 0.  0.
         25    1    4    4    0    0  0.38922382422E+02  0.36829229517E+02  0.61073059043E+02  0.14916021802E+03  0.12509000000E+03 0.  0.
         25    1    4    4    0    0 -0.16554103621E+02  0.51359812785E+02  0.13118187146E+03  0.18912445695E+03  0.12509000000E+03 0.  0.
         25    1    3    3    0    0 -0.22368278801E+02 -0.88189042302E+02  0.16886666364E+02  0.15559664096E+03  0.12509000000E+03 0.  0.
<mgrwt>
<rscale>  2 0.44741317E+03</rscale>
<asrwt>0</asrwt>
<pdfrwt beam="1">  1       21 0.51692861E-01 0.44741317E+03</pdfrwt>
<pdfrwt beam="2">  1       21 0.20936744E-01 0.44741317E+03</pdfrwt>
<totfact> 0.69813485E+04</totfact>
</mgrwt>
</event>
<event>
 7    0  0.4709932E-002  0.4509122E+03  0.7546771E-02  0.1027450E+00
         21   -1    0    0  502  501  0.00000000000E+00  0.00000000000E+00  0.41625490619E+02  0.41625490619E+02  0.00000000000E+00 0. -1.
         21   -1    0    0  501  502 -0.00000000000E+00 -0.00000000000E+00 -0.12211374444E+04  0.12211374444E+04  0.00000000000E+00 0. -1.
      99926    2    1    2    0    0  0.00000000000E+00  0.88817841970E-15 -0.11795119538E+04  0.12627629350E+04  0.45091216544E+03 0.  0.
      99925    2    3    3    0    0  0.98852320332E+02 -0.42325057771E+01 -0.61487887167E+03  0.67603666080E+03  0.26298259369E+03 0.  0.
         25    1    4    4    0    0  0.19857307983E+02 -0.24864998674E+02 -0.33055461310E+03  0.35486115761E+03  0.12509000000E+03 0.  0.
         25    1    4    4    0    0  0.78995012350E+02  0.20632492897E+02 -0.28432425857E+03  0.32117550320E+03  0.12509000000E+03 0.  0.
         25    1    3    3    0    0 -0.98852320332E+02  0.42325057771E+01 -0.56463308209E+03  0.58672627420E+03  0.12509000000E+03 0.  0.
<mgrwt>
<rscale>  2 0.45091217E+03</rscale>
<asrwt>0</asrwt>
<pdfrwt beam="1">  1       21 0.61213966E-02 0.45091217E+03</pdfrwt>
<pdfrwt beam="2">  1       21 0.17957901E+00 0.45091217E+03</pdfrwt>
<totfact> 0.31196368E+04</totfact>
</mgrwt>
</event>
<event>
 7    0  0.4709932E-002  0.4637762E+03  0.7546771E-02  0.1023692E+00
         21   -1    0    0  502  501  0.00000000000E+00  0.00000000000E+00  0.23299393893E+04  0.23299393893E+04  0.00000000000E+00 0.  1.
         21   -1    0    0  501  502 -0.00000000000E+00 -0.00000000000E+00 -0.23078751645E+02  0.23078751645E+02  0.00000000000E+00 0.  1.
      99926    2    1    2    0    0 -0.71054273576E-14  0.00000000000E+00  0.23068606376E+04  0.23530181409E+04  0.46377620686E+03 0.  0.
      99925    2    3    3    0    0 -0.44071754321E+02  0.11282554158E+03  0.14071552679E+04  0.14366180193E+04  0.26289439557E+03 0.  0.
         25    1    3    3    0    0  0.44071754321E+02 -0.11282554158E+03  0.89970536974E+03  0.91640012157E+03  0.12509000000E+03 0.  0.
         25    1    4    4    0    0 -0.22058254511E+02  0.30031126963E+02  0.81370235068E+03  0.82410403395E+03  0.12509000000E+03 0.  0.
         25    1    4    4    0    0 -0.22013499810E+02  0.82794414619E+02  0.59345291719E+03  0.61251398538E+03  0.12509000000E+03 0.  0.
<mgrwt>
<rscale>  2 0.46377621E+03</rscale>
<asrwt>0</asrwt>
<pdfrwt beam="1">  1       21 0.34263798E+00 0.46377621E+03</pdfrwt>
<pdfrwt beam="2">  1       21 0.33939357E-02 0.46377621E+03</pdfrwt>
<totfact> 0.81826479E+03</totfact>
</mgrwt>
</event>
<event>
 7    0  0.4709932E-002  0.4583828E+03  0.7546771E-02  0.1025251E+00
         21   -1    0    0  502  501  0.00000000000E+00  0.00000000000E+00  0.24527163508E+02  0.24527163508E+02  0.00000000000E+00 0. -1.
         21   -1    0    0  501  502 -0.00000000000E+00 -0.00000000000E+00 -0.21416542832E+04  0.21416542832E+04  0.00000000000E+00 0. -1.
      99926    2    1    2    0    0 -0.14210854715E-13  0.00000000000E+00 -0.21171271197E+04  0.21661814467E+04  0.45838283031E+03 0.  0.
      99925    2    3    3    0    0  0.86152976276E+02 -0.59342077455E+02 -0.10876813351E+04  0.11239003191E+04  0.26297798966E+03 0.  0.
         25    1    4    4    0    0  0.13034228738E+02  0.53007931360E+00 -0.45191528293E+03  0.46908965364E+03  0.12509000000E+03 0.  0.
         25    1    3    3    0    0 -0.86152976276E+02  0.59342077455E+02 -0.10294457846E+04  0.10422811277E+04  0.12509000000E+03 0.  0.
         25    1    4    4    0    0  0.73118747539E+02 -0.59872156769E+02 -0.63576605217E+03  0.65481066546E+03  0.12509000000E+03 0.  0.
<mgrwt>
<rscale>  2 0.45838283E+03</rscale>
<asrwt>0</asrwt>
<pdfrwt beam="1">  1       21 0.36069353E-02 0.45838283E+03</pdfrwt>
<pdfrwt beam="2">  1       21 0.31494920E+00 0.45838283E+03</pdfrwt>
<totfact> 0.10892467E+04</totfact>
</mgrwt>
</event>
<event>
 7    0  0.4709932E-002  0.4532336E+03  0.7546771E-02  0.1026762E+00
         21   -1    0    0  502  501  0.00000000000E+00  0.00000000000E+00  0.41242454080E+02  0.41242454080E+02  0.00000000000E+00 0.  1.
         21   -1    0    0  501  502 -0.00000000000E+00 -0.00000000000E+00 -0.12452019307E+04  0.12452019307E+04  0.00000000000E+00 0.  1.
      99926    2    1    2    0    0  0.00000000000E+00  0.35527136788E-14 -0.12039594767E+04  0.12864443848E+04  0.45323364151E+03 0.  0.
      99925    2    3    3    0    0 -0.46881922171E+02  0.26348836695E+02 -0.10360264478E+04  0.10702472847E+04  0.26303283834E+03 0.  0.
         25    1    4    4    0    0 -0.51119799201E+02  0.43812740299E+02 -0.53874609542E+03  0.55716034811E+03  0.12509000000E+03 0.  0.
         25    1    3    3    0    0  0.46881922171E+02 -0.26348836695E+02 -0.16793302891E+03  0.21619710016E+03  0.12509000000E+03 0.  0.
         25    1    4    4    0    0  0.42378770296E+01 -0.17463903604E+02 -0.49728035234E+03  0.51308693654E+03  0.12509000000E+03 0.  0.
<mgrwt>
<rscale>  2 0.45323364E+03</rscale>
<asrwt>0</asrwt>
<pdfrwt beam="1">  1       21 0.60650665E-02 0.45323364E+03</pdfrwt>
<pdfrwt beam="2">  1       21 0.18311794E+00 0.45323364E+03</pdfrwt>
<totfact> 0.29919947E+04</totfact>
</mgrwt>
</event>
<event>
 7    0  0.4709932E-002  0.4666172E+03  0.7546771E-02  0.1022879E+00
         21   -1    0    0  502  501  0.00000000000E+00  0.00000000000E+00  0.31122874343E+03  0.31122874343E+03  0.00000000000E+00 0. -1.
         21   -1    0    0  501  502 -0.00000000000E+00 -0.00000000000E+00 -0.17489676751E+03  0.17489676751E+03  0.00000000000E+00 0. -1.
      99926    2    1    2    0    0  0.00000000000E+00  0.00000000000E+00  0.13633197592E+03  0.48612551095E+03  0.46661719293E+03 0.  0.
      99925    2    3    3    0    0  0.10197190521E+03  0.40036447472E+01  0.15866030169E+03  0.32315201355E+03  0.26237346265E+03 0.  0.
         25    1    4    4    0    0  0.32714343050E+02  0.17974588332E+02  0.11228622809E+03  0.17218890553E+03  0.12509000000E+03 0.  0.
         25    1    3    3    0    0 -0.10197190521E+03 -0.40036447472E+01 -0.22328325769E+02  0.16297349740E+03  0.12509000000E+03 0.  0.
         25    1    4    4    0    0  0.69257562161E+02 -0.13970943585E+02  0.46374073599E+02  0.15096310802E+03  0.12509000000E+03 0.  0.
<mgrwt>
<rscale>  2 0.46661719E+03</rscale>
<asrwt>0</asrwt>
<pdfrwt beam="1">  1       21 0.45768933E-01 0.46661719E+03</pdfrwt>
<pdfrwt beam="2">  1       21 0.25720113E-01 0.46661719E+03</pdfrwt>
<totfact> 0.60484342E+04</totfact>
</mgrwt>
</event>
<event>
 7    0  0.4709932E-002  0.4554493E+03  0.7546771E-02  0.1026109E+00
         21   -1    0    0  502  501  0.00000000000E+00  0.00000000000E+00  0.26602278527E+03  0.26602278527E+03  0.00000000000E+00 0. -1.
         21   -1    0    0  501  502 -0.00000000000E+00 -0.00000000000E+00 -0.19494013981E+03  0.19494013981E+03  0.00000000000E+00 0. -1.
      99926    2    1    2    0    0 -0.30531133177E-14  0.00000000000E+00  0.71082645461E+02  0.46096292508E+03  0.45544931201E+03 0.  0.
      99925    2    3    3    0    0  0.43497103069E+00 -0.60743825214E+02 -0.52524312354E+02  0.27490865982E+03  0.26291817426E+03 0.  0.
         25    1    4    4    0    0 -0.25658681842E+02 -0.32636860435E+02 -0.57910360591E+02  0.14396058689E+03  0.12509000000E+03 0.  0.
         25    1    3    3    0    0 -0.43497103069E+00  0.60743825214E+02  0.12360695782E+03  0.18605426526E+03  0.12509000000E+03 0.  0.
         25    1    4    4    0    0  0.26093652873E+02 -0.28106964778E+02  0.53860482370E+01  0.13094807293E+03  0.12509000000E+03 0.  0.
<mgrwt>
<rscale>  2 0.45544931E+03</rscale>
<asrwt>0</asrwt>
<pdfrwt beam="1">  1       21 0.39120998E-01 0.45544931E+03</pdfrwt>
<pdfrwt beam="2">  1       21 0.28667668E-01 0.45544931E+03</pdfrwt>
<totfact> 0.67866932E+04</totfact>
</mgrwt>
</event>
<event>
 7    0  0.4709932E-002  0.4519046E+03  0.7546771E-02  0.1027156E+00
         21   -1    0    0  502  501  0.00000000000E+00  0.00000000000E+00  0.18576154828E+03  0.18576154828E+03  0.00000000000E+00 0. -1.
         21   -1    0    0  501  502 -0.00000000000E+00 -0.00000000000E+00 -0.27483864339E+03  0.27483864339E+03  0.00000000000E+00 0. -1.
      99926    2    1    2    0    0  0.00000000000E+00  0.00000000000E+00 -0.89077095113E+02  0.46060019167E+03  0.45190464446E+03 0.  0.
      99925    2    3    3    0    0  0.48913839781E+02 -0.98484746206E+02 -0.47888582336E+02  0.28903151550E+03  0.26297165565E+03 0.  0.
         25    1    4    4    0    0  0.37034691901E+02 -0.89730447081E+02 -0.37012037113E+02  0.16260541359E+03  0.12509000000E+03 0.  0.
         25    1    4    4    0    0  0.11879147880E+02 -0.87542991243E+01 -0.10876545223E+02  0.12642610191E+03  0.12509000000E+03 0.  0.
         25    1    3    3    0    0 -0.48913839781E+02  0.98484746206E+02 -0.41188512777E+02  0.17156867617E+03  0.12509000000E+03 0.  0.
<mgrwt>
<rscale>  2 0.45190464E+03</rscale>
<asrwt>0</asrwt>
<pdfrwt beam="1">  1       21 0.27317875E-01 0.45190464E+03</pdfrwt>
<pdfrwt beam="2">  1       21 0.40417447E-01 0.45190464E+03</pdfrwt>
<totfact> 0.69840804E+04</totfact>
</mgrwt>
</event>
<event>
 7    0  0.4709932E-002  0.4618212E+03  0.7546771E-02  0.1024254E+00
         21   -1    0    0  502  501  0.00000000000E+00  0.00000000000E+00  0.33727882834E+02  0.33727882834E+02  0.00000000000E+00 0.  1.
         21   -1    0    0  501  502 -0.00000000000E+00 -0.00000000000E+00 -0.15808792135E+04  0.15808792135E+04  0.00000000000E+00 0.  1.
      99926    2    1    2    0    0  0.14210854715E-13 -0.35527136788E-14 -0.15471513307E+04  0.16146070963E+04  0.46182121600E+03 0.  0.
      99925    2    3    3    0    0 -0.10190627076E+03 -0.22203223803E+02 -0.76376945009E+03  0.81447426356E+03  0.26295756681E+03 0.  0.
         25    1    4    4    0    0 -0.20228795881E+02  0.14341504158E+02 -0.38917117691E+03  0.40953216719E+03  0.12509000000E+03 0.  0.
         25    1    3    3    0    0  0.10190627076E+03  0.22203223803E+02 -0.78338188057E+03  0.80013283277E+03  0.12509000000E+03 0.  0.
         25    1    4    4    0    0 -0.81677474879E+02 -0.36544727961E+02 -0.37459827318E+03  0.40494209637E+03  0.12509000000E+03 0.  0.
<mgrwt>
<rscale>  2 0.46182122E+03</rscale>
<asrwt>0</asrwt>
<pdfrwt beam="1">  1       21 0.49599835E-02 0.46182122E+03</pdfrwt>
<pdfrwt beam="2">  1       21 0.23248220E+00 0.46182122E+03</pdfrwt>
<totfact> 0.20020179E+04</totfact>
</mgrwt>
</event>
<event>
 7    0  0.4709932E-002  0.4589598E+03  0.7546771E-02  0.1025083E+00
         21   -1    0    0  502  501  0.00000000000E+00  0.00000000000E+00  0.11246820724E+03  0.11246820724E+03  0.00000000000E+00 0. -1.
         21   -1    0    0  501  502 -0.00000000000E+00 -0.00000000000E+00 -0.46823037672E+03  0.46823037672E+03  0.00000000000E+00 0. -1.
      99926    2    1    2    0    0  0.00000000000E+00  0.71054273576E-14 -0.35576216948E+03  0.58069858396E+03  0.45895982850E+03 0.  0.
      99925    2    3    3    0    0 -0.10072663644E+03  0.36185388425E+02 -0.28215285766E+03  0.40036257394E+03  0.26310590625E+03 0.  0.
         25    1    3    3    0    0  0.10072663644E+03 -0.36185388425E+02 -0.73609311823E+02  0.18033601002E+03  0.12509000000E+03 0.  0.
         25    1    4    4    0    0 -0.51244967991E+02 -0.22612935915E+02 -0.12923176743E+03  0.18837661593E+03  0.12509000000E+03 0.  0.
         25    1    4    4    0    0 -0.49481668445E+02  0.58798324340E+02 -0.15292109022E+03  0.21198595801E+03  0.12509000000E+03 0.  0.
<mgrwt>
<rscale>  2 0.45895983E+03</rscale>
<asrwt>0</asrwt>
<pdfrwt beam="1">  1       21 0.16539443E-01 0.45895983E+03</pdfrwt>
<pdfrwt beam="2">  1       21 0.68857407E-01 0.45895983E+03</pdfrwt>
<totfact> 0.58043812E+04</totfact>
</mgrwt>
</event>
<event>
 7    0  0.4709932E-002  0.4578373E+03  0.7546771E-02  0.1025410E+00
         21   -1    0    0  502  501  0.00000000000E+00  0.00000000000E+00  0.16969977390E+03  0.16969977390E+03  0.00000000000E+00 0.  1.
         21   -1    0    0  501  502 -0.00000000000E+00 -0.00000000000E+00 -0.30880274756E+03  0.30880274756E+03  0.00000000000E+00 0.  1.
      99926    2    1    2    0    0  0.35527136788E-14  0.00000000000E+00 -0.13910297366E+03  0.47850252146E+03  0.45783733549E+03 0.  0.
      99925    2    3    3    0    0 -0.29245144364E+02 -0.76226100101E+02 -0.15797794712E+01  0.27546106302E+03  0.26307908456E+03 0.  0.
         25    1    4    4    0    0 -0.12420435922E+02 -0.49839198500E+02 -0.39818799710E+02  0.14096544912E+03  0.12509000000E+03 0.  0.
         25    1    4    4    0    0 -0.16824708442E+02 -0.26386901601E+02  0.38239020239E+02  0.13449561390E+03  0.12509000000E+03 0.  0.
         25    1    3    3    0    0  0.29245144364E+02  0.76226100101E+02 -0.13752319418E+03  0.20304145844E+03  0.12509000000E+03 0.  0.
<mgrwt>
<rscale>  2 0.45783734E+03</rscale>
<asrwt>0</asrwt>
<pdfrwt beam="1">  1       21 0.24955849E-01 0.45783734E+03</pdfrwt>
<pdfrwt beam="2">  1       21 0.45412168E-01 0.45783734E+03</pdfrwt>
<totfact> 0.65325784E+04</totfact>
</mgrwt>
</event>
<event>
 7    0  0.4709932E-002  0.4520670E+03  0.7546771E-02  0.1027107E+00
         21   -1    0    0  502  501  0.00000000000E+00  0.00000000000E+00  0.30239669281E+03  0.30239669281E+03  0.00000000000E+00 0.  1.
         21   -1    0    0  501  502 -0.00000000000E+00 -0.00000000000E+00 -0.16895405355E+03  0.16895405355E+03  0.00000000000E+00 0.  1.
      99926    2    1    2    0    0  0.00000000000E+00 -0.14210854715E-13  0.13344263926E+03  0.47135074636E+03  0.45206701729E+03 0.  0.
      99925    2    3    3    0    0  0.64112399230E+02  0.75501986604E+02  0.33249906350E+02  0.28294416064E+03  0.26294655740E+03 0.  0.
         25    1    4    4    0    0  0.65794496233E+01  0.62783390251E+02  0.35914905363E+02  0.14464588406E+03  0.12509000000E+03 0.  0.
         25    1    3    3    0    0 -0.64112399230E+02 -0.75501986604E+02  0.10019273291E+03  0.18840658573E+03  0.12509000000E+03 0.  0.
         25    1    4    4    0    0  0.57532949607E+02  0.12718596353E+02 -0.26649990135E+01  0.13829827657E+03  0.12509000000E+03 0.  0.
<mgrwt>
<rscale>  2 0.45206702E+03</rscale>
<asrwt>0</asrwt>
<pdfrwt beam="1">  1       21 0.44470102E-01 0.45206702E+03</pdfrwt>
<pdfrwt beam="2">  1       21 0.24846184E-01 0.45206702E+03</pdfrwt>
<totfact> 0.68925539E+04</totfact>
</mgrwt>
</event>
<event>
 7    0  0.4709932E-002  0.4384869E+03  0.7546771E-02  0.1031212E+00
         21   -1    0    0  502  501  0.00000000000E+00  0.00000000000E+00  0.16764937029E+03  0.16764937029E+03  0.00000000000E+00 0. -1.
         21   -1    0    0  501  502 -0.00000000000E+00 -0.00000000000E+00 -0.28671562276E+03  0.28671562276E+03  0.00000000000E+00 0. -1.
      99926    2    1    2    0    0  0.00000000000E+00  0.00000000000E+00 -0.11906625247E+03  0.45436499305E+03  0.43848691478E+03 0.  0.
      99925    2    3    3    0    0 -0.75237035120E+02 -0.27196078824E+02 -0.13269563512E+03  0.30525595131E+03  0.26300727380E+03 0.  0.
         25    1    4    4    0    0 -0.64564292308E+02  0.29526222507E+01 -0.98043445567E+02  0.17157299070E+03  0.12509000000E+03 0.  0.
         25    1    4    4    0    0 -0.10672742812E+02 -0.30148701074E+02 -0.34652189558E+02  0.13368296061E+03  0.12509000000E+03 0.  0.
         25    1    3    3    0    0  0.75237035120E+02  0.27196078824E+02  0.13629382656E+02  0.14910904174E+03  0.12509000000E+03 0.  0.
<mgrwt>
<rscale>  2 0.43848691E+03</rscale>
<asrwt>0</asrwt>
<pdfrwt beam="1">  1       21 0.24654320E-01 0.43848691E+03</pdfrwt>
<pdfrwt beam="2">  1       21 0.42164061E-01 0.43848691E+03</pdfrwt>
<totfact> 0.78392639E+04</totfact>
</mgrwt>
</event>
<event>
 7    0  0.4709932E-002  0.4122338E+03  0.7546771E-02  0.1039624E+00
         21   -1    0    0  502  501  0.00000000000E+00  0.00000000000E+00  0.60589164809E+03  0.60589164809E+03  0.00000000000E+00 0. -1.
         21   -1    0    0  501  502 -0.00000000000E+00 -0.00000000000E+00 -0.70118445931E+02  0.70118445931E+02  0.00000000000E+00 0. -1.
      99926    2    1    2    0    0 -0.71054273576E-14 -0.35527136788E-14  0.53577320216E+03  0.67601009402E+03  0.41223382087E+03 0.  0.
      99925    2    3    3    0    0 -0.59000667528E+02 -0.23530793137E+02  0.37763019802E+03  0.46460646384E+03  0.26309660354E+03 0.  0.
         25    1    3    3    0    0  0.59000667528E+02  0.23530793137E+02  0.15814300414E+03  0.21140363018E+03  0.12509000000E+03 0.  0.
         25    1    4    4    0    0  0.47127104631E+01  0.11229159190E+02  0.18746390416E+03  0.22569565153E+03  0.12509000000E+03 0.  0.
         25    1    4    4    0    0 -0.63713377991E+02 -0.34759952327E+02  0.19016629386E+03  0.23891081232E+03  0.12509000000E+03 0.  0.
<mgrwt>
<rscale>  2 0.41223382E+03</rscale>
<asrwt>0</asrwt>
<pdfrwt beam="1">  1       21 0.89101710E-01 0.41223382E+03</pdfrwt>
<pdfrwt beam="2">  1       21 0.10311537E-01 0.41223382E+03</pdfrwt>
<totfact> 0.77088190E+04</totfact>
</mgrwt>
</event>
<event>
 7    0  0.4709932E-002  0.4499493E+03  0.7546771E-02  0.1027737E+00
         21   -1    0    0  502  501  0.00000000000E+00  0.00000000000E+00  0.41907638861E+02  0.41907638861E+02  0.00000000000E+00 0. -1.
         21   -1    0    0  501  502 -0.00000000000E+00 -0.00000000000E+00 -0.12077416309E+04  0.12077416309E+04  0.00000000000E+00 0. -1.
      99926    2    1    2    0    0  0.00000000000E+00  0.00000000000E+00 -0.11658339920E+04  0.12496492697E+04  0.44994933095E+03 0.  0.
      99925    2    3    3    0    0  0.74356063949E+01  0.10179559332E+03 -0.63519114479E+03  0.69498994143E+03  0.26291747225E+03 0.  0.
         25    1    4    4    0    0 -0.62022711622E-01  0.16229618046E+02 -0.23000792611E+03  0.26232529142E+03  0.12509000000E+03 0.  0.
         25    1    4    4    0    0  0.74976291065E+01  0.85565975275E+02 -0.40518321868E+03  0.43266465001E+03  0.12509000000E+03 0.  0.
         25    1    3    3    0    0 -0.74356063949E+01 -0.10179559332E+03 -0.53064284723E+03  0.55465932831E+03  0.12509000000E+03 0.  0.
<mgrwt>
<rscale>  2 0.44994933E+03</rscale>
<asrwt>0</asrwt>
<pdfrwt beam="1">  1       21 0.61628892E-02 0.44994933E+03</pdfrwt>
<pdfrwt beam="2">  1       21 0.17760903E+00 0.44994933E+03</pdfrwt>
<totfact> 0.31846537E+04</totfact>
</mgrwt>
</event>
<event>
 7    0  0.4709932E-002  0.4563605E+03  0.7546771E-02  0.1025842E+00
         21   -1    0    0  502  501  0.00000000000E+00  0.00000000000E+00  0.32510738806E+03  0.32510738806E+03  0.00000000000E+00 0.  1.
         21   -1    0    0  501  502 -0.00000000000E+00 -0.00000000000E+00 -0.16015083478E+03  0.16015083478E+03  0.00000000000E+00 0.  1.
      99926    2    1    2    0    0  0.00000000000E+00  0.35527136788E-14  0.16495655328E+03  0.48525822284E+03  0.45636046977E+03 0.  0.
      99925    2    3    3    0    0 -0.10786281628E+03 -0.31466987246E+02  0.88773580252E+02  0.30066160342E+03  0.26437112702E+03 0.  0.
         25    1    3    3    0    0  0.10786281628E+03  0.31466987246E+02  0.76182973025E+02  0.18459661942E+03  0.12509000000E+03 0.  0.
         25    1    4    4    0    0 -0.49985782632E+02 -0.58229175632E+02  0.49302713026E+02  0.15481434356E+03  0.12509000000E+03 0.  0.
         25    1    4    4    0    0 -0.57877033643E+02  0.26762188386E+02  0.39470867227E+02  0.14584725986E+03  0.12509000000E+03 0.  0.
<mgrwt>
<rscale>  2 0.45636047E+03</rscale>
<asrwt>0</asrwt>
<pdfrwt beam="1">  1       21 0.47809910E-01 0.45636047E+03</pdfrwt>
<pdfrwt beam="2">  1       21 0.23551593E-01 0.45636047E+03</pdfrwt>
<totfact> 0.65607870E+04</totfact>
</mgrwt>
</event>
<event>
 7    0  0.4709932E-002  0.4611119E+03  0.7546771E-02  0.1024459E+00
         21   -1    0    0  502  501  0.00000000000E+00  0.00000000000E+00  0.16610048653E+03  0.16610048653E+03  0.00000000000E+00 0. -1.
         21   -1    0    0  501  502 -0.00000000000E+00 -0.00000000000E+00 -0.32002336779E+03  0.32002336779E+03  0.00000000000E+00 0. -1.
      99926    2    1    2    0    0  0.00000000000E+00  0.00000000000E+00 -0.15392288127E+03  0.48612385432E+03  0.46111186101E+03 0.  0.
      99925    2    3    3    0    0  0.87121289270E+02 -0.80185783619E+02 -0.86765700552E+02  0.30125234770E+03  0.26306807344E+03 0.  0.
         25    1    4    4    0    0  0.32492887800E+01 -0.22852044722E+02 -0.33694337484E+02  0.13158871648E+03  0.12509000000E+03 0.  0.
         25    1    4    4    0    0  0.83872000490E+02 -0.57333738897E+02 -0.53071363068E+02  0.16966363122E+03  0.12509000000E+03 0.  0.
         25    1    3    3    0    0 -0.87121289270E+02  0.80185783619E+02 -0.67157180716E+02  0.18487150662E+03  0.12509000000E+03 0.  0.
<mgrwt>
<rscale>  2 0.46111186E+03</rscale>
<asrwt>0</asrwt>
<pdfrwt beam="1">  1       21 0.24426542E-01 0.46111186E+03</pdfrwt>
<pdfrwt beam="2">  1       21 0.47062260E-01 0.46111186E+03</pdfrwt>
<totfact> 0.63137733E+04</totfact>
</mgrwt>
</event>
<event>
 7    0  0.4709932E-002  0.4369108E+03  0.7546771E-02  0.1031699E+00
         21   -1    0    0  502  501  0.00000000000E+00  0.00000000000E+00  0.56152159059E+02  0.56152159059E+02  0.00000000000E+00 0. -1.
         21   -1    0    0  501  502 -0.00000000000E+00 -0.00000000000E+00 -0.84988298519E+03  0.84988298519E+03  0.00000000000E+00 0. -1.
      99926    2    1    2    0    0  0.00000000000E+00  0.71054273576E-14 -0.79373082613E+03  0.90603514425E+03  0.43691081271E+03 0.  0.
      99925    2    3    3    0    0 -0.80340687404E+02 -0.32134549398E+02 -0.42547480325E+03  0.50760414419E+03  0.26295608699E+03 0.  0.
         25    1    4    4    0    0 -0.56463908802E+02 -0.35242520642E+02 -0.16389163253E+03  0.21665221802E+03  0.12509000000E+03 0.  0.
         25    1    4    4    0    0 -0.23876778602E+02  0.31079712444E+01 -0.26158317072E+03  0.29095192617E+03  0.12509000000E+03 0.  0.
         25    1    3    3    0    0  0.80340687404E+02  0.32134549398E+02 -0.36825602288E+03  0.39843100006E+03  0.12509000000E+03 0.  0.
<mgrwt>
<rscale>  2 0.43691081E+03</rscale>
<asrwt>0</asrwt>
<pdfrwt beam="1">  1       21 0.82576700E-02 0.43691081E+03</pdfrwt>
<pdfrwt beam="2">  1       21 0.12498280E+00 0.43691081E+03</pdfrwt>
<totfact> 0.49635197E+04</totfact>
</mgrwt>
</event>
<event>
 7    0  0.4709932E-002  0.4647340E+03  0.7546771E-02  0.1023417E+00
         21   -1    0    0  502  501  0.00000000000E+00  0.00000000000E+00  0.59554208247E+02  0.59554208247E+02  0.00000000000E+00 0.  1.
         21   -1    0    0  501  502 -0.00000000000E+00 -0.00000000000E+00 -0.90664325331E+03  0.90664325331E+03  0.00000000000E+00 0.  1.
      99926    2    1    2    0    0  0.00000000000E+00  0.00000000000E+00 -0.84708904506E+03  0.96619746155E+03  0.46473399322E+03 0.  0.
      99925    2    3    3    0    0 -0.91310511750E+02  0.35759164617E+02 -0.67954466621E+03  0.73525384421E+03  0.26306070522E+03 0.  0.
         25    1    3    3    0    0  0.91310511750E+02 -0.35759164617E+02 -0.16754437885E+03  0.23094361735E+03  0.12509000000E+03 0.  0.
         25    1    4    4    0    0 -0.36553211111E+01  0.83994433783E+01 -0.29209928653E+03  0.31788899527E+03  0.12509000000E+03 0.  0.
         25    1    4    4    0    0 -0.87655190639E+02  0.27359721239E+02 -0.38744537968E+03  0.41736484894E+03  0.12509000000E+03 0.  0.
<mgrwt>
<rscale>  2 0.46473399E+03</rscale>
<asrwt>0</asrwt>
<pdfrwt beam="1">  1       21 0.87579725E-02 0.46473399E+03</pdfrwt>
<pdfrwt beam="2">  1       21 0.13332988E+00 0.46473399E+03</pdfrwt>
<totfact> 0.37551452E+04</totfact>
</mgrwt>
</event>
<event>
 7    0  0.4709932E-002  0.4630523E+03  0.7546771E-02  0.1023900E+00
         21   -1    0    0  502  501  0.00000000000E+00  0.00000000000E+00  0.27677662620E+03  0.27677662620E+03  0.00000000000E+00 0. -1.
         21   -1    0    0  501  502 -0.00000000000E+00 -0.00000000000E+00 -0.19367371113E+03  0.19367371113E+03  0.00000000000E+00 0. -1.
      99926    2    1    2    0    0  0.00000000000E+00  0.31086244690E-14  0.83102915068E+02  0.47045033733E+03  0.46305229230E+03 0.  0.
      99925    2    3    3    0    0 -0.11506243294E+03 -0.38447525667E+01  0.87979744090E+02  0.30037553862E+03  0.26311762243E+03 0.  0.
         25    1    4    4    0    0 -0.59409751186E+02  0.36763525399E+02  0.57296860608E+02  0.15430979772E+03  0.12509000000E+03 0.  0.
         25    1    3    3    0    0  0.11506243294E+03  0.38447525667E+01 -0.48768290211E+01  0.17007479871E+03  0.12509000000E+03 0.  0.
         25    1    4    4    0    0 -0.55652681756E+02 -0.40608277966E+02  0.30682883482E+02  0.14606574090E+03  0.12509000000E+03 0.  0.
<mgrwt>
<rscale>  2 0.46305229E+03</rscale>
<asrwt>0</asrwt>
<pdfrwt beam="1">  1       21 0.40702445E-01 0.46305229E+03</pdfrwt>
<pdfrwt beam="2">  1       21 0.28481428E-01 0.46305229E+03</pdfrwt>
<totfact> 0.63260156E+04</totfact>
</mgrwt>
</event>
<event>
 7    0  0.4709932E-002  0.4533413E+03  0.7546771E-02  0.1026730E+00
         21   -1    0    0  502  501  0.00000000000E+00  0.00000000000E+00  0.14799968762E+04  0.14799968762E+04  0.00000000000E+00 0. -1.
         21   -1    0    0  501  502 -0.00000000000E+00 -0.00000000000E+00 -0.34716013091E+02  0.34716013091E+02  0.00000000000E+00 0. -1.
      99926    2    1    2    0    0  0.00000000000E+00  0.00000000000E+00  0.14452808631E+04  0.15147128893E+04  0.45334133247E+03 0.  0.
      99925    2    3    3    0    0 -0.84720342163E+02  0.51742026746E+02  0.10812774429E+04  0.11172197803E+04  0.26299116937E+03 0.  0.
         25    1    3    3    0    0  0.84720342163E+02 -0.51742026746E+02  0.36400342025E+03  0.39749310907E+03  0.12509000000E+03 0.  0.
         25    1    4    4    0    0 -0.54093800523E+02 -0.95284805327E+01  0.59346690834E+03  0.60898884275E+03  0.12509000000E+03 0.  0.
         25    1    4    4    0    0 -0.30626541640E+02  0.61270507279E+02  0.48781053456E+03  0.50823093751E+03  0.12509000000E+03 0.  0.
<mgrwt>
<rscale>  2 0.45334133E+03</rscale>
<asrwt>0</asrwt>
<pdfrwt beam="1">  1       21 0.21764656E+00 0.45334133E+03</pdfrwt>
<pdfrwt beam="2">  1       21 0.51052970E-02 0.45334133E+03</pdfrwt>
<totfact> 0.23725004E+04</totfact>
</mgrwt>
</event>
<event>
 7    0  0.4709932E-002  0.4571184E+03  0.7546771E-02  0.1025620E+00
         21   -1    0    0  502  501  0.00000000000E+00  0.00000000000E+00  0.18624334847E+03  0.18624334847E+03  0.00000000000E+00 0. -1.
         21   -1    0    0  501  502 -0.00000000000E+00 -0.00000000000E+00 -0.28048953775E+03  0.28048953775E+03  0.00000000000E+00 0. -1.
      99926    2    1    2    0    0  0.35527136788E-14  0.00000000000E+00 -0.94246189278E+02  0.46673288622E+03  0.45711841233E+03 0.  0.
      99925    2    3    3    0    0 -0.22829948712E+02  0.53424164351E+02  0.42183816628E+02  0.27273287976E+03  0.26311290623E+03 0.  0.
         25    1    3    3    0    0  0.22829948712E+02 -0.53424164351E+02 -0.13643000591E+03  0.19400000646E+03  0.12509000000E+03 0.  0.
         25    1    4    4    0    0 -0.37891529623E+02  0.56345570965E+02  0.34608005884E+02  0.14647803097E+03  0.12509000000E+03 0.  0.
         25    1    4    4    0    0  0.15061580911E+02 -0.29214066143E+01  0.75758107438E+01  0.12625484880E+03  0.12509000000E+03 0.  0.
<mgrwt>
<rscale>  2 0.45711841E+03</rscale>
<asrwt>0</asrwt>
<pdfrwt beam="1">  1       21 0.27388728E-01 0.45711841E+03</pdfrwt>
<pdfrwt beam="2">  1       21 0.41248461E-01 0.45711841E+03</pdfrwt>
<totfact> 0.66554017E+04</totfact>
</mgrwt>
</event>
<event>
 7    0  0.4709932E-002  0.4603336E+03  0.7546771E-02  0.1024685E+00
         21   -1    0    0  502  501  0.00000000000E+00  0.00000000000E+00  0.38109504043E+03  0.38109504043E+03  0.00000000000E+00 0.  1.
         21   -1    0    0  501  502 -0.00000000000E+00 -0.00000000000E+00 -0.13901192502E+03  0.13901192502E+03  0.00000000000E+00 0.  1.
      99926    2    1    2    0    0  0.00000000000E+00 -0.71054273576E-14  0.24208311542E+03  0.52010696545E+03  0.46033359723E+03 0.  0.
      99925    2    3    3    0    0  0.86895059828E+01  0.33423532144E+02  0.24010491487E+02  0.26634365561E+03  0.26300151932E+03 0.  0.
         25    1    4    4    0    0 -0.20449042625E+02  0.23406394590E+02  0.43527377599E+02  0.13604471086E+03  0.12509000000E+03 0.  0.
         25    1    3    3    0    0 -0.86895059828E+01 -0.33423532144E+02  0.21807262393E+03  0.25376330984E+03  0.12509000000E+03 0.  0.
         25    1    4    4    0    0  0.29138548608E+02  0.10017137554E+02 -0.19516886113E+02  0.13029894475E+03  0.12509000000E+03 0.  0.
<mgrwt>
<rscale>  2 0.46033360E+03</rscale>
<asrwt>0</asrwt>
<pdfrwt beam="1">  1       21 0.56043388E-01 0.46033360E+03</pdfrwt>
<pdfrwt beam="2">  1       21 0.20442930E-01 0.46033360E+03</pdfrwt>
<totfact> 0.61246700E+04</totfact>
</mgrwt>
</event>
<event>
 7    0  0.4709932E-002  0.4702826E+03  0.7546771E-02  0.1021840E+00
         21   -1    0    0  502  501  0.00000000000E+00  0.00000000000E+00  0.90157221995E+02  0.90157221995E+02  0.00000000000E+00 0. -1.
         21   -1    0    0  501  502 -0.00000000000E+00 -0.00000000000E+00 -0.61327776905E+03  0.61327776905E+03  0.00000000000E+00 0. -1.
      99926    2    1    2    0    0  0.14210854715E-13  0.14210854715E-13 -0.52312054706E+03  0.70343499105E+03  0.47028255323E+03 0.  0.
      99925    2    3    3    0    0 -0.66350314475E+02 -0.10736725648E+03 -0.34292228306E+03  0.45035592348E+03  0.26323881476E+03 0.  0.
         25    1    3    3    0    0  0.66350314475E+02  0.10736725648E+03 -0.18019826400E+03  0.25307906757E+03  0.12509000000E+03 0.  0.
         25    1    4    4    0    0 -0.19964218485E+02 -0.94214481610E+02 -0.18662305505E+03  0.24443938173E+03  0.12509000000E+03 0.  0.
         25    1    4    4    0    0 -0.46386095989E+02 -0.13152774868E+02 -0.15629922801E+03  0.20591654174E+03  0.12509000000E+03 0.  0.
<mgrwt>
<rscale>  2 0.47028255E+03</rscale>
<asrwt>0</asrwt>
<pdfrwt beam="1">  1       21 0.13258416E-01 0.47028255E+03</pdfrwt>
<pdfrwt beam="2">  1       21 0.90187903E-01 0.47028255E+03</pdfrwt>
<totfact> 0.46824394E+04</totfact>
</mgrwt>
</event>
<event>
 7    0  0.4709932E-002  0.4526889E+03  0.7546771E-02  0.1026923E+00
         21   -1    0    0  502  501  0.00000000000E+00  0.00000000000E+00  0.14432054581E+03  0.14432054581E+03  0.00000000000E+00 0. -1.
         21   -1    0    0  501  502 -0.00000000000E+00 -0.00000000000E+00 -0.35498620998E+03  0.35498620998E+03  0.00000000000E+00 0. -1.
      99926    2    1    2    0    0  0.00000000000E+00  0.00000000000E+00 -0.21066566417E+03  0.49930675579E+03  0.45268887143E+03 0.  0.
      99925    2    3    3    0    0  0.22039286391E+02 -0.10870080460E+03 -0.12592494492E+03  0.31187652167E+03  0.26288453349E+03 0.  0.
         25    1    4    4    0    0 -0.26198931334E+02 -0.55803852062E+02 -0.79138198275E+02  0.16034592740E+03  0.12509000000E+03 0.  0.
         25    1    3    3    0    0 -0.22039286391E+02  0.10870080460E+03 -0.84740719255E+02  0.18743023413E+03  0.12509000000E+03 0.  0.
         25    1    4    4    0    0  0.48238217725E+02 -0.52896952536E+02 -0.46786746643E+02  0.15153059426E+03  0.12509000000E+03 0.  0.
<mgrwt>
<rscale>  2 0.45268887E+03</rscale>
<asrwt>0</asrwt>
<pdfrwt beam="1">  1       21 0.21223610E-01 0.45268887E+03</pdfrwt>
<pdfrwt beam="2">  1       21 0.52203853E-01 0.45268887E+03</pdfrwt>
<totfact> 0.66531606E+04</totfact>
</mgrwt>
</event>
<event>
 7    0  0.4709932E-002  0.4665229E+03  0.7546771E-02  0.1022906E+00
         21   -1    0    0  502  501  0.00000000000E+00  0.00000000000E+00  0.56249432070E+03  0.56249432070E+03  0.00000000000E+00 0. -1.
         21   -1    0    0  501  502 -0.00000000000E+00 -0.00000000000E+00 -0.96731487571E+02  0.96731487571E+02  0.00000000000E+00 0. -1.
      99926    2    1    2    0    0  0.00000000000E+00  0.00000000000E+00  0.46576283313E+03  0.65922580827E+03  0.46652293573E+03 0.  0.
      99925    2    3    3    0    0  0.87980069779E+01  0.77778817889E+02  0.42539517079E+03  0.50624213038E+03  0.26304580171E+03 0.  0.
         25    1    4    4    0    0 -0.36244259495E+02  0.38089633945E+02  0.21174416893E+03  0.25149069115E+03  0.12509000000E+03 0.  0.
         25    1    4    4    0    0  0.45042266473E+02  0.39689183944E+02  0.21365100187E+03  0.25475143923E+03  0.12509000000E+03 0.  0.
         25    1    3    3    0    0 -0.87980069779E+01 -0.77778817889E+02  0.40367662338E+02  0.15298367789E+03  0.12509000000E+03 0.  0.
<mgrwt>
<rscale>  2 0.46652294E+03</rscale>
<asrwt>0</asrwt>
<pdfrwt beam="1">  1       21 0.82719751E-01 0.46652294E+03</pdfrwt>
<pdfrwt beam="2">  1       21 0.14225219E-01 0.46652294E+03</pdfrwt>
<totfact> 0.50430969E+04</totfact>
</mgrwt>
</event>
<event>
 7    0  0.4709932E-002  0.4551733E+03  0.7546771E-02  0.1026190E+00
         21   -1    0    0  502  501  0.00000000000E+00  0.00000000000E+00  0.51776955743E+02  0.51776955743E+02  0.00000000000E+00 0.  1.
         21   -1    0    0  501  502 -0.00000000000E+00 -0.00000000000E+00 -0.10003615317E+04  0.10003615317E+04  0.00000000000E+00 0.  1.
      99926    2    1    2    0    0  0.00000000000E+00 -0.14210854715E-13 -0.94858457593E+03  0.10521384874E+04  0.45517326263E+03 0.  0.
      99925    2    3    3    0    0  0.47848342570E+02  0.10202752126E+03 -0.57099334318E+03  0.63871167874E+03  0.26309719045E+03 0.  0.
         25    1    3    3    0    0 -0.47848342570E+02 -0.10202752126E+03 -0.37759123274E+03  0.41342680867E+03  0.12509000000E+03 0.  0.
         25    1    4    4    0    0 -0.92273874064E+01  0.64684802232E+02 -0.32720634041E+03  0.35634360612E+03  0.12509000000E+03 0.  0.
         25    1    4    4    0    0  0.57075729977E+02  0.37342719026E+02 -0.24378700277E+03  0.28236807262E+03  0.12509000000E+03 0.  0.
<mgrwt>
<rscale>  2 0.45517326E+03</rscale>
<asrwt>0</asrwt>
<pdfrwt beam="1">  1       21 0.76142581E-02 0.45517326E+03</pdfrwt>
<pdfrwt beam="2">  1       21 0.14711199E+00 0.45517326E+03</pdfrwt>
<totfact> 0.37148752E+04</totfact>
</mgrwt>
</event>
<event>
 7    0  0.4709932E-002  0.4490994E+03  0.7546771E-02  0.1027991E+00
         21   -1    0    0  502  501  0.00000000000E+00  0.00000000000E+00  0.15284512143E+04  0.15284512143E+04  0.00000000000E+00 0.  1.
         21   -1    0    0  501  502 -0.00000000000E+00 -0.00000000000E+00 -0.32989315884E+02  0.32989315884E+02  0.00000000000E+00 0.  1.
      99926    2    1    2    0    0  0.00000000000E+00 -0.71054273576E-14  0.14954618984E+04  0.15614405302E+04  0.44909936505E+03 0.  0.
      99925    2    3    3    0    0  0.89728594696E+02  0.46331928033E+02  0.10759299418E+04  0.11121606186E+04  0.26282719334E+03 0.  0.
         25    1    4    4    0    0  0.61213935703E+02  0.49922540077E+02  0.46788854108E+03  0.49072049163E+03  0.12509000000E+03 0.  0.
         25    1    4    4    0    0  0.28514658994E+02 -0.35906120443E+01  0.60804140076E+03  0.62144012697E+03  0.12509000000E+03 0.  0.
         25    1    3    3    0    0 -0.89728594696E+02 -0.46331928033E+02  0.41953195656E+03  0.44927991157E+03  0.12509000000E+03 0.  0.
<mgrwt>
<rscale>  2 0.44909937E+03</rscale>
<asrwt>0</asrwt>
<pdfrwt beam="1">  1       21 0.22477219E+00 0.44909937E+03</pdfrwt>
<pdfrwt beam="2">  1       21 0.48513710E-02 0.44909937E+03</pdfrwt>
<totfact> 0.23365255E+04</totfact>
</mgrwt>
</event>
<event>
 7    0  0.4709932E-002  0.4619772E+03  0.7546771E-02  0.1024209E+00
         21   -1    0    0  502  501  0.00000000000E+00  0.00000000000E+00  0.19697983226E+03  0.19697983226E+03  0.00000000000E+00 0. -1.
         21   -1    0    0  501  502 -0.00000000000E+00 -0.00000000000E+00 -0.27086904117E+03  0.27086904117E+03  0.00000000000E+00 0. -1.
      99926    2    1    2    0    0 -0.71054273576E-14  0.71054273576E-14 -0.73889208909E+02  0.46784887343E+03  0.46197722149E+03 0.  0.
      99925    2    3    3    0    0 -0.41666340863E+02  0.62137979259E+02 -0.14075555971E+03  0.30748731508E+03  0.26294316671E+03 0.  0.
         25    1    4    4    0    0 -0.41249140056E+02  0.66570711062E+02 -0.86510526181E+02  0.17106937297E+03  0.12509000000E+03 0.  0.
         25    1    3    3    0    0  0.41666340863E+02 -0.62137979259E+02  0.66866350805E+02  0.16036155835E+03  0.12509000000E+03 0.  0.
         25    1    4    4    0    0 -0.41720080718E+00 -0.44327318027E+01 -0.54245033533E+02  0.13641794211E+03  0.12509000000E+03 0.  0.
<mgrwt>
<rscale>  2 0.46197722E+03</rscale>
<asrwt>0</asrwt>
<pdfrwt beam="1">  1       21 0.28967622E-01 0.46197722E+03</pdfrwt>
<pdfrwt beam="2">  1       21 0.39833682E-01 0.46197722E+03</pdfrwt>
<totfact> 0.63976409E+04</totfact>
</mgrwt>
</event>
<event>
 7    0  0.4709932E-002  0.4461583E+03  0.7546771E-02  0.1028874E+00
         21   -1    0    0  502  501  0.00000000000E+00  0.00000000000E+00  0.74709863163E+02  0.74709863163E+02  0.00000000000E+00 0.  1.
         21   -1    0    0  501  502 -0.00000000000E+00 -0.00000000000E+00 -0.66610086229E+03  0.66610086229E+03  0.00000000000E+00 0.  1.
      99926    2    1    2    0    0 -0.71054273576E-14  0.00000000000E+00 -0.59139099913E+03  0.74081072545E+03  0.44615828704E+03 0.  0.
      99925    2    3    3    0    0 -0.41455748340E+02  0.34728039100E+02 -0.22615926562E+03  0.35098211820E+03  0.26289887429E+03 0.  0.
         25    1    3    3    0    0  0.41455748340E+02 -0.34728039100E+02 -0.36523173350E+03  0.38982860725E+03  0.12509000000E+03 0.  0.
         25    1    4    4    0    0  0.88631731294E+01  0.24056824225E+02 -0.14516202769E+03  0.19333082789E+03  0.12509000000E+03 0.  0.
         25    1    4    4    0    0 -0.50318921469E+02  0.10671214876E+02 -0.80997237927E+02  0.15765129031E+03  0.12509000000E+03 0.  0.
<mgrwt>
<rscale>  2 0.44615829E+03</rscale>
<asrwt>0</asrwt>
<pdfrwt beam="1">  1       21 0.10986745E-01 0.44615829E+03</pdfrwt>
<pdfrwt beam="2">  1       21 0.97956010E-01 0.44615829E+03</pdfrwt>
<totfact> 0.54428201E+04</totfact>
</mgrwt>
</event>
<event>
 7    0  0.4709932E-002  0.4575062E+03  0.7546771E-02  0.1025507E+00
         21   -1    0    0  502  501  0.00000000000E+00  0.00000000000E+00  0.49657638842E+03  0.49657638842E+03  0.00000000000E+00 0. -1.
         21   -1    0    0  501  502 -0.00000000000E+00 -0.00000000000E+00 -0.10537750767E+03  0.10537750767E+03  0.00000000000E+00 0. -1.
      99926    2    1    2    0    0  0.00000000000E+00  0.00000000000E+00  0.39119888075E+03  0.60195389610E+03  0.45750620622E+03 0.  0.
      99925    2    3    3    0    0  0.10458263334E+02 -0.11187975729E+03  0.20995645714E+03  0.35472368035E+03  0.26290819718E+03 0.  0.
         25    1    4    4    0    0  0.19976989437E+02 -0.95382999617E+02  0.12998816440E+03  0.20504006366E+03  0.12509000000E+03 0.  0.
         25    1    3    3    0    0 -0.10458263334E+02  0.11187975729E+03  0.18124242361E+03  0.24723021575E+03  0.12509000000E+03 0.  0.
         25    1    4    4    0    0 -0.95187261031E+01 -0.16496757673E+02  0.79968292740E+02  0.14968361669E+03  0.12509000000E+03 0.  0.
<mgrwt>
<rscale>  2 0.45750621E+03</rscale>
<asrwt>0</asrwt>
<pdfrwt beam="1">  1       21 0.73025939E-01 0.45750621E+03</pdfrwt>
<pdfrwt beam="2">  1       21 0.15496692E-01 0.45750621E+03</pdfrwt>
<totfact> 0.57412839E+04</totfact>
</mgrwt>
</event>
<event>
 7    0  0.4709932E-002  0.4535588E+03  0.7546771E-02  0.1026666E+00
         21   -1    0    0  502  501  0.00000000000E+00  0.00000000000E+00  0.12072969823E+04  0.12072969823E+04  0.00000000000E+00 0. -1.
         21   -1    0    0  501  502 -0.00000000000E+00 -0.00000000000E+00 -0.42598386191E+02  0.42598386191E+02  0.00000000000E+00 0. -1.
      99926    2    1    2    0    0  0.14210854715E-13  0.00000000000E+00  0.11646985961E+04  0.12498953685E+04  0.45355883014E+03 0.  0.
      99925    2    3    3    0    0  0.63983233440E+02 -0.77046481358E+02  0.60547490785E+03  0.66816634561E+03  0.26422790716E+03 0.  0.
         25    1    3    3    0    0 -0.63983233440E+02  0.77046481358E+02  0.55922368829E+03  0.58172902291E+03  0.12509000000E+03 0.  0.
         25    1    4    4    0    0 -0.23558609456E+01 -0.93530847305E+01  0.28046979529E+03  0.30725208615E+03  0.12509000000E+03 0.  0.
         25    1    4    4    0    0  0.66339094385E+02 -0.67693396627E+02  0.32500511256E+03  0.36091425946E+03  0.12509000000E+03 0.  0.
<mgrwt>
<rscale>  2 0.45355883E+03</rscale>
<asrwt>0</asrwt>
<pdfrwt beam="1">  1       21 0.17754365E+00 0.45355883E+03</pdfrwt>
<pdfrwt beam="2">  1       21 0.62644694E-02 0.45355883E+03</pdfrwt>
<totfact> 0.30951023E+04</totfact>
</mgrwt>
</event>
<event>
 7    0  0.4709932E-002  0.4467254E+03  0.7546771E-02  0.1028703E+00
         21   -1    0    0  502  501  0.00000000000E+00  0.00000000000E+00  0.45713736878E+02  0.45713736878E+02  0.00000000000E+00 0. -1.
         21   -1    0    0  501  502 -0.00000000000E+00 -0.00000000000E+00 -0.10913766176E+04  0.10913766176E+04  0.00000000000E+00 0. -1.
      99926    2    1    2    0    0  0.44408920985E-15 -0.14210854715E-13 -0.10456628807E+04  0.11370903544E+04  0.44672543482E+03 0.  0.
      99925    2    3    3    0    0  0.38434852484E+01  0.62714856404E+02 -0.44844772621E+03  0.52368887545E+03  0.26305275048E+03 0.  0.
         25    1    4    4    0    0  0.35054356938E+02  0.39008699415E+02 -0.18463098144E+03  0.22909952854E+03  0.12509000000E+03 0.  0.
         25    1    4    4    0    0 -0.31210871690E+02  0.23706156990E+02 -0.26381674478E+03  0.29458934691E+03  0.12509000000E+03 0.  0.
         25    1    3    3    0    0 -0.38434852484E+01 -0.62714856404E+02 -0.59721515446E+03  0.61340147898E+03  0.12509000000E+03 0.  0.
<mgrwt>
<rscale>  2 0.44672543E+03</rscale>
<asrwt>0</asrwt>
<pdfrwt beam="1">  1       21 0.67226078E-02 0.44672543E+03</pdfrwt>
<pdfrwt beam="2">  1       21 0.16049657E+00 0.44672543E+03</pdfrwt>
<totfact> 0.36515237E+04</totfact>
</mgrwt>
</event>
<event>
 7    0  0.4709932E-002  0.4516536E+03  0.7546771E-02  0.1027230E+00
         21   -1    0    0  502  501  0.00000000000E+00  0.00000000000E+00  0.27221215623E+03  0.27221215623E+03  0.00000000000E+00 0.  1.
         21   -1    0    0  501  502 -0.00000000000E+00 -0.00000000000E+00 -0.18734560720E+03  0.18734560720E+03  0.00000000000E+00 0.  1.
      99926    2    1    2    0    0  0.00000000000E+00  0.00000000000E+00  0.84866549036E+02  0.45955776343E+03  0.45165363586E+03 0.  0.
      99925    2    3    3    0    0 -0.66662866211E+02  0.65804359032E+01 -0.35690984573E+02  0.27336198776E+03  0.26261319484E+03 0.  0.
         25    1    3    3    0    0  0.66662866211E+02 -0.65804359032E+01  0.12055753361E+03  0.18619577567E+03  0.12509000000E+03 0.  0.
         25    1    4    4    0    0 -0.63249129630E+02  0.30749415528E+02 -0.21969571807E+02  0.14517626920E+03  0.12509000000E+03 0.  0.
         25    1    4    4    0    0 -0.34137365805E+01 -0.24168979625E+02 -0.13721412766E+02  0.12818571856E+03  0.12509000000E+03 0.  0.
<mgrwt>
<rscale>  2 0.45165364E+03</rscale>
<asrwt>0</asrwt>
<pdfrwt beam="1">  1       21 0.40031199E-01 0.45165364E+03</pdfrwt>
<pdfrwt beam="2">  1       21 0.27550825E-01 0.45165364E+03</pdfrwt>
<totfact> 0.70061319E+04</totfact>
</mgrwt>
</event>
<event>
 7    0  0.4709932E-002  0.4587832E+03  0.7546771E-02  0.1025135E+00
         21   -1    0    0  502  501  0.00000000000E+00  0.00000000000E+00  0.29526268672E+03  0.29526268672E+03  0.00000000000E+00 0.  1.
         21   -1    0    0  501  502 -0.00000000000E+00 -0.00000000000E+00 -0.17821590693E+03  0.17821590693E+03  0.00000000000E+00 0.  1.
      99926    2    1    2    0    0  0.00000000000E+00  0.00000000000E+00  0.11704677978E+03  0.47347859365E+03  0.45878320587E+03 0.  0.
      99925    2    3    3    0    0  0.74890252131E+02  0.87805593127E+02  0.55906136817E+02  0.29263595938E+03  0.26304360197E+03 0.  0.
         25    1    4    4    0    0  0.64259658682E+02  0.79205237492E+02  0.30206393052E+02  0.16420325107E+03  0.12509000000E+03 0.  0.
         25    1    4    4    0    0  0.10630593449E+02  0.86003556358E+01  0.25699743765E+02  0.12843270831E+03  0.12509000000E+03 0.  0.
         25    1    3    3    0    0 -0.74890252131E+02 -0.87805593127E+02  0.61140642964E+02  0.18084263427E+03  0.12509000000E+03 0.  0.
<mgrwt>
<rscale>  2 0.45878321E+03</rscale>
<asrwt>0</asrwt>
<pdfrwt beam="1">  1       21 0.43420983E-01 0.45878321E+03</pdfrwt>
<pdfrwt beam="2">  1       21 0.26208222E-01 0.45878321E+03</pdfrwt>
<totfact> 0.65198962E+04</totfact>
</mgrwt>
</event>
<event>
 7    0  0.4709932E-002  0.4644182E+03  0.7546771E-02  0.1023508E+00
         21   -1    0    0  502  501  0.00000000000E+00  0.00000000000E+00  0.57134309237E+03  0.57134309237E+03  0.00000000000E+00 0.  1.
         21   -1    0    0  501  502 -0.00000000000E+00 -0.00000000000E+00 -0.94375973891E+02  0.94375973891E+02  0.00000000000E+00 0.  1.
      99926    2    1    2    0    0  0.00000000000E+00 -0.11102230246E-14  0.47696711848E+03  0.66571906626E+03  0.46441817694E+03 0.  0.
      99925    2    3    3    0    0 -0.11705407106E+03  0.12043142546E+01  0.34597596896E+03  0.45005892791E+03  0.26296494360E+03 0.  0.
         25    1    3    3    0    0  0.11705407106E+03 -0.12043142546E+01  0.13099114952E+03  0.21566013836E+03  0.12509000000E+03 0.  0.
         25    1    4    4    0    0 -0.72754089446E+02 -0.29642530465E+02  0.14295473978E+03  0.20556119008E+03  0.12509000000E+03 0.  0.
         25    1    4    4    0    0 -0.44299981615E+02  0.30846844719E+02  0.20302122918E+03  0.24449773782E+03  0.12509000000E+03 0.  0.
<mgrwt>
<rscale>  2 0.46441818E+03</rscale>
<asrwt>0</asrwt>
<pdfrwt beam="1">  1       21 0.84021041E-01 0.46441818E+03</pdfrwt>
<pdfrwt beam="2">  1       21 0.13878820E-01 0.46441818E+03</pdfrwt>
<totfact> 0.50916159E+04</totfact>
</mgrwt>
</event>
<event>
 7    0  0.4709932E-002  0.4612755E+03  0.7546771E-02  0.1024412E+00
         21   -1    0    0  502  501  0.00000000000E+00  0.00000000000E+00  0.11513114362E+03  0.11513114362E+03  0.00000000000E+00 0.  1.
         21   -1    0    0  501  502 -0.00000000000E+00 -0.00000000000E+00 -0.46202767814E+03  0.46202767814E+03  0.00000000000E+00 0.  1.
      99926    2    1    2    0    0  0.00000000000E+00  0.00000000000E+00 -0.34689653452E+03  0.57715882176E+03  0.46127551406E+03 0.  0.
      99925    2    3    3    0    0  0.15123926897E+02 -0.43881341434E+02 -0.35402716624E+03  0.44354497780E+03  0.26313990119E+03 0.  0.
         25    1    4    4    0    0  0.83528937129E+01 -0.31294539653E+02 -0.24503860295E+03  0.27702083691E+03  0.12509000000E+03 0.  0.
         25    1    4    4    0    0  0.67710331845E+01 -0.12586801780E+02 -0.10898856329E+03  0.16652414089E+03  0.12509000000E+03 0.  0.
         25    1    3    3    0    0 -0.15123926897E+02  0.43881341434E+02  0.71306317236E+01  0.13361384397E+03  0.12509000000E+03 0.  0.
<mgrwt>
<rscale>  2 0.46127551E+03</rscale>
<asrwt>0</asrwt>
<pdfrwt beam="1">  1       21 0.16931051E-01 0.46127551E+03</pdfrwt>
<pdfrwt beam="2">  1       21 0.67945246E-01 0.46127551E+03</pdfrwt>
<totfact> 0.57214585E+04</totfact>
</mgrwt>
</event>
<event>
 7    0  0.4709932E-002  0.4597078E+03  0.7546771E-02  0.1024866E+00
         21   -1    0    0  502  501  0.00000000000E+00  0.00000000000E+00  0.12054847524E+04  0.12054847524E+04  0.00000000000E+00 0.  1.
         21   -1    0    0  501  502 -0.00000000000E+00 -0.00000000000E+00 -0.43827028969E+02  0.43827028969E+02  0.00000000000E+00 0.  1.
      99926    2    1    2    0    0  0.35527136788E-14  0.00000000000E+00  0.11616577234E+04  0.12493117813E+04  0.45970779921E+03 0.  0.
      99925    2    3    3    0    0 -0.10176523508E+02  0.10290630140E+03  0.57359831252E+03  0.63926699009E+03  0.26259092140E+03 0.  0.
         25    1    3    3    0    0  0.10176523508E+02 -0.10290630140E+03  0.58805941086E+03  0.61004479122E+03  0.12509000000E+03 0.  0.
         25    1    4    4    0    0  0.28912549520E+02  0.53328321303E+02  0.23863239971E+03  0.27617526258E+03  0.12509000000E+03 0.  0.
         25    1    4    4    0    0 -0.39089073029E+02  0.49577980096E+02  0.33496591281E+03  0.36309172751E+03  0.12509000000E+03 0.  0.
<mgrwt>
<rscale>  2 0.45970780E+03</rscale>
<asrwt>0</asrwt>
<pdfrwt beam="1">  1       21 0.17727715E+00 0.45970780E+03</pdfrwt>
<pdfrwt beam="2">  1       21 0.64451521E-02 0.45970780E+03</pdfrwt>
<totfact> 0.29526050E+04</totfact>
</mgrwt>
</event>
<event>
 7    0  0.4709932E-002  0.4534308E+03  0.7546771E-02  0.1026704E+00
         21   -1    0    0  502  501  0.00000000000E+00  0.00000000000E+00  0.37253971079E+03  0.37253971079E+03  0.00000000000E+00 0.  1.
         21   -1    0    0  501  502 -0.00000000000E+00 -0.00000000000E+00 -0.13797155504E+03  0.13797155504E+03  0.00000000000E+00 0.  1.
      99926    2    1    2    0    0  0.00000000000E+00  0.00000000000E+00  0.23456815575E+03  0.51051126584E+03  0.45343084683E+03 0.  0.
      99925    2    3    3    0    0  0.10543766483E+03  0.33888789700E+02  0.14468981331E+03  0.32079786154E+03  0.26402760208E+03 0.  0.
         25    1    3    3    0    0 -0.10543766483E+03 -0.33888789700E+02  0.89878342439E+02  0.18971340430E+03  0.12509000000E+03 0.  0.
         25    1    4    4    0    0  0.31650625307E+02  0.51312536895E+02  0.85033359089E+02  0.16282788085E+03  0.12509000000E+03 0.  0.
         25    1    4    4    0    0  0.73787039519E+02 -0.17423747195E+02  0.59656454224E+02  0.15796998069E+03  0.12509000000E+03 0.  0.
<mgrwt>
<rscale>  2 0.45343085E+03</rscale>
<asrwt>0</asrwt>
<pdfrwt beam="1">  1       21 0.54785251E-01 0.45343085E+03</pdfrwt>
<pdfrwt beam="2">  1       21 0.20289935E-01 0.45343085E+03</pdfrwt>
<totfact> 0.65348325E+04</totfact>
</mgrwt>
</event>
<event>
 7    0  0.4709932E-002  0.4570105E+03  0.7546771E-02  0.1025652E+00
         21   -1    0    0  502  501  0.00000000000E+00  0.00000000000E+00  0.10445072547E+03  0.10445072547E+03  0.00000000000E+00 0. -1.
         21   -1    0    0  501  502 -0.00000000000E+00 -0.00000000000E+00 -0.49989749023E+03  0.49989749023E+03  0.00000000000E+00 0. -1.
      99926    2    1    2    0    0  0.14210854715E-13 -0.71054273576E-14 -0.39544676476E+03  0.60434821571E+03  0.45701052731E+03 0.  0.
      99925    2    3    3    0    0  0.10761645886E+03 -0.33911407768E+02 -0.27809106449E+03  0.39904075291E+03  0.26299733181E+03 0.  0.
         25    1    4    4    0    0  0.13187559980E+02 -0.29471563117E+01 -0.10974017667E+03  0.16695212471E+03  0.12509000000E+03 0.  0.
         25    1    3    3    0    0 -0.10761645886E+03  0.33911407768E+02 -0.11735570027E+03  0.20530746280E+03  0.12509000000E+03 0.  0.
         25    1    4    4    0    0  0.94428898880E+02 -0.30964251457E+02 -0.16835088782E+03  0.23208862820E+03  0.12509000000E+03 0.  0.
<mgrwt>
<rscale>  2 0.45701053E+03</rscale>
<asrwt>0</asrwt>
<pdfrwt beam="1">  1       21 0.15360401E-01 0.45701053E+03</pdfrwt>
<pdfrwt beam="2">  1       21 0.73514338E-01 0.45701053E+03</pdfrwt>
<totfact> 0.57492757E+04</totfact>
</mgrwt>
</event>
<event>
 7    0  0.4709932E-002  0.4558401E+03  0.7546771E-02  0.1025995E+00
         21   -1    0    0  502  501  0.00000000000E+00  0.00000000000E+00  0.55523464314E+02  0.55523464314E+02  0.00000000000E+00 0.  1.
         21   -1    0    0  501  502 -0.00000000000E+00 -0.00000000000E+00 -0.93559646555E+03  0.93559646555E+03  0.00000000000E+00 0.  1.
      99926    2    1    2    0    0 -0.17763568394E-14  0.00000000000E+00 -0.88007300124E+03  0.99111992986E+03  0.45584013411E+03 0.  0.
      99925    2    3    3    0    0  0.48862693709E+01 -0.11376471084E+03 -0.56177203120E+03  0.63066285796E+03  0.26302383981E+03 0.  0.
         25    1    3    3    0    0 -0.48862693709E+01  0.11376471084E+03 -0.31830097004E+03  0.36045707191E+03  0.12509000000E+03 0.  0.
         25    1    4    4    0    0 -0.33964581784E+02 -0.39276492459E+02 -0.28441945225E+03  0.31502090183E+03  0.12509000000E+03 0.  0.
         25    1    4    4    0    0  0.38850851155E+02 -0.74488218384E+02 -0.27735257895E+03  0.31564195612E+03  0.12509000000E+03 0.  0.
<mgrwt>
<rscale>  2 0.45584013E+03</rscale>
<asrwt>0</asrwt>
<pdfrwt beam="1">  1       21 0.81652155E-02 0.45584013E+03</pdfrwt>
<pdfrwt beam="2">  1       21 0.13758771E+00 0.45584013E+03</pdfrwt>
<totfact> 0.39255698E+04</totfact>
</mgrwt>
</event>
<event>
 7    0  0.4709932E-002  0.4358383E+03  0.7546771E-02  0.1032031E+00
         21   -1    0    0  502  501  0.00000000000E+00  0.00000000000E+00  0.60898047388E+03  0.60898047388E+03  0.00000000000E+00 0.  1.
         21   -1    0    0  501  502 -0.00000000000E+00 -0.00000000000E+00 -0.77980739599E+02  0.77980739599E+02  0.00000000000E+00 0.  1.
      99926    2    1    2    0    0  0.88817841970E-15  0.00000000000E+00  0.53099973428E+03  0.68696121348E+03  0.43583826245E+03 0.  0.
      99925    2    3    3    0    0  0.39995543434E+01  0.69426762527E+02  0.23980398227E+03  0.36249465761E+03  0.26279336957E+03 0.  0.
         25    1    3    3    0    0 -0.39995543434E+01 -0.69426762527E+02  0.29119575201E+03  0.32446655587E+03  0.12509000000E+03 0.  0.
         25    1    4    4    0    0  0.14073674041E+02  0.68764866589E+02  0.10136069582E+03  0.17563648236E+03  0.12509000000E+03 0.  0.
         25    1    4    4    0    0 -0.10074119698E+02  0.66189593833E+00  0.13844328645E+03  0.18685817525E+03  0.12509000000E+03 0.  0.
<mgrwt>
<rscale>  2 0.43583826E+03</rscale>
<asrwt>0</asrwt>
<pdfrwt beam="1">  1       21 0.89555949E-01 0.43583826E+03</pdfrwt>
<pdfrwt beam="2">  1       21 0.11467756E-01 0.43583826E+03</pdfrwt>
<totfact> 0.62528641E+04</totfact>
</mgrwt>
</event>
<event>
 7    0  0.4709932E-002  0.4456722E+03  0.7546771E-02  0.1029021E+00
         21   -1    0    0  502  501  0.00000000000E+00  0.00000000000E+00  0.12582002344E+03  0.12582002344E+03  0.00000000000E+00 0.  1.
         21   -1    0    0  501  502 -0.00000000000E+00 -0.00000000000E+00 -0.39465846121E+03  0.39465846121E+03  0.00000000000E+00 0.  1.
      99926    2    1    2    0    0  0.88817841970E-15  0.00000000000E+00 -0.26883843778E+03  0.52047848465E+03  0.44567224208E+03 0.  0.
      99925    2    3    3    0    0 -0.65586132475E+01 -0.28278103442E+02 -0.53797469534E+02  0.27001333206E+03  0.26300259546E+03 0.  0.
         25    1    4    4    0    0 -0.43193886522E+02 -0.81447360576E+01 -0.31064125935E+02  0.13617832639E+03  0.12509000000E+03 0.  0.
         25    1    3    3    0    0  0.65586132475E+01  0.28278103442E+02 -0.21504096824E+03  0.25046515260E+03  0.12509000000E+03 0.  0.
         25    1    4    4    0    0  0.36635273275E+02 -0.20133367384E+02 -0.22733343598E+02  0.13383500566E+03  0.12509000000E+03 0.  0.
<mgrwt>
<rscale>  2 0.44567224E+03</rscale>
<asrwt>0</asrwt>
<pdfrwt beam="1">  1       21 0.18502945E-01 0.44567224E+03</pdfrwt>
<pdfrwt beam="2">  1       21 0.58038009E-01 0.44567224E+03</pdfrwt>
<totfact> 0.68802832E+04</totfact>
</mgrwt>
</event>
<event>
 7    0  0.4709932E-002  0.4455103E+03  0.7546771E-02  0.1029069E+00
         21   -1    0    0  502  501  0.00000000000E+00  0.00000000000E+00  0.43062664750E+03  0.43062664750E+03  0.00000000000E+00 0.  1.
         21   -1    0    0  501  502 -0.00000000000E+00 -0.00000000000E+00 -0.11522709411E+03  0.11522709411E+03  0.00000000000E+00 0.  1.
      99926    2    1    2    0    0 -0.17763568394E-14 -0.35527136788E-14  0.31539955339E+03  0.54585374160E+03  0.44551030172E+03 0.  0.
      99925    2    3    3    0    0  0.12360171921E+02 -0.20664924591E+02  0.32421840553E+03  0.41816234326E+03  0.26298737209E+03 0.  0.
         25    1    4    4    0    0  0.14582228371E+02  0.27970769596E+02  0.17567929811E+03  0.21795809051E+03  0.12509000000E+03 0.  0.
         25    1    3    3    0    0 -0.12360171921E+02  0.20664924591E+02 -0.88188521372E+01  0.12769139834E+03  0.12509000000E+03 0.  0.
         25    1    4    4    0    0 -0.22220564504E+01 -0.48635694187E+02  0.14853910742E+03  0.20020425274E+03  0.12509000000E+03 0.  0.
<mgrwt>
<rscale>  2 0.44551030E+03</rscale>
<asrwt>0</asrwt>
<pdfrwt beam="1">  1       21 0.63327448E-01 0.44551030E+03</pdfrwt>
<pdfrwt beam="2">  1       21 0.16945161E-01 0.44551030E+03</pdfrwt>
<totfact> 0.67034852E+04</totfact>
</mgrwt>
</event>
<event>
 7    0  0.4709932E-002  0.4558095E+03  0.7546771E-02  0.1026004E+00
         21   -1    0    0  502  501  0.00000000000E+00  0.00000000000E+00  0.90269875420E+02  0.90269875420E+02  0.00000000000E+00 0.  1.
         21   -1    0    0  501  502 -0.00000000000E+00 -0.00000000000E+00 -0.57539217561E+03  0.57539217561E+03  0.00000000000E+00 0.  1.
      99926    2    1    2    0    0  0.14210854715E-13  0.00000000000E+00 -0.48512230019E+03  0.66566205103E+03  0.45580952166E+03 0.  0.
      99925    2    3    3    0    0  0.87703084636E+02  0.14519412132E+02 -0.40912893263E+03  0.49441619153E+03  0.26297954778E+03 0.  0.
         25    1    4    4    0    0  0.44368192836E+02  0.63707668655E+01 -0.13258736813E+03  0.18771265672E+03  0.12509000000E+03 0.  0.
         25    1    4    4    0    0  0.43334891800E+02  0.81486452664E+01 -0.27654156450E+03  0.30670353481E+03  0.12509000000E+03 0.  0.
         25    1    3    3    0    0 -0.87703084636E+02 -0.14519412132E+02 -0.75993367561E+02  0.17124585950E+03  0.12509000000E+03 0.  0.
<mgrwt>
<rscale>  2 0.45580952E+03</rscale>
<asrwt>0</asrwt>
<pdfrwt beam="1">  1       21 0.13274982E-01 0.45580952E+03</pdfrwt>
<pdfrwt beam="2">  1       21 0.84616493E-01 0.45580952E+03</pdfrwt>
<totfact> 0.54458667E+04</totfact>
</mgrwt>
</event>
<event>
 7    0  0.4709932E-002  0.4500089E+03  0.7546771E-02  0.1027719E+00
         21   -1    0    0  502  501  0.00000000000E+00  0.00000000000E+00  0.97536853167E+03  0.97536853167E+03  0.00000000000E+00 0.  1.
         21   -1    0    0  501  502 -0.00000000000E+00 -0.00000000000E+00 -0.51905501474E+02  0.51905501474E+02  0.00000000000E+00 0.  1.
      99926    2    1    2    0    0  0.00000000000E+00  0.71054273576E-14  0.92346303020E+03  0.10272740331E+04  0.45000885661E+03 0.  0.
      99925    2    3    3    0    0 -0.86682931902E+02  0.39020996666E+02  0.46349126240E+03  0.54121014420E+03  0.26276929235E+03 0.  0.
         25    1    4    4    0    0 -0.58681652796E+02  0.55140515030E+02  0.22020453207E+03  0.26574716709E+03  0.12509000000E+03 0.  0.
         25    1    4    4    0    0 -0.28001279106E+02 -0.16119518364E+02  0.24328673034E+03  0.27546297712E+03  0.12509000000E+03 0.  0.
         25    1    3    3    0    0  0.86682931902E+02 -0.39020996666E+02  0.45997176779E+03  0.48606388894E+03  0.12509000000E+03 0.  0.
<mgrwt>
<rscale>  2 0.45000886E+03</rscale>
<asrwt>0</asrwt>
<pdfrwt beam="1">  1       21 0.14343654E+00 0.45000886E+03</pdfrwt>
<pdfrwt beam="2">  1       21 0.76331626E-02 0.45000886E+03</pdfrwt>
<totfact> 0.39644929E+04</totfact>
</mgrwt>
</event>
<event>
 7    0  0.4709932E-002  0.4545410E+03  0.7546771E-02  0.1026376E+00
         21   -1    0    0  502  501  0.00000000000E+00  0.00000000000E+00  0.10912395794E+04  0.10912395794E+04  0.00000000000E+00 0. -1.
         21   -1    0    0  501  502 -0.00000000000E+00 -0.00000000000E+00 -0.47333210403E+02  0.47333210403E+02  0.00000000000E+00 0. -1.
      99926    2    1    2    0    0 -0.88817841970E-15  0.00000000000E+00  0.10439063690E+04  0.11385727898E+04  0.45454096675E+03 0.  0.
      99925    2    3    3    0    0 -0.13092407278E+01  0.10760329960E+03  0.57600355182E+03  0.64242690540E+03  0.26334777931E+03 0.  0.
         25    1    4    4    0    0 -0.29932762179E+02  0.29922631508E+02  0.22821080976E+03  0.26366458981E+03  0.12509000000E+03 0.  0.
         25    1    3    3    0    0  0.13092407278E+01 -0.10760329960E+03  0.46790281718E+03  0.49614588441E+03  0.12509000000E+03 0.  0.
         25    1    4    4    0    0  0.28623521451E+02  0.77680668095E+02  0.34779274207E+03  0.37876231559E+03  0.12509000000E+03 0.  0.
<mgrwt>
<rscale>  2 0.45454097E+03</rscale>
<asrwt>0</asrwt>
<pdfrwt beam="1">  1       21 0.16047639E+00 0.45454097E+03</pdfrwt>
<pdfrwt beam="2">  1       21 0.69607669E-02 0.45454097E+03</pdfrwt>
<totfact> 0.34288721E+04</totfact>
</mgrwt>
</event>
<event>
 7    0  0.4709932E-002  0.4545360E+03  0.7546771E-02  0.1026378E+00
         21   -1    0    0  502  501  0.00000000000E+00  0.00000000000E+00  0.72430354208E+02  0.72430354208E+02  0.00000000000E+00 0.  1.
         21   -1    0    0  501  502 -0.00000000000E+00 -0.00000000000E+00 -0.71310913254E+03  0.71310913254E+03  0.00000000000E+00 0.  1.
      99926    2    1    2    0    0  0.35527136788E-14  0.00000000000E+00 -0.64067877833E+03  0.78553948675E+03  0.45453601423E+03 0.  0.
      99925    2    3    3    0    0  0.18119553064E+02  0.34995812826E+02 -0.58593174211E+03  0.64342062384E+03  0.26290885808E+03 0.  0.
         25    1    4    4    0    0  0.30109855242E+02  0.22155508343E+02 -0.38034172411E+03  0.40212535997E+03  0.12509000000E+03 0.  0.
         25    1    3    3    0    0 -0.18119553064E+02 -0.34995812826E+02 -0.54747036221E+02  0.14211886291E+03  0.12509000000E+03 0.  0.
         25    1    4    4    0    0 -0.11990302178E+02  0.12840304483E+02 -0.20559001800E+03  0.24129526387E+03  0.12509000000E+03 0.  0.
<mgrwt>
<rscale>  2 0.45453601E+03</rscale>
<asrwt>0</asrwt>
<pdfrwt beam="1">  1       21 0.10651523E-01 0.45453601E+03</pdfrwt>
<pdfrwt beam="2">  1       21 0.10486899E+00 0.45453601E+03</pdfrwt>
<totfact> 0.48649158E+04</totfact>
</mgrwt>
</event>
<event>
 7    0  0.4709932E-002  0.4568091E+03  0.7546771E-02  0.1025711E+00
         21   -1    0    0  502  501  0.00000000000E+00  0.00000000000E+00  0.78662942934E+03  0.78662942934E+03  0.00000000000E+00 0. -1.
         21   -1    0    0  501  502 -0.00000000000E+00 -0.00000000000E+00 -0.66319208708E+02  0.66319208708E+02  0.00000000000E+00 0. -1.
      99926    2    1    2    0    0 -0.14210854715E-13 -0.71054273576E-14  0.72031022063E+03  0.85294863805E+03  0.45680911243E+03 0.  0.
      99925    2    3    3    0    0  0.79380790191E+02 -0.47675028088E+02  0.32588474156E+03  0.42892837344E+03  0.26306741837E+03 0.  0.
         25    1    3    3    0    0 -0.79380790191E+02  0.47675028088E+02  0.39442547907E+03  0.42402026461E+03  0.12509000000E+03 0.  0.
         25    1    4    4    0    0  0.75620814864E+02 -0.47618072357E+02  0.18143997538E+03  0.23781076767E+03  0.12509000000E+03 0.  0.
         25    1    4    4    0    0  0.37599753271E+01 -0.56955731250E-01  0.14444476618E+03  0.19111760577E+03  0.12509000000E+03 0.  0.
<mgrwt>
<rscale>  2 0.45680911E+03</rscale>
<asrwt>0</asrwt>
<pdfrwt beam="1">  1       21 0.11568079E+00 0.45680911E+03</pdfrwt>
<pdfrwt beam="2">  1       21 0.97528252E-02 0.45680911E+03</pdfrwt>
<totfact> 0.44670448E+04</totfact>
</mgrwt>
</event>
<event>
 7    0  0.4709932E-002  0.4600860E+03  0.7546771E-02  0.1024756E+00
         21   -1    0    0  502  501  0.00000000000E+00  0.00000000000E+00  0.37089739760E+03  0.37089739760E+03  0.00000000000E+00 0.  1.
         21   -1    0    0  501  502 -0.00000000000E+00 -0.00000000000E+00 -0.14268040463E+03  0.14268040463E+03  0.00000000000E+00 0.  1.
      99926    2    1    2    0    0  0.00000000000E+00  0.35527136788E-14  0.22821699298E+03  0.51357780223E+03  0.46008603875E+03 0.  0.
      99925    2    3    3    0    0  0.58103911928E+02 -0.19208287744E+02  0.30499430767E+02  0.27174156548E+03  0.26299855557E+03 0.  0.
         25    1    3    3    0    0 -0.58103911928E+02  0.19208287744E+02  0.19771756221E+03  0.24183623675E+03  0.12509000000E+03 0.  0.
         25    1    4    4    0    0  0.24501733705E+02  0.30628030322E+02  0.19313427207E+02  0.13251010439E+03  0.12509000000E+03 0.  0.
         25    1    4    4    0    0  0.33602178223E+02 -0.49836318066E+02  0.11186003560E+02  0.13923146108E+03  0.12509000000E+03 0.  0.
<mgrwt>
<rscale>  2 0.46008604E+03</rscale>
<asrwt>0</asrwt>
<pdfrwt beam="1">  1       21 0.54543735E-01 0.46008604E+03</pdfrwt>
<pdfrwt beam="2">  1       21 0.20982412E-01 0.46008604E+03</pdfrwt>
<totfact> 0.61794749E+04</totfact>
</mgrwt>
</event>
<event>
 7    0  0.4709932E-002  0.4597749E+03  0.7546771E-02  0.1024847E+00
         21   -1    0    0  502  501  0.00000000000E+00  0.00000000000E+00  0.26423032143E+03  0.26423032143E+03  0.00000000000E+00 0.  1.
         21   -1    0    0  501  502 -0.00000000000E+00 -0.00000000000E+00 -0.20000820789E+03  0.20000820789E+03  0.00000000000E+00 0.  1.
      99926    2    1    2    0    0  0.00000000000E+00  0.00000000000E+00  0.64222113537E+02  0.46423852932E+03  0.45977487125E+03 0.  0.
      99925    2    3    3    0    0 -0.81325928214E+02 -0.38450130793E+02 -0.36214755652E+02  0.28031628501E+03  0.26300834960E+03 0.  0.
         25    1    4    4    0    0 -0.71703938359E+02 -0.14814773502E+02  0.81217744199E+01  0.14517025732E+03  0.12509000000E+03 0.  0.
         25    1    3    3    0    0  0.81325928214E+02  0.38450130793E+02  0.10043686919E+03  0.18392224431E+03  0.12509000000E+03 0.  0.
         25    1    4    4    0    0 -0.96219898556E+01 -0.23635357290E+02 -0.44336530072E+02  0.13514602770E+03  0.12509000000E+03 0.  0.
<mgrwt>
<rscale>  2 0.45977487E+03</rscale>
<asrwt>0</asrwt>
<pdfrwt beam="1">  1       21 0.38857400E-01 0.45977487E+03</pdfrwt>
<pdfrwt beam="2">  1       21 0.29412972E-01 0.45977487E+03</pdfrwt>
<totfact> 0.65348721E+04</totfact>
</mgrwt>
</event>
<event>
 7    0  0.4709932E-002  0.4557930E+03  0.7546771E-02  0.1026008E+00
         21   -1    0    0  502  501  0.00000000000E+00  0.00000000000E+00  0.88138387712E+02  0.88138387712E+02  0.00000000000E+00 0.  1.
         21   -1    0    0  501  502 -0.00000000000E+00 -0.00000000000E+00 -0.58926437608E+03  0.58926437608E+03  0.00000000000E+00 0.  1.
      99926    2    1    2    0    0  0.00000000000E+00  0.00000000000E+00 -0.50112598836E+03  0.67740276379E+03  0.45579298829E+03 0.  0.
      99925    2    3    3    0    0 -0.91432372107E+02 -0.33768413058E+02 -0.22771149906E+03  0.36132812790E+03  0.26306901152E+03 0.  0.
         25    1    4    4    0    0 -0.27497231368E+02  0.19863519595E+02 -0.94009920906E+02  0.16011255564E+03  0.12509000000E+03 0.  0.
         25    1    3    3    0    0  0.91432372107E+02  0.33768413058E+02 -0.27341448930E+03  0.31607463588E+03  0.12509000000E+03 0.  0.
         25    1    4    4    0    0 -0.63935140739E+02 -0.53631932653E+02 -0.13370157816E+03  0.20121557227E+03  0.12509000000E+03 0.  0.
<mgrwt>
<rscale>  2 0.45579299E+03</rscale>
<asrwt>0</asrwt>
<pdfrwt beam="1">  1       21 0.12961527E-01 0.45579299E+03</pdfrwt>
<pdfrwt beam="2">  1       21 0.86656528E-01 0.45579299E+03</pdfrwt>
<totfact> 0.53810595E+04</totfact>
</mgrwt>
</event>
<event>
 7    0  0.4709932E-002  0.4530850E+03  0.7546771E-02  0.1026806E+00
         21   -1    0    0  502  501  0.00000000000E+00  0.00000000000E+00  0.12745828641E+03  0.12745828641E+03  0.00000000000E+00 0. -1.
         21   -1    0    0  501  502 -0.00000000000E+00 -0.00000000000E+00 -0.40265328466E+03  0.40265328466E+03  0.00000000000E+00 0. -1.
      99926    2    1    2    0    0  0.00000000000E+00  0.00000000000E+00 -0.27519499825E+03  0.53011157106E+03  0.45308497074E+03 0.  0.
      99925    2    3    3    0    0  0.10800907261E+02 -0.51918822417E+02 -0.28808411739E+03  0.39363497523E+03  0.26295210840E+03 0.  0.
         25    1    3    3    0    0 -0.10800907261E+02  0.51918822417E+02  0.12889119140E+02  0.13647659584E+03  0.12509000000E+03 0.  0.
         25    1    4    4    0    0 -0.15834315592E+02 -0.23600203896E+02 -0.92146609850E+02  0.15794366395E+03  0.12509000000E+03 0.  0.
         25    1    4    4    0    0  0.26635222853E+02 -0.28318618521E+02 -0.19593750754E+03  0.23569131128E+03  0.12509000000E+03 0.  0.
<mgrwt>
<rscale>  2 0.45308497E+03</rscale>
<asrwt>0</asrwt>
<pdfrwt beam="1">  1       21 0.18743866E-01 0.45308497E+03</pdfrwt>
<pdfrwt beam="2">  1       21 0.59213719E-01 0.45308497E+03</pdfrwt>
<totfact> 0.64167369E+04</totfact>
</mgrwt>
</event>
<event>
 7    0  0.4709932E-002  0.4482434E+03  0.7546771E-02  0.1028247E+00
         21   -1    0    0  502  501  0.00000000000E+00  0.00000000000E+00  0.93027455210E+02  0.93027455210E+02  0.00000000000E+00 0. -1.
         21   -1    0    0  501  502 -0.00000000000E+00 -0.00000000000E+00 -0.53995377566E+03  0.53995377566E+03  0.00000000000E+00 0. -1.
      99926    2    1    2    0    0  0.17763568394E-14  0.00000000000E+00 -0.44692632045E+03  0.63298123087E+03  0.44824335212E+03 0.  0.
      99925    2    3    3    0    0  0.15179536000E+02 -0.74361870725E+02 -0.38881674984E+03  0.47555081313E+03  0.26307794432E+03 0.  0.
         25    1    4    4    0    0 -0.65712961297E+01 -0.43703097654E+02 -0.13052481583E+03  0.18611119882E+03  0.12509000000E+03 0.  0.
         25    1    3    3    0    0 -0.15179536000E+02  0.74361870725E+02 -0.58109570611E+02  0.15743041773E+03  0.12509000000E+03 0.  0.
         25    1    4    4    0    0  0.21750832130E+02 -0.30658773071E+02 -0.25829193400E+03  0.28943961432E+03  0.12509000000E+03 0.  0.
<mgrwt>
<rscale>  2 0.44824335E+03</rscale>
<asrwt>0</asrwt>
<pdfrwt beam="1">  1       21 0.13680508E-01 0.44824335E+03</pdfrwt>
<pdfrwt beam="2">  1       21 0.79404967E-01 0.44824335E+03</pdfrwt>
<totfact> 0.59819651E+04</totfact>
</mgrwt>
</event>
<event>
 7    0  0.4709932E-002  0.4630581E+03  0.7546771E-02  0.1023898E+00
         21   -1    0    0  502  501  0.00000000000E+00  0.00000000000E+00  0.16294136933E+03  0.16294136933E+03  0.00000000000E+00 0.  1.
         21   -1    0    0  501  502 -0.00000000000E+00 -0.00000000000E+00 -0.32898770656E+03  0.32898770656E+03  0.00000000000E+00 0.  1.
      99926    2    1    2    0    0  0.00000000000E+00  0.00000000000E+00 -0.16604633723E+03  0.49192907589E+03  0.46305812766E+03 0.  0.
      99925    2    3    3    0    0 -0.84499725185E+02  0.44153262024E+02 -0.18226191356E+03  0.33381466440E+03  0.26291274395E+03 0.  0.
         25    1    4    4    0    0 -0.16016933726E+02 -0.15583371645E+01 -0.11081478650E+03  0.16788804480E+03  0.12509000000E+03 0.  0.
         25    1    4    4    0    0 -0.68482791458E+02  0.45711599189E+02 -0.71447127070E+02  0.16592661960E+03  0.12509000000E+03 0.  0.
         25    1    3    3    0    0  0.84499725185E+02 -0.44153262024E+02  0.16215576333E+02  0.15811441149E+03  0.12509000000E+03 0.  0.
<mgrwt>
<rscale>  2 0.46305813E+03</rscale>
<asrwt>0</asrwt>
<pdfrwt beam="1">  1       21 0.23961966E-01 0.46305813E+03</pdfrwt>
<pdfrwt beam="2">  1       21 0.48380544E-01 0.46305813E+03</pdfrwt>
<totfact> 0.61792984E+04</totfact>
</mgrwt>
</event>
<event>
 7    0  0.4709932E-002  0.4596964E+03  0.7546771E-02  0.1024869E+00
         21   -1    0    0  502  501  0.00000000000E+00  0.00000000000E+00  0.12077308292E+03  0.12077308292E+03  0.00000000000E+00 0. -1.
         21   -1    0    0  501  502 -0.00000000000E+00 -0.00000000000E+00 -0.43743342829E+03  0.43743342829E+03  0.00000000000E+00 0. -1.
      99926    2    1    2    0    0  0.00000000000E+00  0.00000000000E+00 -0.31666034538E+03  0.55820651121E+03  0.45969635068E+03 0.  0.
      99925    2    3    3    0    0 -0.45832306314E+02 -0.73232086151E+02 -0.29515441026E+03  0.40466970100E+03  0.26301692392E+03 0.  0.
         25    1    4    4    0    0  0.12722854145E+02 -0.50734729592E+02 -0.12553889482E+03  0.18477934413E+03  0.12509000000E+03 0.  0.
         25    1    4    4    0    0 -0.58555160459E+02 -0.22497356559E+02 -0.16961551544E+03  0.21989035687E+03  0.12509000000E+03 0.  0.
         25    1    3    3    0    0  0.45832306314E+02  0.73232086151E+02 -0.21505935118E+02  0.15353681021E+03  0.12509000000E+03 0.  0.
<mgrwt>
<rscale>  2 0.45969635E+03</rscale>
<asrwt>0</asrwt>
<pdfrwt beam="1">  1       21 0.17760748E-01 0.45969635E+03</pdfrwt>
<pdfrwt beam="2">  1       21 0.64328445E-01 0.45969635E+03</pdfrwt>
<totfact> 0.59101074E+04</totfact>
</mgrwt>
</event>
<event>
 7    0  0.4709932E-002  0.4521096E+03  0.7546771E-02  0.1027095E+00
         21   -1    0    0  502  501  0.00000000000E+00  0.00000000000E+00  0.73932620334E+03  0.73932620334E+03  0.00000000000E+00 0.  1.
         21   -1    0    0  501  502 -0.00000000000E+00 -0.00000000000E+00 -0.69118043607E+02  0.69118043607E+02  0.00000000000E+00 0.  1.
      99926    2    1    2    0    0  0.00000000000E+00  0.00000000000E+00  0.67020815973E+03  0.80844424695E+03  0.45210963609E+03 0.  0.
      99925    2    3    3    0    0  0.55349369480E+02  0.95672385921E+02  0.42263811411E+03  0.50985557717E+03  0.26289346881E+03 0.  0.
         25    1    3    3    0    0 -0.55349369480E+02 -0.95672385921E+02  0.24757004562E+03  0.29858866978E+03  0.12509000000E+03 0.  0.
         25    1    4    4    0    0  0.28697460613E+02  0.13257788572E+02  0.23688097485E+03  0.26973953650E+03  0.12509000000E+03 0.  0.
         25    1    4    4    0    0  0.26651908867E+02  0.82414597349E+02  0.18575713926E+03  0.24011604067E+03  0.12509000000E+03 0.  0.
<mgrwt>
<rscale>  2 0.45210964E+03</rscale>
<asrwt>0</asrwt>
<pdfrwt beam="1">  1       21 0.10872444E+00 0.45210964E+03</pdfrwt>
<pdfrwt beam="2">  1       21 0.10164419E-01 0.45210964E+03</pdfrwt>
<totfact> 0.48448665E+04</totfact>
</mgrwt>
</event>
<event>
 7    0  0.4709932E-002  0.4395419E+03  0.7546771E-02  0.1030887E+00
         21   -1    0    0  502  501  0.00000000000E+00  0.00000000000E+00  0.16493807345E+04  0.16493807345E+04  0.00000000000E+00 0.  1.
         21   -1    0    0  501  502 -0.00000000000E+00 -0.00000000000E+00 -0.29283280499E+02  0.29283280499E+02  0.00000000000E+00 0.  1.
      99926    2    1    2    0    0  0.00000000000E+00 -0.14210854715E-13  0.16200974540E+04  0.16786640150E+04  0.43954193746E+03 0.  0.
      99925    2    3    3    0    0 -0.16007562416E+02 -0.77641439592E+02  0.12544008186E+04  0.12841187420E+04  0.26297356267E+03 0.  0.
         25    1    4    4    0    0 -0.30289558047E+02 -0.32669679882E+02  0.46964003363E+03  0.48805126226E+03  0.12509000000E+03 0.  0.
         25    1    3    3    0    0  0.16007562416E+02  0.77641439592E+02  0.36569663535E+03  0.39454527295E+03  0.12509000000E+03 0.  0.
         25    1    4    4    0    0  0.14281995631E+02 -0.44971759710E+02  0.78476078499E+03  0.79606747976E+03  0.12509000000E+03 0.  0.
<mgrwt>
<rscale>  2 0.43954194E+03</rscale>
<asrwt>0</asrwt>
<pdfrwt beam="1">  1       21 0.24255593E+00 0.43954194E+03</pdfrwt>
<pdfrwt beam="2">  1       21 0.43063659E-02 0.43954194E+03</pdfrwt>
<totfact> 0.22263924E+04</totfact>
</mgrwt>
</event>
<event>
 7    0  0.4709932E-002  0.4593337E+03  0.7546771E-02  0.1024975E+00
         21   -1    0    0  502  501  0.00000000000E+00  0.00000000000E+00  0.57130354786E+03  0.57130354786E+03  0.00000000000E+00 0. -1.
         21   -1    0    0  501  502 -0.00000000000E+00 -0.00000000000E+00 -0.92327222151E+02  0.92327222151E+02  0.00000000000E+00 0. -1.
      99926    2    1    2    0    0  0.00000000000E+00  0.00000000000E+00  0.47897632571E+03  0.66363077001E+03  0.45933373305E+03 0.  0.
      99925    2    3    3    0    0 -0.67584422742E+02 -0.86095923559E+02  0.36097932634E+03  0.45979023868E+03  0.26290840096E+03 0.  0.
         25    1    4    4    0    0 -0.43304596839E+02 -0.84871583428E+02  0.19311339177E+03  0.24903566805E+03  0.12509000000E+03 0.  0.
         25    1    4    4    0    0 -0.24279825903E+02 -0.12243401314E+01  0.16786593456E+03  0.21075457063E+03  0.12509000000E+03 0.  0.
         25    1    3    3    0    0  0.67584422742E+02  0.86095923559E+02  0.11799699937E+03  0.20384053133E+03  0.12509000000E+03 0.  0.
<mgrwt>
<rscale>  2 0.45933373E+03</rscale>
<asrwt>0</asrwt>
<pdfrwt beam="1">  1       21 0.84015225E-01 0.45933373E+03</pdfrwt>
<pdfrwt beam="2">  1       21 0.13577533E-01 0.45933373E+03</pdfrwt>
<totfact> 0.53084806E+04</totfact>
</mgrwt>
</event>
<event>
 7    0  0.4709932E-002  0.4474689E+03  0.7546771E-02  0.1028480E+00
         21   -1    0    0  502  501  0.00000000000E+00  0.00000000000E+00  0.93901809653E+03  0.93901809653E+03  0.00000000000E+00 0.  1.
         21   -1    0    0  501  502 -0.00000000000E+00 -0.00000000000E+00 -0.53307932184E+02  0.53307932184E+02  0.00000000000E+00 0.  1.
      99926    2    1    2    0    0  0.71054273576E-14  0.00000000000E+00  0.88571016434E+03  0.99232602871E+03  0.44746893975E+03 0.  0.
      99925    2    3    3    0    0 -0.58963039648E+02 -0.31080917612E+02  0.37853628885E+03  0.46571847885E+03  0.26298539139E+03 0.  0.
         25    1    4    4    0    0 -0.24612890932E+02  0.11498637223E+02  0.13182056150E+03  0.18374488181E+03  0.12509000000E+03 0.  0.
         25    1    3    3    0    0  0.58963039648E+02  0.31080917612E+02  0.50717387549E+03  0.52660754986E+03  0.12509000000E+03 0.  0.
         25    1    4    4    0    0 -0.34350148716E+02 -0.42579554836E+02  0.24671572735E+03  0.28197359704E+03  0.12509000000E+03 0.  0.
<mgrwt>
<rscale>  2 0.44746894E+03</rscale>
<asrwt>0</asrwt>
<pdfrwt beam="1">  1       21 0.13809089E+00 0.44746894E+03</pdfrwt>
<pdfrwt beam="2">  1       21 0.78394024E-02 0.44746894E+03</pdfrwt>
<totfact> 0.41876102E+04</totfact>
</mgrwt>
</event>
<event>
 7    0  0.4709932E-002  0.4534112E+03  0.7546771E-02  0.1026710E+00
         21   -1    0    0  502  501  0.00000000000E+00  0.00000000000E+00  0.29820236795E+03  0.29820236795E+03  0.00000000000E+00 0. -1.
         21   -1    0    0  501  502 -0.00000000000E+00 -0.00000000000E+00 -0.17235085298E+03  0.17235085298E+03  0.00000000000E+00 0. -1.
      99926    2    1    2    0    0  0.17763568394E-14 -0.14210854715E-13  0.12585151497E+03  0.47055322094E+03  0.45341121503E+03 0.  0.
      99925    2    3    3    0    0  0.84292579305E+01 -0.11124502341E+03  0.74830340528E+02  0.29534712525E+03  0.26302820554E+03 0.  0.
         25    1    3    3    0    0 -0.84292579305E+01  0.11124502341E+03  0.51021174442E+02  0.17520609568E+03  0.12509000000E+03 0.  0.
         25    1    4    4    0    0  0.12745562062E+02 -0.31406479388E+02  0.68880674715E+02  0.14676808832E+03  0.12509000000E+03 0.  0.
         25    1    4    4    0    0 -0.43163041312E+01 -0.79838544023E+02  0.59496658136E+01  0.14857903693E+03  0.12509000000E+03 0.  0.
<mgrwt>
<rscale>  2 0.45341122E+03</rscale>
<asrwt>0</asrwt>
<pdfrwt beam="1">  1       21 0.43853289E-01 0.45341122E+03</pdfrwt>
<pdfrwt beam="2">  1       21 0.25345714E-01 0.45341122E+03</pdfrwt>
<totfact> 0.68250845E+04</totfact>
</mgrwt>
</event>
<event>
 7    0  0.4709932E-002  0.4597686E+03  0.7546771E-02  0.1024848E+00
         21   -1    0    0  502  501  0.00000000000E+00  0.00000000000E+00  0.46079856797E+03  0.46079856797E+03  0.00000000000E+00 0. -1.
         21   -1    0    0  501  502 -0.00000000000E+00 -0.00000000000E+00 -0.11468521747E+03  0.11468521747E+03  0.00000000000E+00 0. -1.
      99926    2    1    2    0    0  0.00000000000E+00 -0.14210854715E-13  0.34611335049E+03  0.57548378544E+03  0.45976856778E+03 0.  0.
      99925    2    3    3    0    0  0.24071791408E+02 -0.10928384640E+03  0.26254949423E+03  0.38799288860E+03  0.26283803845E+03 0.  0.
         25    1    3    3    0    0 -0.24071791408E+02  0.10928384640E+03  0.83563856257E+02  0.18749089684E+03  0.12509000000E+03 0.  0.
         25    1    4    4    0    0 -0.19116717148E+01 -0.50360233165E+02  0.77535527855E+02  0.15556051476E+03  0.12509000000E+03 0.  0.
         25    1    4    4    0    0  0.25983463123E+02 -0.58923613236E+02  0.18501396638E+03  0.23243237384E+03  0.12509000000E+03 0.  0.
<mgrwt>
<rscale>  2 0.45976857E+03</rscale>
<asrwt>0</asrwt>
<pdfrwt beam="1">  1       21 0.67764495E-01 0.45976857E+03</pdfrwt>
<pdfrwt beam="2">  1       21 0.16865473E-01 0.45976857E+03</pdfrwt>
<totfact> 0.57995472E+04</totfact>
</mgrwt>
</event>
<event>
 7    0  0.4709932E-002  0.4619753E+03  0.7546771E-02  0.1024210E+00
         21   -1    0    0  502  501  0.00000000000E+00  0.00000000000E+00  0.21301915495E+03  0.21301915495E+03  0.00000000000E+00 0. -1.
         21   -1    0    0  501  502 -0.00000000000E+00 -0.00000000000E+00 -0.25047180030E+03  0.25047180030E+03  0.00000000000E+00 0. -1.
      99926    2    1    2    0    0  0.00000000000E+00  0.88817841970E-15 -0.37452645340E+02  0.46349095525E+03  0.46197528609E+03 0.  0.
      99925    2    3    3    0    0 -0.83752111916E+02  0.62513527223E+01 -0.10869194243E+03  0.29682949837E+03  0.26313554889E+03 0.  0.
         25    1    4    4    0    0 -0.12657954497E+02 -0.87337729573E+01 -0.21293665595E+02  0.12781795999E+03  0.12509000000E+03 0.  0.
         25    1    4    4    0    0 -0.71094157418E+02  0.14985125680E+02 -0.87398276831E+02  0.16901153837E+03  0.12509000000E+03 0.  0.
         25    1    3    3    0    0  0.83752111916E+02 -0.62513527223E+01  0.71239297086E+02  0.16666145688E+03  0.12509000000E+03 0.  0.
<mgrwt>
<rscale>  2 0.46197529E+03</rscale>
<asrwt>0</asrwt>
<pdfrwt beam="1">  1       21 0.31326347E-01 0.46197529E+03</pdfrwt>
<pdfrwt beam="2">  1       21 0.36834088E-01 0.46197529E+03</pdfrwt>
<totfact> 0.64275838E+04</totfact>
</mgrwt>
</event>
<event>
 7    0  0.4709932E-002  0.4510717E+03  0.7546771E-02  0.1027403E+00
         21   -1    0    0  502  501  0.00000000000E+00  0.00000000000E+00  0.63912870839E+02  0.63912870839E+02  0.00000000000E+00 0. -1.
         21   -1    0    0  501  502 -0.00000000000E+00 -0.00000000000E+00 -0.79587117077E+03  0.79587117077E+03  0.00000000000E+00 0. -1.
      99926    2    1    2    0    0  0.14210854715E-13  0.00000000000E+00 -0.73195829993E+03  0.85978404161E+03  0.45107166323E+03 0.  0.
      99925    2    3    3    0    0  0.94479587709E+02  0.53348148922E+02 -0.48876873047E+03  0.56557137655E+03  0.26306594724E+03 0.  0.
         25    1    4    4    0    0  0.15662246354E+02  0.51953348474E+02 -0.24860373746E+03  0.28354150094E+03  0.12509000000E+03 0.  0.
         25    1    4    4    0    0  0.78817341356E+02  0.13948004482E+01 -0.24016499302E+03  0.28202987561E+03  0.12509000000E+03 0.  0.
         25    1    3    3    0    0 -0.94479587709E+02 -0.53348148922E+02 -0.24318956946E+03  0.29421266506E+03  0.12509000000E+03 0.  0.
<mgrwt>
<rscale>  2 0.45107166E+03</rscale>
<asrwt>0</asrwt>
<pdfrwt beam="1">  1       21 0.93989517E-02 0.45107166E+03</pdfrwt>
<pdfrwt beam="2">  1       21 0.11703988E+00 0.45107166E+03</pdfrwt>
<totfact> 0.46418591E+04</totfact>
</mgrwt>
</event>
<event>
 7    0  0.4709932E-002  0.4536396E+03  0.7546771E-02  0.1026642E+00
         21   -1    0    0  502  501  0.00000000000E+00  0.00000000000E+00  0.75566499433E+02  0.75566499433E+02  0.00000000000E+00 0.  1.
         21   -1    0    0  501  502 -0.00000000000E+00 -0.00000000000E+00 -0.68082056493E+03  0.68082056493E+03  0.00000000000E+00 0.  1.
      99926    2    1    2    0    0 -0.71054273576E-14  0.00000000000E+00 -0.60525406550E+03  0.75638706437E+03  0.45363962276E+03 0.  0.
      99925    2    3    3    0    0  0.40424142387E+02  0.15758213845E+02 -0.55354054827E+03  0.61424548510E+03  0.26269363296E+03 0.  0.
         25    1    4    4    0    0  0.34973532450E+02 -0.61617818166E+01 -0.20007129461E+03  0.23861505936E+03  0.12509000000E+03 0.  0.
         25    1    4    4    0    0  0.54506099368E+01  0.21919995662E+02 -0.35346925366E+03  0.37563042574E+03  0.12509000000E+03 0.  0.
         25    1    3    3    0    0 -0.40424142387E+02 -0.15758213845E+02 -0.51713517229E+02  0.14214157926E+03  0.12509000000E+03 0.  0.
<mgrwt>
<rscale>  2 0.45363962E+03</rscale>
<asrwt>0</asrwt>
<pdfrwt beam="1">  1       21 0.11112720E-01 0.45363962E+03</pdfrwt>
<pdfrwt beam="2">  1       21 0.10012067E+00 0.45363962E+03</pdfrwt>
<totfact> 0.50483002E+04</totfact>
</mgrwt>
</event>
<event>
 7    0  0.4709932E-002  0.4834590E+03  0.7546771E-02  0.1018189E+00
         21   -1    0    0  502  501  0.00000000000E+00  0.00000000000E+00  0.46833254348E+03  0.46833254348E+03  0.00000000000E+00 0. -1.
         21   -1    0    0  501  502 -0.00000000000E+00 -0.00000000000E+00 -0.12476848090E+03  0.12476848090E+03  0.00000000000E+00 0. -1.
      99926    2    1    2    0    0  0.35527136788E-14  0.00000000000E+00  0.34356406258E+03  0.59310102439E+03  0.48345895382E+03 0.  0.
      99925    2    3    3    0    0  0.23778483019E+02  0.77352658113E+02  0.73800547363E+02  0.28493108391E+03  0.26304058967E+03 0.  0.
         25    1    3    3    0    0 -0.23778483019E+02 -0.77352658113E+02  0.26976351522E+03  0.30816994048E+03  0.12509000000E+03 0.  0.
         25    1    4    4    0    0  0.40045143757E+02  0.68337854255E+02  0.29776844211E+02  0.15102266192E+03  0.12509000000E+03 0.  0.
         25    1    4    4    0    0 -0.16266660738E+02  0.90148038585E+01  0.44023703151E+02  0.13390842199E+03  0.12509000000E+03 0.  0.
<mgrwt>
<rscale>  2 0.48345895E+03</rscale>
<asrwt>0</asrwt>
<pdfrwt beam="1">  1       21 0.68872432E-01 0.48345895E+03</pdfrwt>
<pdfrwt beam="2">  1       21 0.18348306E-01 0.48345895E+03</pdfrwt>
<totfact> 0.47487290E+04</totfact>
</mgrwt>
</event>
<event>
 7    0  0.4709932E-002  0.4555500E+03  0.7546771E-02  0.1026080E+00
         21   -1    0    0  502  501  0.00000000000E+00  0.00000000000E+00  0.20085208880E+03  0.20085208880E+03  0.00000000000E+00 0.  1.
         21   -1    0    0  501  502 -0.00000000000E+00 -0.00000000000E+00 -0.25830673833E+03  0.25830673833E+03  0.00000000000E+00 0.  1.
      99926    2    1    2    0    0  0.14210854715E-13  0.00000000000E+00 -0.57454649537E+02  0.45915882713E+03  0.45554998823E+03 0.  0.
      99925    2    3    3    0    0 -0.74683862395E+02 -0.79635081163E+02 -0.41864373823E+01  0.28479014881E+03  0.26299900598E+03 0.  0.
         25    1    4    4    0    0 -0.55458180106E+02 -0.10744431643E+02 -0.24013748474E+02  0.13933851143E+03  0.12509000000E+03 0.  0.
         25    1    4    4    0    0 -0.19225682288E+02 -0.68890649520E+02  0.19827311092E+02  0.14545163738E+03  0.12509000000E+03 0.  0.
         25    1    3    3    0    0  0.74683862395E+02  0.79635081163E+02 -0.53268212155E+02  0.17436867832E+03  0.12509000000E+03 0.  0.
<mgrwt>
<rscale>  2 0.45554999E+03</rscale>
<asrwt>0</asrwt>
<pdfrwt beam="1">  1       21 0.29537072E-01 0.45554999E+03</pdfrwt>
<pdfrwt beam="2">  1       21 0.37986285E-01 0.45554999E+03</pdfrwt>
<totfact> 0.67943391E+04</totfact>
</mgrwt>
</event>
<event>
 7    0  0.4709932E-002  0.4498364E+03  0.7546771E-02  0.1027771E+00
         21   -1    0    0  502  501  0.00000000000E+00  0.00000000000E+00  0.56716727742E+02  0.56716727742E+02  0.00000000000E+00 0. -1.
         21   -1    0    0  501  502 -0.00000000000E+00 -0.00000000000E+00 -0.89194507014E+03  0.89194507014E+03  0.00000000000E+00 0. -1.
      99926    2    1    2    0    0  0.00000000000E+00  0.00000000000E+00 -0.83522834239E+03  0.94866179788E+03  0.44983644007E+03 0.  0.
      99925    2    3    3    0    0  0.85932181742E+02 -0.36276784384E+02 -0.64682578166E+03  0.70403273596E+03  0.26187431439E+03 0.  0.
         25    1    4    4    0    0  0.40583109502E+02  0.20089483362E+02 -0.33015491167E+03  0.35594992614E+03  0.12509000000E+03 0.  0.
         25    1    3    3    0    0 -0.85932181742E+02  0.36276784384E+02 -0.18840256074E+03  0.24462906192E+03  0.12509000000E+03 0.  0.
         25    1    4    4    0    0  0.45349072240E+02 -0.56366267746E+02 -0.31667086998E+03  0.34808280981E+03  0.12509000000E+03 0.  0.
<mgrwt>
<rscale>  2 0.44983644E+03</rscale>
<asrwt>0</asrwt>
<pdfrwt beam="1">  1       21 0.83406960E-02 0.44983644E+03</pdfrwt>
<pdfrwt beam="2">  1       21 0.13116838E+00 0.44983644E+03</pdfrwt>
<totfact> 0.42901298E+04</totfact>
</mgrwt>
</event>
<event>
 7    0  0.4709932E-002  0.4485489E+03  0.7546771E-02  0.1028156E+00
         21   -1    0    0  502  501  0.00000000000E+00  0.00000000000E+00  0.58907540142E+02  0.58907540142E+02  0.00000000000E+00 0.  1.
         21   -1    0    0  501  502 -0.00000000000E+00 -0.00000000000E+00 -0.85386400324E+03  0.85386400324E+03  0.00000000000E+00 0.  1.
      99926    2    1    2    0    0  0.00000000000E+00  0.00000000000E+00 -0.79495646310E+03  0.91277154338E+03  0.44854889610E+03 0.  0.
      99925    2    3    3    0    0  0.56915862494E+02  0.89556336835E+02 -0.47518357805E+03  0.55338044863E+03  0.26300329887E+03 0.  0.
         25    1    4    4    0    0  0.14067597080E+02  0.12645469993E+02 -0.26256091221E+03  0.29145076071E+03  0.12509000000E+03 0.  0.
         25    1    3    3    0    0 -0.56915862494E+02 -0.89556336835E+02 -0.31977288505E+03  0.35939109475E+03  0.12509000000E+03 0.  0.
         25    1    4    4    0    0  0.42848265414E+02  0.76910866842E+02 -0.21262266584E+03  0.26192968792E+03  0.12509000000E+03 0.  0.
<mgrwt>
<rscale>  2 0.44854890E+03</rscale>
<asrwt>0</asrwt>
<pdfrwt beam="1">  1       21 0.86628742E-02 0.44854890E+03</pdfrwt>
<pdfrwt beam="2">  1       21 0.12556823E+00 0.44854890E+03</pdfrwt>
<totfact> 0.44910329E+04</totfact>
</mgrwt>
</event>
<event>
 7    0  0.4709932E-002  0.4271251E+03  0.7546771E-02  0.1034772E+00
         21   -1    0    0  502  501  0.00000000000E+00  0.00000000000E+00  0.38979044776E+02  0.38979044776E+02  0.00000000000E+00 0.  1.
         21   -1    0    0  501  502 -0.00000000000E+00 -0.00000000000E+00 -0.11700894043E+04  0.11700894043E+04  0.00000000000E+00 0.  1.
      99926    2    1    2    0    0  0.00000000000E+00  0.00000000000E+00 -0.11311103595E+04  0.12090684491E+04  0.42712512117E+03 0.  0.
      99925    2    3    3    0    0 -0.49824486708E+02 -0.55168353670E+02 -0.61793914977E+03  0.67566595063E+03  0.26296322425E+03 0.  0.
         25    1    4    4    0    0  0.82304244088E+01 -0.49143811779E+02 -0.32719437294E+03  0.35381707125E+03  0.12509000000E+03 0.  0.
         25    1    4    4    0    0 -0.58054911116E+02 -0.60245418914E+01 -0.29074477682E+03  0.32184887938E+03  0.12509000000E+03 0.  0.
         25    1    3    3    0    0  0.49824486708E+02  0.55168353670E+02 -0.51317120977E+03  0.53340249846E+03  0.12509000000E+03 0.  0.
<mgrwt>
<rscale>  2 0.42712512E+03</rscale>
<asrwt>0</asrwt>
<pdfrwt beam="1">  1       21 0.57322131E-02 0.42712512E+03</pdfrwt>
<pdfrwt beam="2">  1       21 0.17207195E+00 0.42712512E+03</pdfrwt>
<totfact> 0.39840519E+04</totfact>
</mgrwt>
</event>
<event>
 7    0  0.4709932E-002  0.4651282E+03  0.7546771E-02  0.1023304E+00
         21   -1    0    0  502  501  0.00000000000E+00  0.00000000000E+00  0.11429776562E+04  0.11429776562E+04  0.00000000000E+00 0. -1.
         21   -1    0    0  501  502 -0.00000000000E+00 -0.00000000000E+00 -0.47320320532E+02  0.47320320532E+02  0.00000000000E+00 0. -1.
      99926    2    1    2    0    0 -0.35527136788E-14  0.35527136788E-14  0.10956573356E+04  0.11902979767E+04  0.46512823630E+03 0.  0.
      99925    2    3    3    0    0  0.19714150144E+02 -0.28577048922E+02  0.38189966111E+03  0.46483066422E+03  0.26270687048E+03 0.  0.
         25    1    3    3    0    0 -0.19714150144E+02  0.28577048922E+02  0.71375767451E+03  0.72546731247E+03  0.12509000000E+03 0.  0.
         25    1    4    4    0    0 -0.41554500393E+00 -0.50887360713E+02  0.17257516242E+03  0.21913327210E+03  0.12509000000E+03 0.  0.
         25    1    4    4    0    0  0.20129695148E+02  0.22310311791E+02  0.20932449870E+03  0.24569739212E+03  0.12509000000E+03 0.  0.
<mgrwt>
<rscale>  2 0.46512824E+03</rscale>
<asrwt>0</asrwt>
<pdfrwt beam="1">  1       21 0.16808493E+00 0.46512824E+03</pdfrwt>
<pdfrwt beam="2">  1       21 0.69588714E-02 0.46512824E+03</pdfrwt>
<totfact> 0.30024919E+04</totfact>
</mgrwt>
</event>
<event>
 7    0  0.4709932E-002  0.4567464E+03  0.7546771E-02  0.1025729E+00
         21   -1    0    0  502  501  0.00000000000E+00  0.00000000000E+00  0.39838022364E+02  0.39838022364E+02  0.00000000000E+00 0.  1.
         21   -1    0    0  501  502 -0.00000000000E+00 -0.00000000000E+00 -0.13091594687E+04  0.13091594687E+04  0.00000000000E+00 0.  1.
      99926    2    1    2    0    0  0.00000000000E+00  0.00000000000E+00 -0.12693214463E+04  0.13489974910E+04  0.45674642502E+03 0.  0.
      99925    2    3    3    0    0  0.44372508237E+02  0.65291596811E+02 -0.10436446869E+04  0.10791652840E+04  0.26300487764E+03 0.  0.
         25    1    4    4    0    0  0.46948415937E+02  0.22211658844E+02 -0.64716962430E+03  0.66119100287E+03  0.12509000000E+03 0.  0.
         25    1    3    3    0    0 -0.44372508237E+02 -0.65291596811E+02 -0.22567675941E+03  0.26983220701E+03  0.12509000000E+03 0.  0.
         25    1    4    4    0    0 -0.25759077003E+01  0.43079937967E+02 -0.39647506260E+03  0.41797428117E+03  0.12509000000E+03 0.  0.
<mgrwt>
<rscale>  2 0.45674643E+03</rscale>
<asrwt>0</asrwt>
<pdfrwt beam="1">  1       21 0.58585342E-02 0.45674643E+03</pdfrwt>
<pdfrwt beam="2">  1       21 0.19252340E+00 0.45674643E+03</pdfrwt>
<totfact> 0.27350194E+04</totfact>
</mgrwt>
</event>
<event>
 7    0  0.4709932E-002  0.3969381E+03  0.7546771E-02  0.1044845E+00
         21   -1    0    0  502  501  0.00000000000E+00  0.00000000000E+00  0.15405184808E+04  0.15405184808E+04  0.00000000000E+00 0.  1.
         21   -1    0    0  501  502 -0.00000000000E+00 -0.00000000000E+00 -0.25569292496E+02  0.25569292496E+02  0.00000000000E+00 0.  1.
      99926    2    1    2    0    0 -0.35527136788E-14  0.35527136788E-14  0.15149491883E+04  0.15660877733E+04  0.39693811927E+03 0.  0.
      99925    2    3    3    0    0  0.31470861885E+02 -0.21211379465E+02  0.97990643611E+03  0.10153077877E+04  0.26304551403E+03 0.  0.
         25    1    4    4    0    0 -0.20704158054E+02 -0.82890874510E+00  0.41037048581E+03  0.42951227337E+03  0.12509000000E+03 0.  0.
         25    1    4    4    0    0  0.52175019940E+02 -0.20382470720E+02  0.56953595030E+03  0.58579551433E+03  0.12509000000E+03 0.  0.
         25    1    3    3    0    0 -0.31470861885E+02  0.21211379465E+02  0.53504275222E+03  0.55077998563E+03  0.12509000000E+03 0.  0.
<mgrwt>
<rscale>  2 0.39693812E+03</rscale>
<asrwt>0</asrwt>
<pdfrwt beam="1">  1       21 0.22654677E+00 0.39693812E+03</pdfrwt>
<pdfrwt beam="2">  1       21 0.37601911E-02 0.39693812E+03</pdfrwt>
<totfact> 0.35850132E+04</totfact>
</mgrwt>
</event>
<event>
 7    0  0.4709932E-002  0.4533351E+03  0.7546771E-02  0.1026732E+00
         21   -1    0    0  502  501  0.00000000000E+00  0.00000000000E+00  0.41201001928E+02  0.41201001928E+02  0.00000000000E+00 0. -1.
         21   -1    0    0  501  502 -0.00000000000E+00 -0.00000000000E+00 -0.12470127275E+04  0.12470127275E+04  0.00000000000E+00 0. -1.
      99926    2    1    2    0    0  0.00000000000E+00 -0.71054273576E-14 -0.12058117255E+04  0.12882137294E+04  0.45333508044E+03 0.  0.
      99925    2    3    3    0    0 -0.99992531738E+02 -0.42487440263E+02 -0.83270507933E+03  0.87997388993E+03  0.26296883623E+03 0.  0.
         25    1    3    3    0    0  0.99992531738E+02  0.42487440263E+02 -0.37310664621E+03  0.40823983947E+03  0.12509000000E+03 0.  0.
         25    1    4    4    0    0 -0.56076713211E+02 -0.58812958322E+02 -0.48814400991E+03  0.51042692360E+03  0.12509000000E+03 0.  0.
         25    1    4    4    0    0 -0.43915818527E+02  0.16325518060E+02 -0.34456106942E+03  0.36954696632E+03  0.12509000000E+03 0.  0.
<mgrwt>
<rscale>  2 0.45333508E+03</rscale>
<asrwt>0</asrwt>
<pdfrwt beam="1">  1       21 0.60589703E-02 0.45333508E+03</pdfrwt>
<pdfrwt beam="2">  1       21 0.18338424E+00 0.45333508E+03</pdfrwt>
<totfact> 0.29843559E+04</totfact>
</mgrwt>
</event>
<event>
 7    0  0.4709932E-002  0.4506161E+03  0.7546771E-02  0.1027538E+00
         21   -1    0    0  502  501  0.00000000000E+00  0.00000000000E+00  0.10293043233E+03  0.10293043233E+03  0.00000000000E+00 0.  1.
         21   -1    0    0  501  502 -0.00000000000E+00 -0.00000000000E+00 -0.49318469433E+03  0.49318469433E+03  0.00000000000E+00 0.  1.
      99926    2    1    2    0    0 -0.71054273576E-14 -0.35527136788E-14 -0.39025426200E+03  0.59611512666E+03  0.45061608407E+03 0.  0.
      99925    2    3    3    0    0 -0.37061246938E+02  0.70867220642E+01 -0.38185430791E+03  0.46518833420E+03  0.26298995447E+03 0.  0.
         25    1    4    4    0    0 -0.11105187873E+02  0.36294968210E+02 -0.15093467601E+03  0.19967331929E+03  0.12509000000E+03 0.  0.
         25    1    4    4    0    0 -0.25956059066E+02 -0.29208246146E+02 -0.23091963190E+03  0.26551501491E+03  0.12509000000E+03 0.  0.
         25    1    3    3    0    0  0.37061246938E+02 -0.70867220642E+01 -0.83999540867E+01  0.13092679246E+03  0.12509000000E+03 0.  0.
<mgrwt>
<rscale>  2 0.45061608E+03</rscale>
<asrwt>0</asrwt>
<pdfrwt beam="1">  1       21 0.15136828E-01 0.45061608E+03</pdfrwt>
<pdfrwt beam="2">  1       21 0.72527162E-01 0.45061608E+03</pdfrwt>
<totfact> 0.61004002E+04</totfact>
</mgrwt>
</event>
<event>
 7    0  0.4709932E-002  0.4436131E+03  0.7546771E-02  0.1029644E+00
         21   -1    0    0  502  501  0.00000000000E+00  0.00000000000E+00  0.15689441763E+04  0.15689441763E+04  0.00000000000E+00 0.  1.
         21   -1    0    0  501  502 -0.00000000000E+00 -0.00000000000E+00 -0.31357486981E+02  0.31357486981E+02  0.00000000000E+00 0.  1.
      99926    2    1    2    0    0  0.00000000000E+00  0.17763568394E-14  0.15375866893E+04  0.16003016632E+04  0.44361310432E+03 0.  0.
      99925    2    3    3    0    0  0.56577781343E+02  0.13819659942E+02  0.67580137970E+03  0.72753969326E+03  0.26308643469E+03 0.  0.
         25    1    3    3    0    0 -0.56577781343E+02 -0.13819659942E+02  0.86178530958E+03  0.87276196998E+03  0.12509000000E+03 0.  0.
         25    1    4    4    0    0  0.54076173842E+02  0.17279448286E+02  0.43466396036E+03  0.45585422939E+03  0.12509000000E+03 0.  0.
         25    1    4    4    0    0  0.25016075015E+01 -0.34597883435E+01  0.24113741934E+03  0.27168546388E+03  0.12509000000E+03 0.  0.
<mgrwt>
<rscale>  2 0.44361310E+03</rscale>
<asrwt>0</asrwt>
<pdfrwt beam="1">  1       21 0.23072703E+00 0.44361310E+03</pdfrwt>
<pdfrwt beam="2">  1       21 0.46113962E-02 0.44361310E+03</pdfrwt>
<totfact> 0.23426949E+04</totfact>
</mgrwt>
</event>
<event>
 7    0  0.4709932E-002  0.4524901E+03  0.7546771E-02  0.1026982E+00
         21   -1    0    0  502  501  0.00000000000E+00  0.00000000000E+00  0.57153173410E+03  0.57153173410E+03  0.00000000000E+00 0. -1.
         21   -1    0    0  501  502 -0.00000000000E+00 -0.00000000000E+00 -0.89560774274E+02  0.89560774274E+02  0.00000000000E+00 0. -1.
      99926    2    1    2    0    0 -0.14210854715E-13  0.14210854715E-13  0.48197095983E+03  0.66109250838E+03  0.45249010875E+03 0.  0.
      99925    2    3    3    0    0 -0.69731716379E+02  0.75025386055E+02  0.24206364021E+03  0.37179274874E+03  0.26295193720E+03 0.  0.
         25    1    4    4    0    0 -0.70103590517E+02  0.35087514218E+02  0.15607707840E+03  0.21483298061E+03  0.12509000000E+03 0.  0.
         25    1    4    4    0    0  0.37187413814E+00  0.39937871837E+02  0.85986561811E+02  0.15695976812E+03  0.12509000000E+03 0.  0.
         25    1    3    3    0    0  0.69731716379E+02 -0.75025386055E+02  0.23990731962E+03  0.28929975964E+03  0.12509000000E+03 0.  0.
<mgrwt>
<rscale>  2 0.45249011E+03</rscale>
<asrwt>0</asrwt>
<pdfrwt beam="1">  1       21 0.84048783E-01 0.45249011E+03</pdfrwt>
<pdfrwt beam="2">  1       21 0.13170702E-01 0.45249011E+03</pdfrwt>
<totfact> 0.56169806E+04</totfact>
</mgrwt>
</event>
<event>
 7    0  0.4709932E-002  0.4548820E+03  0.7546771E-02  0.1026276E+00
         21   -1    0    0  502  501  0.00000000000E+00  0.00000000000E+00  0.23667393443E+03  0.23667393443E+03  0.00000000000E+00 0. -1.
         21   -1    0    0  501  502 -0.00000000000E+00 -0.00000000000E+00 -0.21856829402E+03  0.21856829402E+03  0.00000000000E+00 0. -1.
      99926    2    1    2    0    0  0.71054273576E-14  0.00000000000E+00  0.18105640415E+02  0.45524222845E+03  0.45488204224E+03 0.  0.
      99925    2    3    3    0    0 -0.46550136357E+02  0.93919527472E+02 -0.30807592577E+02  0.28486674519E+03  0.26308204408E+03 0.  0.
         25    1    4    4    0    0 -0.48256972039E+01  0.76985201051E+02  0.54540895056E+01  0.14706210840E+03  0.12509000000E+03 0.  0.
         25    1    3    3    0    0  0.46550136357E+02 -0.93919527472E+02  0.48913232991E+02  0.17037548326E+03  0.12509000000E+03 0.  0.
         25    1    4    4    0    0 -0.41724439153E+02  0.16934326422E+02 -0.36261682082E+02  0.13780463679E+03  0.12509000000E+03 0.  0.
<mgrwt>
<rscale>  2 0.45488204E+03</rscale>
<asrwt>0</asrwt>
<pdfrwt beam="1">  1       21 0.34804990E-01 0.45488204E+03</pdfrwt>
<pdfrwt beam="2">  1       21 0.32142396E-01 0.45488204E+03</pdfrwt>
<totfact> 0.68592604E+04</totfact>
</mgrwt>
</event>
<event>
 7    0  0.4709932E-002  0.4515461E+03  0.7546771E-02  0.1027262E+00
         21   -1    0    0  502  501  0.00000000000E+00  0.00000000000E+00  0.27686046946E+03  0.27686046946E+03  0.00000000000E+00 0.  1.
         21   -1    0    0  501  502 -0.00000000000E+00 -0.00000000000E+00 -0.18411247017E+03  0.18411247017E+03  0.00000000000E+00 0.  1.
      99926    2    1    2    0    0  0.00000000000E+00  0.00000000000E+00  0.92747999291E+02  0.46097293962E+03  0.45154607704E+03 0.  0.
      99925    2    3    3    0    0 -0.69649371614E+02  0.82580324701E+02  0.79253471856E+02  0.29514123166E+03  0.26297659370E+03 0.  0.
         25    1    4    4    0    0 -0.41222839777E+02  0.28800511704E+02  0.78569232070E+02  0.15604302074E+03  0.12509000000E+03 0.  0.
         25    1    3    3    0    0  0.69649371614E+02 -0.82580324701E+02  0.13494527436E+02  0.16583170796E+03  0.12509000000E+03 0.  0.
         25    1    4    4    0    0 -0.28426531838E+02  0.53779812997E+02  0.68423978512E+00  0.13909821092E+03  0.12509000000E+03 0.  0.
<mgrwt>
<rscale>  2 0.45154608E+03</rscale>
<asrwt>0</asrwt>
<pdfrwt beam="1">  1       21 0.40714775E-01 0.45154608E+03</pdfrwt>
<pdfrwt beam="2">  1       21 0.27075363E-01 0.45154608E+03</pdfrwt>
<totfact> 0.70012366E+04</totfact>
</mgrwt>
</event>
<event>
 7    0  0.4709932E-002  0.4621637E+03  0.7546771E-02  0.1024156E+00
         21   -1    0    0  502  501  0.00000000000E+00  0.00000000000E+00  0.34136076930E+03  0.34136076930E+03  0.00000000000E+00 0. -1.
         21   -1    0    0  501  502 -0.00000000000E+00 -0.00000000000E+00 -0.15642928329E+03  0.15642928329E+03  0.00000000000E+00 0. -1.
      99926    2    1    2    0    0 -0.14210854715E-13  0.00000000000E+00  0.18493148600E+03  0.49779005259E+03  0.46216369604E+03 0.  0.
      99925    2    3    3    0    0  0.11489603298E+03 -0.28473322517E+02  0.13555089459E+03  0.31863152111E+03  0.26294518960E+03 0.  0.
         25    1    4    4    0    0  0.28982084767E+02 -0.30243212714E+02  0.34664190621E+02  0.13639548147E+03  0.12509000000E+03 0.  0.
         25    1    4    4    0    0  0.85913948217E+02  0.17698901973E+01  0.10088670397E+03  0.18223603965E+03  0.12509000000E+03 0.  0.
         25    1    3    3    0    0 -0.11489603298E+03  0.28473322517E+02  0.49380591414E+02  0.17915853147E+03  0.12509000000E+03 0.  0.
<mgrwt>
<rscale>  2 0.46216370E+03</rscale>
<asrwt>0</asrwt>
<pdfrwt beam="1">  1       21 0.50200113E-01 0.46216370E+03</pdfrwt>
<pdfrwt beam="2">  1       21 0.23004306E-01 0.46216370E+03</pdfrwt>
<totfact> 0.61834185E+04</totfact>
</mgrwt>
</event>
<event>
 7    0  0.4709932E-002  0.4691161E+03  0.7546771E-02  0.1022170E+00
         21   -1    0    0  502  501  0.00000000000E+00  0.00000000000E+00  0.26290196602E+03  0.26290196602E+03  0.00000000000E+00 0. -1.
         21   -1    0    0  501  502 -0.00000000000E+00 -0.00000000000E+00 -0.20926996330E+03  0.20926996330E+03  0.00000000000E+00 0. -1.
      99926    2    1    2    0    0 -0.14210854715E-13 -0.88817841970E-15  0.53632002720E+02  0.47217192932E+03  0.46911612541E+03 0.  0.
      99925    2    3    3    0    0  0.11131360180E+03  0.67455248371E+01 -0.25721991550E+02  0.28675136801E+03  0.26292300423E+03 0.  0.
         25    1    4    4    0    0  0.80027616101E+02  0.11564383256E+02  0.19071230060E+02  0.15016449053E+03  0.12509000000E+03 0.  0.
         25    1    4    4    0    0  0.31285985694E+02 -0.48188584185E+01 -0.44793221611E+02  0.13658687748E+03  0.12509000000E+03 0.  0.
         25    1    3    3    0    0 -0.11131360180E+03 -0.67455248371E+01  0.79353994270E+02  0.18542056131E+03  0.12509000000E+03 0.  0.
<mgrwt>
<rscale>  2 0.46911613E+03</rscale>
<asrwt>0</asrwt>
<pdfrwt beam="1">  1       21 0.38662054E-01 0.46911613E+03</pdfrwt>
<pdfrwt beam="2">  1       21 0.30774995E-01 0.46911613E+03</pdfrwt>
<totfact> 0.60230828E+04</totfact>
</mgrwt>
</event>
<event>
 7    0  0.4709932E-002  0.4578217E+03  0.7546771E-02  0.1025415E+00
         21   -1    0    0  502  501  0.00000000000E+00  0.00000000000E+00  0.71082022276E+03  0.71082022276E+03  0.00000000000E+00 0. -1.
         21   -1    0    0  501  502 -0.00000000000E+00 -0.00000000000E+00 -0.73717912417E+02  0.73717912417E+02  0.00000000000E+00 0. -1.
      99926    2    1    2    0    0  0.14210854715E-13  0.17763568394E-14  0.63710231035E+03  0.78453813518E+03  0.45782172480E+03 0.  0.
      99925    2    3    3    0    0 -0.98236638905E+02 -0.88340439863E+01  0.29578647806E+03  0.40787849701E+03  0.26295769653E+03 0.  0.
         25    1    3    3    0    0  0.98236638905E+02  0.88340439863E+01  0.34131583229E+03  0.37665963817E+03  0.12509000000E+03 0.  0.
         25    1    4    4    0    0 -0.14420294304E+02 -0.16875814240E+02  0.10583260765E+03  0.16535049724E+03  0.12509000000E+03 0.  0.
         25    1    4    4    0    0 -0.83816344600E+02  0.80417702538E+01  0.18995387041E+03  0.24252799977E+03  0.12509000000E+03 0.  0.
<mgrwt>
<rscale>  2 0.45782172E+03</rscale>
<asrwt>0</asrwt>
<pdfrwt beam="1">  1       21 0.10453238E+00 0.45782172E+03</pdfrwt>
<pdfrwt beam="2">  1       21 0.10840870E-01 0.45782172E+03</pdfrwt>
<totfact> 0.47461902E+04</totfact>
</mgrwt>
</event>
<event>
 7    0  0.4709932E-002  0.4518516E+03  0.7546771E-02  0.1027171E+00
         21   -1    0    0  502  501  0.00000000000E+00  0.00000000000E+00  0.43879682751E+03  0.43879682751E+03  0.00000000000E+00 0.  1.
         21   -1    0    0  501  502 -0.00000000000E+00 -0.00000000000E+00 -0.11632368474E+03  0.11632368474E+03  0.00000000000E+00 0.  1.
      99926    2    1    2    0    0  0.00000000000E+00 -0.17763568394E-14  0.32247314277E+03  0.55512051225E+03  0.45185158549E+03 0.  0.
      99925    2    3    3    0    0  0.10953413913E+03 -0.97001657320E+01  0.19469586648E+03  0.34520061970E+03  0.26299271201E+03 0.  0.
         25    1    3    3    0    0 -0.10953413913E+03  0.97001657320E+01  0.12777727629E+03  0.20991989254E+03  0.12509000000E+03 0.  0.
         25    1    4    4    0    0  0.54621280242E+02  0.18094128407E+02  0.56284598302E+02  0.14874927174E+03  0.12509000000E+03 0.  0.
         25    1    4    4    0    0  0.54912858884E+02 -0.27794294139E+02  0.13841126818E+03  0.19645134796E+03  0.12509000000E+03 0.  0.
<mgrwt>
<rscale>  2 0.45185159E+03</rscale>
<asrwt>0</asrwt>
<pdfrwt beam="1">  1       21 0.64528945E-01 0.45185159E+03</pdfrwt>
<pdfrwt beam="2">  1       21 0.17106424E-01 0.45185159E+03</pdfrwt>
<totfact> 0.63086042E+04</totfact>
</mgrwt>
</event>
<event>
 7    0  0.4709932E-002  0.4518515E+03  0.7546771E-02  0.1027171E+00
         21   -1    0    0  502  501  0.00000000000E+00  0.00000000000E+00  0.18437673350E+03  0.18437673350E+03  0.00000000000E+00 0. -1.
         21   -1    0    0  501  502 -0.00000000000E+00 -0.00000000000E+00 -0.27683782819E+03  0.27683782819E+03  0.00000000000E+00 0. -1.
      99926    2    1    2    0    0  0.00000000000E+00  0.14210854715E-13 -0.92461094686E+02  0.46121456169E+03  0.45185154408E+03 0.  0.
      99925    2    3    3    0    0 -0.49417766395E+02  0.85952994940E+02 -0.94516627326E+01  0.28130317554E+03  0.26308194477E+03 0.  0.
         25    1    4    4    0    0 -0.53540872102E+01  0.45462115436E+01  0.15818534864E+01  0.12529702570E+03  0.12509000000E+03 0.  0.
         25    1    4    4    0    0 -0.44063679185E+02  0.81406783397E+02 -0.11033516219E+02  0.15600614984E+03  0.12509000000E+03 0.  0.
         25    1    3    3    0    0  0.49417766395E+02 -0.85952994940E+02 -0.83009431953E+02  0.17991138615E+03  0.12509000000E+03 0.  0.
<mgrwt>
<rscale>  2 0.45185154E+03</rscale>
<asrwt>0</asrwt>
<pdfrwt beam="1">  1       21 0.27114226E-01 0.45185154E+03</pdfrwt>
<pdfrwt beam="2">  1       21 0.40711445E-01 0.45185154E+03</pdfrwt>
<totfact> 0.69823093E+04</totfact>
</mgrwt>
</event>
<event>
 7    0  0.4709932E-002  0.4511725E+03  0.7546771E-02  0.1027373E+00
         21   -1    0    0  502  501  0.00000000000E+00  0.00000000000E+00  0.15535544744E+04  0.15535544744E+04  0.00000000000E+00 0.  1.
         21   -1    0    0  501  502 -0.00000000000E+00 -0.00000000000E+00 -0.32756597937E+02  0.32756597937E+02  0.00000000000E+00 0.  1.
      99926    2    1    2    0    0  0.00000000000E+00  0.00000000000E+00  0.15207978764E+04  0.15863110723E+04  0.45117251375E+03 0.  0.
      99925    2    3    3    0    0  0.80779166497E+02 -0.39420041142E+02  0.74143377389E+03  0.79187093875E+03  0.26316597268E+03 0.  0.
         25    1    3    3    0    0 -0.80779166497E+02  0.39420041142E+02  0.77936410255E+03  0.79444013357E+03  0.12509000000E+03 0.  0.
         25    1    4    4    0    0  0.78086763038E+02 -0.32376470258E+02  0.44949654331E+03  0.47417341653E+03  0.12509000000E+03 0.  0.
         25    1    4    4    0    0  0.26924034591E+01 -0.70435708836E+01  0.29193723058E+03  0.31769752222E+03  0.12509000000E+03 0.  0.
<mgrwt>
<rscale>  2 0.45117251E+03</rscale>
<asrwt>0</asrwt>
<pdfrwt beam="1">  1       21 0.22846384E+00 0.45117251E+03</pdfrwt>
<pdfrwt beam="2">  1       21 0.48171478E-02 0.45117251E+03</pdfrwt>
<totfact> 0.22399174E+04</totfact>
</mgrwt>
</event>
<event>
 7    0  0.4709932E-002  0.4536305E+03  0.7546771E-02  0.1026645E+00
         21   -1    0    0  502  501  0.00000000000E+00  0.00000000000E+00  0.30019019979E+03  0.30019019979E+03  0.00000000000E+00 0.  1.
         21   -1    0    0  501  502 -0.00000000000E+00 -0.00000000000E+00 -0.17137523797E+03  0.17137523797E+03  0.00000000000E+00 0.  1.
      99926    2    1    2    0    0 -0.71054273576E-14  0.00000000000E+00  0.12881496182E+03  0.47156543776E+03  0.45363054097E+03 0.  0.
      99925    2    3    3    0    0  0.51599906939E+02 -0.39416538554E+02  0.17540418879E+03  0.32312596162E+03  0.26349106953E+03 0.  0.
         25    1    3    3    0    0 -0.51599906939E+02  0.39416538554E+02 -0.46589226970E+02  0.14843947614E+03  0.12509000000E+03 0.  0.
         25    1    4    4    0    0  0.62875869402E+02 -0.21602266523E+02  0.69078698397E+02  0.15760522689E+03  0.12509000000E+03 0.  0.
         25    1    4    4    0    0 -0.11275962463E+02 -0.17814272031E+02  0.10632549039E+03  0.16552073473E+03  0.12509000000E+03 0.  0.
<mgrwt>
<rscale>  2 0.45363054E+03</rscale>
<asrwt>0</asrwt>
<pdfrwt beam="1">  1       21 0.44145618E-01 0.45363054E+03</pdfrwt>
<pdfrwt beam="2">  1       21 0.25202241E-01 0.45363054E+03</pdfrwt>
<totfact> 0.68055953E+04</totfact>
</mgrwt>
</event>
<event>
 7    0  0.4709932E-002  0.4598993E+03  0.7546771E-02  0.1024810E+00
         21   -1    0    0  502  501  0.00000000000E+00  0.00000000000E+00  0.21135116104E+03  0.21135116104E+03  0.00000000000E+00 0. -1.
         21   -1    0    0  501  502 -0.00000000000E+00 -0.00000000000E+00 -0.25018478389E+03  0.25018478389E+03  0.00000000000E+00 0. -1.
      99926    2    1    2    0    0  0.35527136788E-14  0.14210854715E-13 -0.38833622850E+02  0.46153594493E+03  0.45989931310E+03 0.  0.
      99925    2    3    3    0    0 -0.26513367808E+02  0.74027047518E+02 -0.11333401791E+03  0.29606455948E+03  0.26196690884E+03 0.  0.
         25    1    3    3    0    0  0.26513367808E+02 -0.74027047518E+02  0.74500395057E+02  0.16547138544E+03  0.12509000000E+03 0.  0.
         25    1    4    4    0    0  0.23332178050E+02  0.47730946287E+02 -0.64497194630E+02  0.15043280886E+03  0.12509000000E+03 0.  0.
         25    1    4    4    0    0 -0.49845545858E+02  0.26296101230E+02 -0.48836823277E+02  0.14563175062E+03  0.12509000000E+03 0.  0.
<mgrwt>
<rscale>  2 0.45989931E+03</rscale>
<asrwt>0</asrwt>
<pdfrwt beam="1">  1       21 0.31081053E-01 0.45989931E+03</pdfrwt>
<pdfrwt beam="2">  1       21 0.36791880E-01 0.45989931E+03</pdfrwt>
<totfact> 0.65472628E+04</totfact>
</mgrwt>
</event>
<event>
 7    0  0.4709932E-002  0.4532671E+03  0.7546771E-02  0.1026752E+00
         21   -1    0    0  502  501  0.00000000000E+00  0.00000000000E+00  0.24261659651E+03  0.24261659651E+03  0.00000000000E+00 0. -1.
         21   -1    0    0  501  502 -0.00000000000E+00 -0.00000000000E+00 -0.21170342137E+03  0.21170342137E+03  0.00000000000E+00 0. -1.
      99926    2    1    2    0    0  0.00000000000E+00  0.00000000000E+00  0.30913175139E+02  0.45432001787E+03  0.45326708930E+03 0.  0.
      99925    2    3    3    0    0 -0.21043000064E+02  0.62991716839E+02  0.10935617250E+03  0.29242012233E+03  0.26294484448E+03 0.  0.
         25    1    4    4    0    0 -0.40704246111E+02  0.14154478324E+02  0.76320888729E+02  0.15274020775E+03  0.12509000000E+03 0.  0.
         25    1    4    4    0    0  0.19661246047E+02  0.48837238515E+02  0.33035283774E+02  0.13967991458E+03  0.12509000000E+03 0.  0.
         25    1    3    3    0    0  0.21043000064E+02 -0.62991716839E+02 -0.78442997364E+02  0.16189989554E+03  0.12509000000E+03 0.  0.
<mgrwt>
<rscale>  2 0.45326709E+03</rscale>
<asrwt>0</asrwt>
<pdfrwt beam="1">  1       21 0.35678911E-01 0.45326709E+03</pdfrwt>
<pdfrwt beam="2">  1       21 0.31132856E-01 0.45326709E+03</pdfrwt>
<totfact> 0.69552375E+04</totfact>
</mgrwt>
</event>
<event>
 7    0  0.4709932E-002  0.4441002E+03  0.7546771E-02  0.1029496E+00
         21   -1    0    0  502  501  0.00000000000E+00  0.00000000000E+00  0.94049792352E+02  0.94049792352E+02  0.00000000000E+00 0.  1.
         21   -1    0    0  501  502 -0.00000000000E+00 -0.00000000000E+00 -0.52425675128E+03  0.52425675128E+03  0.00000000000E+00 0.  1.
      99926    2    1    2    0    0  0.14210854715E-13  0.00000000000E+00 -0.43020695893E+03  0.61830654363E+03  0.44410016256E+03 0.  0.
      99925    2    3    3    0    0 -0.78196116110E+02  0.60591339118E+02 -0.23563667424E+03  0.36672942477E+03  0.26302069462E+03 0.  0.
         25    1    3    3    0    0  0.78196116110E+02 -0.60591339118E+02 -0.19457028469E+03  0.25157711886E+03  0.12509000000E+03 0.  0.
         25    1    4    4    0    0 -0.12607953715E+02  0.25452835613E+02 -0.69634793009E+02  0.14595656832E+03  0.12509000000E+03 0.  0.
         25    1    4    4    0    0 -0.65588162395E+02  0.35138503505E+02 -0.16600188123E+03  0.22077285646E+03  0.12509000000E+03 0.  0.
<mgrwt>
<rscale>  2 0.44410016E+03</rscale>
<asrwt>0</asrwt>
<pdfrwt beam="1">  1       21 0.13830852E-01 0.44410016E+03</pdfrwt>
<pdfrwt beam="2">  1       21 0.77096581E-01 0.44410016E+03</pdfrwt>
<totfact> 0.62798352E+04</totfact>
</mgrwt>
</event>
<event>
 7    0  0.4709932E-002  0.4504489E+03  0.7546771E-02  0.1027588E+00
         21   -1    0    0  502  501  0.00000000000E+00  0.00000000000E+00  0.38513516412E+03  0.38513516412E+03  0.00000000000E+00 0. -1.
         21   -1    0    0  501  502 -0.00000000000E+00 -0.00000000000E+00 -0.13170972978E+03  0.13170972978E+03  0.00000000000E+00 0. -1.
      99926    2    1    2    0    0  0.00000000000E+00 -0.14210854715E-13  0.25342543435E+03  0.51684489390E+03  0.45044888009E+03 0.  0.
      99925    2    3    3    0    0  0.34846741246E+02  0.93525421883E+02  0.21179499256E+03  0.35149102579E+03  0.26215934549E+03 0.  0.
         25    1    3    3    0    0 -0.34846741246E+02 -0.93525421883E+02  0.41630441792E+02  0.16535386811E+03  0.12509000000E+03 0.  0.
         25    1    4    4    0    0  0.44151795433E+02  0.25791697601E+02  0.12798640954E+03  0.18612528531E+03  0.12509000000E+03 0.  0.
         25    1    4    4    0    0 -0.93050541867E+01  0.67733724281E+02  0.83808583013E+02  0.16536574048E+03  0.12509000000E+03 0.  0.
<mgrwt>
<rscale>  2 0.45044888E+03</rscale>
<asrwt>0</asrwt>
<pdfrwt beam="1">  1       21 0.56637524E-01 0.45044888E+03</pdfrwt>
<pdfrwt beam="2">  1       21 0.19369078E-01 0.45044888E+03</pdfrwt>
<totfact> 0.66470632E+04</totfact>
</mgrwt>
</event>
<event>
 7    0  0.4709932E-002  0.4630116E+03  0.7546771E-02  0.1023911E+00
         21   -1    0    0  502  501  0.00000000000E+00  0.00000000000E+00  0.59226355080E+03  0.59226355080E+03  0.00000000000E+00 0. -1.
         21   -1    0    0  501  502 -0.00000000000E+00 -0.00000000000E+00 -0.90491698370E+02  0.90491698370E+02  0.00000000000E+00 0. -1.
      99926    2    1    2    0    0  0.00000000000E+00  0.00000000000E+00  0.50177185243E+03  0.68275524917E+03  0.46301159638E+03 0.  0.
      99925    2    3    3    0    0  0.84700098102E+02  0.45851587853E+02  0.41996008270E+03  0.50494313346E+03  0.26329569355E+03 0.  0.
         25    1    4    4    0    0  0.37097272856E+02  0.29276244463E+02  0.13675631328E+03  0.19126709980E+03  0.12509000000E+03 0.  0.
         25    1    3    3    0    0 -0.84700098102E+02 -0.45851587853E+02  0.81811769729E+02  0.17781211571E+03  0.12509000000E+03 0.  0.
         25    1    4    4    0    0  0.47602825246E+02  0.16575343390E+02  0.28320376942E+03  0.31367603366E+03  0.12509000000E+03 0.  0.
<mgrwt>
<rscale>  2 0.46301160E+03</rscale>
<asrwt>0</asrwt>
<pdfrwt beam="1">  1       21 0.87097579E-01 0.46301160E+03</pdfrwt>
<pdfrwt beam="2">  1       21 0.13307603E-01 0.46301160E+03</pdfrwt>
<totfact> 0.50580493E+04</totfact>
</mgrwt>
</event>
<event>
 7    0  0.4709932E-002  0.4543571E+03  0.7546771E-02  0.1026431E+00
         21   -1    0    0  502  501  0.00000000000E+00  0.00000000000E+00  0.74336247780E+02  0.74336247780E+02  0.00000000000E+00 0.  1.
         21   -1    0    0  501  502 -0.00000000000E+00 -0.00000000000E+00 -0.69427893824E+03  0.69427893824E+03  0.00000000000E+00 0.  1.
      99926    2    1    2    0    0  0.00000000000E+00  0.00000000000E+00 -0.61994269046E+03  0.76861518602E+03  0.45435708944E+03 0.  0.
      99925    2    3    3    0    0 -0.99134058614E+02  0.47556701494E+02 -0.42921341970E+03  0.51540704188E+03  0.26330791431E+03 0.  0.
         25    1    4    4    0    0 -0.80378719045E+01  0.13412160261E+02 -0.17100767980E+03  0.21245147229E+03  0.12509000000E+03 0.  0.
         25    1    4    4    0    0 -0.91096186710E+02  0.34144541233E+02 -0.25820573990E+03  0.30295556959E+03  0.12509000000E+03 0.  0.
         25    1    3    3    0    0  0.99134058614E+02 -0.47556701494E+02 -0.19072927076E+03  0.25320814414E+03  0.12509000000E+03 0.  0.
<mgrwt>
<rscale>  2 0.45435709E+03</rscale>
<asrwt>0</asrwt>
<pdfrwt beam="1">  1       21 0.10931801E-01 0.45435709E+03</pdfrwt>
<pdfrwt beam="2">  1       21 0.10209985E+00 0.45435709E+03</pdfrwt>
<totfact> 0.49569940E+04</totfact>
</mgrwt>
</event>
<event>
 7    0  0.4709932E-002  0.4557810E+03  0.7546771E-02  0.1026012E+00
         21   -1    0    0  502  501  0.00000000000E+00  0.00000000000E+00  0.17291801169E+03  0.17291801169E+03  0.00000000000E+00 0. -1.
         21   -1    0    0  501  502 -0.00000000000E+00 -0.00000000000E+00 -0.30033939347E+03  0.30033939347E+03  0.00000000000E+00 0. -1.
      99926    2    1    2    0    0  0.00000000000E+00 -0.71054273576E-14 -0.12742138178E+03  0.47325740517E+03  0.45578104722E+03 0.  0.
      99925    2    3    3    0    0 -0.10522477773E+03  0.30919090313E+02 -0.11185985789E+03  0.30617086136E+03  0.26305840520E+03 0.  0.
         25    1    4    4    0    0 -0.80272618799E+02  0.48227059747E+02 -0.59424648100E+02  0.16717756884E+03  0.12509000000E+03 0.  0.
         25    1    3    3    0    0  0.10522477773E+03 -0.30919090313E+02 -0.15561523889E+02  0.16708654380E+03  0.12509000000E+03 0.  0.
         25    1    4    4    0    0 -0.24952158931E+02 -0.17307969434E+02 -0.52435209790E+02  0.13899329253E+03  0.12509000000E+03 0.  0.
<mgrwt>
<rscale>  2 0.45578105E+03</rscale>
<asrwt>0</asrwt>
<pdfrwt beam="1">  1       21 0.25429120E-01 0.45578105E+03</pdfrwt>
<pdfrwt beam="2">  1       21 0.44167557E-01 0.45578105E+03</pdfrwt>
<totfact> 0.66779502E+04</totfact>
</mgrwt>
</event>
<event>
 7    0  0.4709932E-002  0.4553837E+03  0.7546771E-02  0.1026129E+00
         21   -1    0    0  502  501  0.00000000000E+00  0.00000000000E+00  0.29523367744E+03  0.29523367744E+03  0.00000000000E+00 0. -1.
         21   -1    0    0  501  502 -0.00000000000E+00 -0.00000000000E+00 -0.17560183192E+03  0.17560183192E+03  0.00000000000E+00 0. -1.
      99926    2    1    2    0    0  0.00000000000E+00 -0.13322676296E-14  0.11963184552E+03  0.47083550936E+03  0.45538368264E+03 0.  0.
      99925    2    3    3    0    0 -0.58562858985E+02  0.33361544437E+01  0.17582574172E+03  0.32168457758E+03  0.26291735892E+03 0.  0.
         25    1    3    3    0    0  0.58562858985E+02 -0.33361544437E+01 -0.56193896206E+02  0.14915093178E+03  0.12509000000E+03 0.  0.
         25    1    4    4    0    0 -0.56066537551E+02 -0.26855215442E+02  0.10524305696E+03  0.17489502099E+03  0.12509000000E+03 0.  0.
         25    1    4    4    0    0 -0.24963214337E+01  0.30191369885E+02  0.70582684765E+02  0.14678955659E+03  0.12509000000E+03 0.  0.
<mgrwt>
<rscale>  2 0.45538368E+03</rscale>
<asrwt>0</asrwt>
<pdfrwt beam="1">  1       21 0.43416717E-01 0.45538368E+03</pdfrwt>
<pdfrwt beam="2">  1       21 0.25823799E-01 0.45538368E+03</pdfrwt>
<totfact> 0.67168936E+04</totfact>
</mgrwt>
</event>
<event>
 7    0  0.4709932E-002  0.4622978E+03  0.7546771E-02  0.1024117E+00
         21   -1    0    0  502  501  0.00000000000E+00  0.00000000000E+00  0.34570051486E+03  0.34570051486E+03  0.00000000000E+00 0.  1.
         21   -1    0    0  501  502 -0.00000000000E+00 -0.00000000000E+00 -0.15455520607E+03  0.15455520607E+03  0.00000000000E+00 0.  1.
      99926    2    1    2    0    0 -0.71054273576E-14  0.00000000000E+00  0.19114530879E+03  0.50025572093E+03  0.46229780147E+03 0.  0.
      99925    2    3    3    0    0 -0.56501268357E+02  0.68144744867E+02  0.31919534169E+02  0.27926600401E+03  0.26293448757E+03 0.  0.
         25    1    4    4    0    0 -0.37594566820E+01  0.34914791363E+02 -0.17338832176E+02  0.13107753191E+03  0.12509000000E+03 0.  0.
         25    1    4    4    0    0 -0.52741811675E+02  0.33229953504E+02  0.49258366344E+02  0.14818847210E+03  0.12509000000E+03 0.  0.
         25    1    3    3    0    0  0.56501268357E+02 -0.68144744867E+02  0.15922577462E+03  0.22098971692E+03  0.12509000000E+03 0.  0.
<mgrwt>
<rscale>  2 0.46229780E+03</rscale>
<asrwt>0</asrwt>
<pdfrwt beam="1">  1       21 0.50838311E-01 0.46229780E+03</pdfrwt>
<pdfrwt beam="2">  1       21 0.22728707E-01 0.46229780E+03</pdfrwt>
<totfact> 0.61605594E+04</totfact>
</mgrwt>
</event>
<event>
 7    0  0.4709932E-002  0.4568616E+03  0.7546771E-02  0.1025695E+00
         21   -1    0    0  502  501  0.00000000000E+00  0.00000000000E+00  0.53454249927E+03  0.53454249927E+03  0.00000000000E+00 0.  1.
         21   -1    0    0  501  502 -0.00000000000E+00 -0.00000000000E+00 -0.97617357782E+02  0.97617357782E+02  0.00000000000E+00 0.  1.
      99926    2    1    2    0    0  0.00000000000E+00  0.71054273576E-14  0.43692514149E+03  0.63215985706E+03  0.45686158254E+03 0.  0.
      99925    2    3    3    0    0  0.87956674107E+01 -0.55944642110E+02  0.41281528704E+03  0.49274694543E+03  0.26301316368E+03 0.  0.
         25    1    4    4    0    0 -0.24693737571E+01 -0.78263320049E+01  0.26342110806E+03  0.29172853400E+03  0.12509000000E+03 0.  0.
         25    1    3    3    0    0 -0.87956674107E+01  0.55944642110E+02  0.24109854451E+02  0.13941291162E+03  0.12509000000E+03 0.  0.
         25    1    4    4    0    0  0.11265041168E+02 -0.48118310105E+02  0.14939417898E+03  0.20101841143E+03  0.12509000000E+03 0.  0.
<mgrwt>
<rscale>  2 0.45686158E+03</rscale>
<asrwt>0</asrwt>
<pdfrwt beam="1">  1       21 0.78609190E-01 0.45686158E+03</pdfrwt>
<pdfrwt beam="2">  1       21 0.14355494E-01 0.45686158E+03</pdfrwt>
<totfact> 0.55914957E+04</totfact>
</mgrwt>
</event>
<event>
 7    0  0.4709932E-002  0.4534981E+03  0.7546771E-02  0.1026684E+00
         21   -1    0    0  502  501  0.00000000000E+00  0.00000000000E+00  0.16854871599E+03  0.16854871599E+03  0.00000000000E+00 0. -1.
         21   -1    0    0  501  502 -0.00000000000E+00 -0.00000000000E+00 -0.30504614001E+03  0.30504614001E+03  0.00000000000E+00 0. -1.
      99926    2    1    2    0    0  0.00000000000E+00  0.00000000000E+00 -0.13649742403E+03  0.47359485600E+03  0.45349811561E+03 0.  0.
      99925    2    3    3    0    0  0.88937420253E+02 -0.10371586118E+02 -0.16361204457E+02  0.27840865292E+03  0.26310882633E+03 0.  0.
         25    1    4    4    0    0  0.58713460499E+02  0.33096582701E+02 -0.77331795622E+01  0.14230236961E+03  0.12509000000E+03 0.  0.
         25    1    4    4    0    0  0.30223959753E+02 -0.43468168819E+02 -0.86280248948E+01  0.13610628331E+03  0.12509000000E+03 0.  0.
         25    1    3    3    0    0 -0.88937420253E+02  0.10371586118E+02 -0.12013621957E+03  0.19518620308E+03  0.12509000000E+03 0.  0.
<mgrwt>
<rscale>  2 0.45349812E+03</rscale>
<asrwt>0</asrwt>
<pdfrwt beam="1">  1       21 0.24786576E-01 0.45349812E+03</pdfrwt>
<pdfrwt beam="2">  1       21 0.44859726E-01 0.45349812E+03</pdfrwt>
<totfact> 0.67975955E+04</totfact>
</mgrwt>
</event>
<event>
 7    0  0.4709932E-002  0.4555598E+03  0.7546771E-02  0.1026077E+00
         21   -1    0    0  502  501  0.00000000000E+00  0.00000000000E+00  0.30324681973E+03  0.30324681973E+03  0.00000000000E+00 0.  1.
         21   -1    0    0  501  502 -0.00000000000E+00 -0.00000000000E+00 -0.17109394265E+03  0.17109394265E+03  0.00000000000E+00 0.  1.
      99926    2    1    2    0    0 -0.71054273576E-14  0.00000000000E+00  0.13215287708E+03  0.47434076238E+03  0.45555984891E+03 0.  0.
      99925    2    3    3    0    0 -0.60320109486E+02  0.94744004396E+02  0.66034718448E+02  0.29369176300E+03  0.26320966098E+03 0.  0.
         25    1    4    4    0    0 -0.25385186578E+02  0.15596889990E+02  0.18292487998E+01  0.12860219643E+03  0.12509000000E+03 0.  0.
         25    1    3    3    0    0  0.60320109486E+02 -0.94744004396E+02  0.66118158631E+02  0.18064899938E+03  0.12509000000E+03 0.  0.
         25    1    4    4    0    0 -0.34934922908E+02  0.79147114406E+02  0.64205469648E+02  0.16508956657E+03  0.12509000000E+03 0.  0.
<mgrwt>
<rscale>  2 0.45555985E+03</rscale>
<asrwt>0</asrwt>
<pdfrwt beam="1">  1       21 0.44595121E-01 0.45555985E+03</pdfrwt>
<pdfrwt beam="2">  1       21 0.25160874E-01 0.45555985E+03</pdfrwt>
<totfact> 0.66817096E+04</totfact>
</mgrwt>
</event>
<event>
 7    0  0.4709932E-002  0.4482524E+03  0.7546771E-02  0.1028244E+00
         21   -1    0    0  502  501  0.00000000000E+00  0.00000000000E+00  0.18749813539E+03  0.18749813539E+03  0.00000000000E+00 0. -1.
         21   -1    0    0  501  502 -0.00000000000E+00 -0.00000000000E+00 -0.26790966973E+03  0.26790966973E+03  0.00000000000E+00 0. -1.
      99926    2    1    2    0    0  0.00000000000E+00  0.00000000000E+00 -0.80411534337E+02  0.45540780512E+03  0.44825244462E+03 0.  0.
      99925    2    3    3    0    0 -0.43276357467E+02 -0.84168457257E+01 -0.14942994698E+03  0.30589280322E+03  0.26324401532E+03 0.  0.
         25    1    4    4    0    0 -0.31618240152E+02 -0.44102631358E+01 -0.12117680152E+03  0.17706069258E+03  0.12509000000E+03 0.  0.
         25    1    4    4    0    0 -0.11658117315E+02 -0.40065825898E+01 -0.28253145460E+02  0.12883211064E+03  0.12509000000E+03 0.  0.
         25    1    3    3    0    0  0.43276357467E+02  0.84168457257E+01  0.69018412643E+02  0.14951500189E+03  0.12509000000E+03 0.  0.
<mgrwt>
<rscale>  2 0.44825244E+03</rscale>
<asrwt>0</asrwt>
<pdfrwt beam="1">  1       21 0.27573255E-01 0.44825244E+03</pdfrwt>
<pdfrwt beam="2">  1       21 0.39398481E-01 0.44825244E+03</pdfrwt>
<totfact> 0.72330559E+04</totfact>
</mgrwt>
</event>
<event>
 7    0  0.4709932E-002  0.4470892E+03  0.7546771E-02  0.1028594E+00
         21   -1    0    0  502  501  0.00000000000E+00  0.00000000000E+00  0.61843481053E+03  0.61843481053E+03  0.00000000000E+00 0.  1.
         21   -1    0    0  501  502 -0.00000000000E+00 -0.00000000000E+00 -0.80804293779E+02  0.80804293779E+02  0.00000000000E+00 0.  1.
      99926    2    1    2    0    0  0.00000000000E+00 -0.35527136788E-14  0.53763051675E+03  0.69923910430E+03  0.44708919966E+03 0.  0.
      99925    2    3    3    0    0  0.34941133603E+02  0.26382581592E+02  0.49089660569E+03  0.55870978362E+03  0.26317336759E+03 0.  0.
         25    1    4    4    0    0 -0.13474152386E+02 -0.62051672104E+01  0.19421195994E+03  0.23148617748E+03  0.12509000000E+03 0.  0.
         25    1    3    3    0    0 -0.34941133603E+02 -0.26382581592E+02  0.46733911055E+02  0.14052932068E+03  0.12509000000E+03 0.  0.
         25    1    4    4    0    0  0.48415285989E+02  0.32587748802E+02  0.29668464575E+03  0.32722360614E+03  0.12509000000E+03 0.  0.
<mgrwt>
<rscale>  2 0.44708920E+03</rscale>
<asrwt>0</asrwt>
<pdfrwt beam="1">  1       21 0.90946293E-01 0.44708920E+03</pdfrwt>
<pdfrwt beam="2">  1       21 0.11882985E-01 0.44708920E+03</pdfrwt>
<totfact> 0.56372738E+04</totfact>
</mgrwt>
</event>
<event>
 7    0  0.4709932E-002  0.4266477E+03  0.7546771E-02  0.1034924E+00
         21   -1    0    0  502  501  0.00000000000E+00  0.00000000000E+00  0.14793349055E+02  0.14793349055E+02  0.00000000000E+00 0.  1.
         21   -1    0    0  501  502 -0.00000000000E+00 -0.00000000000E+00 -0.30761838783E+04  0.30761838783E+04  0.00000000000E+00 0.  1.
      99926    2    1    2    0    0  0.71054273576E-14  0.00000000000E+00 -0.30613905292E+04  0.30909772273E+04  0.42664768542E+03 0.  0.
      99925    2    3    3    0    0  0.36229513901E+02  0.22556608441E+02 -0.14580017459E+04  0.14821501773E+04  0.26301840016E+03 0.  0.
         25    1    4    4    0    0 -0.22334090731E+02  0.17202204373E+02 -0.70705034751E+03  0.71858362732E+03  0.12509000000E+03 0.  0.
         25    1    3    3    0    0 -0.36229513901E+02 -0.22556608441E+02 -0.16033887834E+04  0.16088270500E+04  0.12509000000E+03 0.  0.
         25    1    4    4    0    0  0.58563604631E+02  0.53544040679E+01 -0.75095139837E+03  0.76356654998E+03  0.12509000000E+03 0.  0.
<mgrwt>
<rscale>  2 0.42664769E+03</rscale>
<asrwt>0</asrwt>
<pdfrwt beam="1">  1       21 0.21754900E-02 0.42664769E+03</pdfrwt>
<pdfrwt beam="2">  1       21 0.45238051E+00 0.42664769E+03</pdfrwt>
<totfact> 0.34781108E+03</totfact>
</mgrwt>
</event>
<event>
 7    0  0.4709932E-002  0.4199801E+03  0.7546771E-02  0.1037073E+00
         21   -1    0    0  502  501  0.00000000000E+00  0.00000000000E+00  0.23322109138E+03  0.23322109138E+03  0.00000000000E+00 0.  1.
         21   -1    0    0  501  502 -0.00000000000E+00 -0.00000000000E+00 -0.18907307930E+03  0.18907307930E+03  0.00000000000E+00 0.  1.
      99926    2    1    2    0    0  0.88817841970E-15  0.00000000000E+00  0.44148012083E+02  0.42229417068E+03  0.41998014193E+03 0.  0.
      99925    2    3    3    0    0 -0.63807264759E+01 -0.41250718737E+02  0.92422264787E+02  0.28186537363E+03  0.26299026285E+03 0.  0.
         25    1    4    4    0    0  0.22756215952E+01 -0.61029504397E+02  0.52908685269E+02  0.14891815181E+03  0.12509000000E+03 0.  0.
         25    1    4    4    0    0 -0.86563480711E+01  0.19778785660E+02  0.39513579518E+02  0.13294722182E+03  0.12509000000E+03 0.  0.
         25    1    3    3    0    0  0.63807264759E+01  0.41250718737E+02 -0.48274252704E+02  0.14042879705E+03  0.12509000000E+03 0.  0.
<mgrwt>
<rscale>  2 0.41998014E+03</rscale>
<asrwt>0</asrwt>
<pdfrwt beam="1">  1       21 0.34297220E-01 0.41998014E+03</pdfrwt>
<pdfrwt beam="2">  1       21 0.27804864E-01 0.41998014E+03</pdfrwt>
<totfact> 0.94875983E+04</totfact>
</mgrwt>
</event>
<event>
 7    0  0.4709932E-002  0.4563739E+03  0.7546771E-02  0.1025838E+00
         21   -1    0    0  502  501  0.00000000000E+00  0.00000000000E+00  0.52900996606E+03  0.52900996606E+03  0.00000000000E+00 0. -1.
         21   -1    0    0  501  502 -0.00000000000E+00 -0.00000000000E+00 -0.98427804184E+02  0.98427804184E+02  0.00000000000E+00 0. -1.
      99926    2    1    2    0    0  0.00000000000E+00  0.00000000000E+00  0.43058216188E+03  0.62743777025E+03  0.45637392279E+03 0.  0.
      99925    2    3    3    0    0  0.29497415885E+02 -0.33469701183E+02  0.12544727530E+03  0.29465386807E+03  0.26285654766E+03 0.  0.
         25    1    3    3    0    0 -0.29497415885E+02  0.33469701183E+02  0.30513488658E+03  0.33278390218E+03  0.12509000000E+03 0.  0.
         25    1    4    4    0    0  0.24969159309E+02  0.36285305367E+01  0.98853177118E+02  0.16141897000E+03  0.12509000000E+03 0.  0.
         25    1    4    4    0    0  0.45282565757E+01 -0.37098231720E+02  0.26594098182E+02  0.13323489807E+03  0.12509000000E+03 0.  0.
<mgrwt>
<rscale>  2 0.45637392E+03</rscale>
<asrwt>0</asrwt>
<pdfrwt beam="1">  1       21 0.77795582E-01 0.45637392E+03</pdfrwt>
<pdfrwt beam="2">  1       21 0.14474677E-01 0.45637392E+03</pdfrwt>
<totfact> 0.56406081E+04</totfact>
</mgrwt>
</event>
<event>
 7    0  0.4709932E-002  0.4549374E+03  0.7546771E-02  0.1026260E+00
         21   -1    0    0  502  501  0.00000000000E+00  0.00000000000E+00  0.28571492867E+02  0.28571492867E+02  0.00000000000E+00 0.  1.
         21   -1    0    0  501  502 -0.00000000000E+00 -0.00000000000E+00 -0.18109660031E+04  0.18109660031E+04  0.00000000000E+00 0.  1.
      99926    2    1    2    0    0  0.00000000000E+00  0.00000000000E+00 -0.17823945102E+04  0.18395374960E+04  0.45493736818E+03 0.  0.
      99925    2    3    3    0    0 -0.69412691051E+02 -0.84127644051E+02 -0.10083351518E+04  0.10478867013E+04  0.26349796640E+03 0.  0.
         25    1    4    4    0    0 -0.24733513629E+02 -0.63877853124E+00 -0.41395107111E+03  0.43314564768E+03  0.12509000000E+03 0.  0.
         25    1    4    4    0    0 -0.44679177421E+02 -0.83488865519E+02 -0.59438408068E+03  0.61474105364E+03  0.12509000000E+03 0.  0.
         25    1    3    3    0    0  0.69412691051E+02  0.84127644051E+02 -0.77405935846E+03  0.79165079466E+03  0.12509000000E+03 0.  0.
<mgrwt>
<rscale>  2 0.45493737E+03</rscale>
<asrwt>0</asrwt>
<pdfrwt beam="1">  1       21 0.42016901E-02 0.45493737E+03</pdfrwt>
<pdfrwt beam="2">  1       21 0.26631853E+00 0.45493737E+03</pdfrwt>
<totfact> 0.16519699E+04</totfact>
</mgrwt>
</event>
<event>
 7    0  0.4709932E-002  0.4639030E+03  0.7546771E-02  0.1023655E+00
         21   -1    0    0  502  501  0.00000000000E+00  0.00000000000E+00  0.44354261282E+03  0.44354261282E+03  0.00000000000E+00 0.  1.
         21   -1    0    0  501  502 -0.00000000000E+00 -0.00000000000E+00 -0.12129950875E+03  0.12129950875E+03  0.00000000000E+00 0.  1.
      99926    2    1    2    0    0 -0.71054273576E-14  0.00000000000E+00  0.32224310407E+03  0.56484212156E+03  0.46390301160E+03 0.  0.
      99925    2    3    3    0    0  0.61039152096E+02 -0.88129046186E+02  0.13185972815E+03  0.31307666563E+03  0.26294011445E+03 0.  0.
         25    1    4    4    0    0 -0.38314872040E+01 -0.21087548054E+02  0.72217633516E+02  0.14602143564E+03  0.12509000000E+03 0.  0.
         25    1    3    3    0    0 -0.61039152096E+02  0.88129046186E+02  0.19038337593E+03  0.25176545593E+03  0.12509000000E+03 0.  0.
         25    1    4    4    0    0  0.64870639300E+02 -0.67041498132E+02  0.59642094631E+02  0.16705522999E+03  0.12509000000E+03 0.  0.
<mgrwt>
<rscale>  2 0.46390301E+03</rscale>
<asrwt>0</asrwt>
<pdfrwt beam="1">  1       21 0.65226854E-01 0.46390301E+03</pdfrwt>
<pdfrwt beam="2">  1       21 0.17838163E-01 0.46390301E+03</pdfrwt>
<totfact> 0.56790474E+04</totfact>
</mgrwt>
</event>
<event>
 7    0  0.4709932E-002  0.4524308E+03  0.7546771E-02  0.1027000E+00
         21   -1    0    0  502  501  0.00000000000E+00  0.00000000000E+00  0.31833553034E+03  0.31833553034E+03  0.00000000000E+00 0.  1.
         21   -1    0    0  501  502 -0.00000000000E+00 -0.00000000000E+00 -0.16075308023E+03  0.16075308023E+03  0.00000000000E+00 0.  1.
      99926    2    1    2    0    0  0.00000000000E+00 -0.14210854715E-13  0.15758245012E+03  0.47908861057E+03  0.45243084355E+03 0.  0.
      99925    2    3    3    0    0 -0.74204411975E+02  0.73490777753E+02  0.60241817194E+02  0.28927318420E+03  0.26295001309E+03 0.  0.
         25    1    4    4    0    0 -0.42137419511E+01  0.35600471434E+02  0.24604064250E+01  0.13014880287E+03  0.12509000000E+03 0.  0.
         25    1    3    3    0    0  0.74204411975E+02 -0.73490777753E+02  0.97340632921E+02  0.18981542637E+03  0.12509000000E+03 0.  0.
         25    1    4    4    0    0 -0.69990670024E+02  0.37890306319E+02  0.57781410769E+02  0.15912438133E+03  0.12509000000E+03 0.  0.
<mgrwt>
<rscale>  2 0.45243084E+03</rscale>
<asrwt>0</asrwt>
<pdfrwt beam="1">  1       21 0.46814048E-01 0.45243084E+03</pdfrwt>
<pdfrwt beam="2">  1       21 0.23640159E-01 0.45243084E+03</pdfrwt>
<totfact> 0.68145618E+04</totfact>
</mgrwt>
</event>
<event>
 7    0  0.4709932E-002  0.4188299E+03  0.7546771E-02  0.1037448E+00
         21   -1    0    0  502  501  0.00000000000E+00  0.00000000000E+00  0.19948041065E+03  0.19948041065E+03  0.00000000000E+00 0.  1.
         21   -1    0    0  501  502 -0.00000000000E+00 -0.00000000000E+00 -0.21984423886E+03  0.21984423886E+03  0.00000000000E+00 0.  1.
      99926    2    1    2    0    0  0.88817841970E-15  0.00000000000E+00 -0.20363828209E+02  0.41932464952E+03  0.41882988933E+03 0.  0.
      99925    2    3    3    0    0 -0.53128055536E+01 -0.68993174462E+02  0.13851361909E+02  0.27233325059E+03  0.26303090146E+03 0.  0.
         25    1    4    4    0    0  0.20395387229E+02 -0.62909325519E+02  0.26156809868E+02  0.14389316127E+03  0.12509000000E+03 0.  0.
         25    1    3    3    0    0  0.53128055536E+01  0.68993174462E+02 -0.34215190119E+02  0.14699139893E+03  0.12509000000E+03 0.  0.
         25    1    4    4    0    0 -0.25708192783E+02 -0.60838489434E+01 -0.12305447958E+02  0.12844008932E+03  0.12509000000E+03 0.  0.
<mgrwt>
<rscale>  2 0.41882989E+03</rscale>
<asrwt>0</asrwt>
<pdfrwt beam="1">  1       21 0.29335355E-01 0.41882989E+03</pdfrwt>
<pdfrwt beam="2">  1       21 0.32330035E-01 0.41882989E+03</pdfrwt>
<totfact> 0.96131964E+04</totfact>
</mgrwt>
</event>
<event>
 7    0  0.4709932E-002  0.4543668E+03  0.7546771E-02  0.1026428E+00
         21   -1    0    0  502  501  0.00000000000E+00  0.00000000000E+00  0.97252437388E+03  0.97252437388E+03  0.00000000000E+00 0. -1.
         21   -1    0    0  501  502 -0.00000000000E+00 -0.00000000000E+00 -0.53070431753E+02  0.53070431753E+02  0.00000000000E+00 0. -1.
      99926    2    1    2    0    0  0.00000000000E+00  0.00000000000E+00  0.91945394213E+03  0.10255948056E+04  0.45436676116E+03 0.  0.
      99925    2    3    3    0    0 -0.96686514039E+02 -0.50660030864E+02  0.51728961485E+03  0.59051047477E+03  0.26305770177E+03 0.  0.
         25    1    4    4    0    0 -0.59102265893E+02 -0.63861027521E+02  0.25131159063E+03  0.29389850689E+03  0.12509000000E+03 0.  0.
         25    1    4    4    0    0 -0.37584248146E+02  0.13200996657E+02  0.26597802422E+03  0.29661196788E+03  0.12509000000E+03 0.  0.
         25    1    3    3    0    0  0.96686514039E+02  0.50660030864E+02  0.40216432728E+03  0.43508433086E+03  0.12509000000E+03 0.  0.
<mgrwt>
<rscale>  2 0.45436676E+03</rscale>
<asrwt>0</asrwt>
<pdfrwt beam="1">  1       21 0.14301828E+00 0.45436676E+03</pdfrwt>
<pdfrwt beam="2">  1       21 0.78044759E-02 0.45436676E+03</pdfrwt>
<totfact> 0.38375204E+04</totfact>
</mgrwt>
</event>
<event>
 7    0  0.4709932E-002  0.4578490E+03  0.7546771E-02  0.1025407E+00
         21   -1    0    0  502  501  0.00000000000E+00  0.00000000000E+00  0.11678002064E+03  0.11678002064E+03  0.00000000000E+00 0.  1.
         21   -1    0    0  501  502 -0.00000000000E+00 -0.00000000000E+00 -0.44876185349E+03  0.44876185349E+03  0.00000000000E+00 0.  1.
      99926    2    1    2    0    0 -0.17763568394E-14  0.00000000000E+00 -0.33198183285E+03  0.56554187412E+03  0.45784896423E+03 0.  0.
      99925    2    3    3    0    0  0.13843082073E+02  0.70816280629E+02 -0.96506550065E+02  0.28931245240E+03  0.26302396162E+03 0.  0.
         25    1    4    4    0    0  0.79530201646E+01  0.77383506816E+02 -0.49798448799E+02  0.15549550238E+03  0.12509000000E+03 0.  0.
         25    1    3    3    0    0 -0.13843082073E+02 -0.70816280629E+02 -0.23547528279E+03  0.27622942173E+03  0.12509000000E+03 0.  0.
         25    1    4    4    0    0  0.58900619084E+01 -0.65672261869E+01 -0.46708101265E+02  0.13381695002E+03  0.12509000000E+03 0.  0.
<mgrwt>
<rscale>  2 0.45784896E+03</rscale>
<asrwt>0</asrwt>
<pdfrwt beam="1">  1       21 0.17173533E-01 0.45784896E+03</pdfrwt>
<pdfrwt beam="2">  1       21 0.65994390E-01 0.45784896E+03</pdfrwt>
<totfact> 0.59499024E+04</totfact>
</mgrwt>
</event>
<event>
 7    0  0.4709932E-002  0.4470082E+03  0.7546771E-02  0.1028618E+00
         21   -1    0    0  502  501  0.00000000000E+00  0.00000000000E+00  0.33725416168E+03  0.33725416168E+03  0.00000000000E+00 0. -1.
         21   -1    0    0  501  502 -0.00000000000E+00 -0.00000000000E+00 -0.14811996676E+03  0.14811996676E+03  0.00000000000E+00 0. -1.
      99926    2    1    2    0    0  0.00000000000E+00  0.00000000000E+00  0.18913419492E+03  0.48537412844E+03  0.44700816645E+03 0.  0.
      99925    2    3    3    0    0  0.48513891034E+02 -0.91437262350E+02  0.97378057236E+02  0.29887729878E+03  0.26292733431E+03 0.  0.
         25    1    3    3    0    0 -0.48513891034E+02  0.91437262350E+02  0.91756137686E+02  0.18649682966E+03  0.12509000000E+03 0.  0.
         25    1    4    4    0    0  0.24321991596E+02 -0.32039116692E+02  0.66477974808E+01  0.13156658233E+03  0.12509000000E+03 0.  0.
         25    1    4    4    0    0  0.24191899438E+02 -0.59398145657E+02  0.90730259756E+02  0.16731071646E+03  0.12509000000E+03 0.  0.
<mgrwt>
<rscale>  2 0.44700817E+03</rscale>
<asrwt>0</asrwt>
<pdfrwt beam="1">  1       21 0.49596200E-01 0.44700817E+03</pdfrwt>
<pdfrwt beam="2">  1       21 0.21782348E-01 0.44700817E+03</pdfrwt>
<totfact> 0.70690519E+04</totfact>
</mgrwt>
</event>
<event>
 7    0  0.4709932E-002  0.4569599E+03  0.7546771E-02  0.1025667E+00
         21   -1    0    0  502  501  0.00000000000E+00  0.00000000000E+00  0.25767793050E+03  0.25767793050E+03  0.00000000000E+00 0.  1.
         21   -1    0    0  501  502 -0.00000000000E+00 -0.00000000000E+00 -0.20259041180E+03  0.20259041180E+03  0.00000000000E+00 0.  1.
      99926    2    1    2    0    0  0.00000000000E+00  0.00000000000E+00  0.55087518701E+02  0.46026834230E+03  0.45695985842E+03 0.  0.
      99925    2    3    3    0    0  0.85035808292E+02  0.67123677166E+02 -0.42508921448E+01  0.28446950319E+03  0.26299838675E+03 0.  0.
         25    1    4    4    0    0  0.49030335092E+02  0.75289683685E+02 -0.22114145473E+01  0.15402892158E+03  0.12509000000E+03 0.  0.
         25    1    4    4    0    0  0.36005473200E+02 -0.81660065196E+01 -0.20394775975E+01  0.13044058161E+03  0.12509000000E+03 0.  0.
         25    1    3    3    0    0 -0.85035808292E+02 -0.67123677166E+02  0.59338410846E+02  0.17579883910E+03  0.12509000000E+03 0.  0.
<mgrwt>
<rscale>  2 0.45695986E+03</rscale>
<asrwt>0</asrwt>
<pdfrwt beam="1">  1       21 0.37893813E-01 0.45695986E+03</pdfrwt>
<pdfrwt beam="2">  1       21 0.29792708E-01 0.45695986E+03</pdfrwt>
<totfact> 0.67105967E+04</totfact>
</mgrwt>
</event>
<event>
 7    0  0.4709932E-002  0.4606938E+03  0.7546771E-02  0.1024580E+00
         21   -1    0    0  502  501  0.00000000000E+00  0.00000000000E+00  0.33792869950E+03  0.33792869950E+03  0.00000000000E+00 0. -1.
         21   -1    0    0  501  502 -0.00000000000E+00 -0.00000000000E+00 -0.15701446018E+03  0.15701446018E+03  0.00000000000E+00 0. -1.
      99926    2    1    2    0    0  0.00000000000E+00 -0.14210854715E-13  0.18091423932E+03  0.49494315967E+03  0.46069379127E+03 0.  0.
      99925    2    3    3    0    0 -0.86555524276E+01  0.75364276154E+02  0.14934778614E+02  0.27369356717E+03  0.26254605003E+03 0.  0.
         25    1    4    4    0    0 -0.14040635935E+02  0.27185925127E+02  0.44627815075E+02  0.13629146694E+03  0.12509000000E+03 0.  0.
         25    1    3    3    0    0  0.86555524276E+01 -0.75364276154E+02  0.16597946071E+03  0.22124959251E+03  0.12509000000E+03 0.  0.
         25    1    4    4    0    0  0.53850835073E+01  0.48178351027E+02 -0.29693036460E+02  0.13740210023E+03  0.12509000000E+03 0.  0.
<mgrwt>
<rscale>  2 0.46069379E+03</rscale>
<asrwt>0</asrwt>
<pdfrwt beam="1">  1       21 0.49695397E-01 0.46069379E+03</pdfrwt>
<pdfrwt beam="2">  1       21 0.23090362E-01 0.46069379E+03</pdfrwt>
<totfact> 0.62743027E+04</totfact>
</mgrwt>
</event>
<event>
 7    0  0.4709932E-002  0.4554104E+03  0.7546771E-02  0.1026121E+00
         21   -1    0    0  502  501  0.00000000000E+00  0.00000000000E+00  0.49878814924E+03  0.49878814924E+03  0.00000000000E+00 0. -1.
         21   -1    0    0  501  502 -0.00000000000E+00 -0.00000000000E+00 -0.10395127180E+03  0.10395127180E+03  0.00000000000E+00 0. -1.
      99926    2    1    2    0    0  0.00000000000E+00  0.00000000000E+00  0.39483687745E+03  0.60273942104E+03  0.45541041916E+03 0.  0.
      99925    2    3    3    0    0  0.10858132890E+03 -0.30089659891E+02  0.23160089161E+03  0.36824253878E+03  0.26318871890E+03 0.  0.
         25    1    4    4    0    0  0.36095177031E+02 -0.35767203999E+02  0.15123400699E+03  0.20273477170E+03  0.12509000000E+03 0.  0.
         25    1    4    4    0    0  0.72486151865E+02  0.56775441073E+01  0.80366884621E+02  0.16550776708E+03  0.12509000000E+03 0.  0.
         25    1    3    3    0    0 -0.10858132890E+03  0.30089659891E+02  0.16323598584E+03  0.23449688226E+03  0.12509000000E+03 0.  0.
<mgrwt>
<rscale>  2 0.45541042E+03</rscale>
<asrwt>0</asrwt>
<pdfrwt beam="1">  1       21 0.73351197E-01 0.45541042E+03</pdfrwt>
<pdfrwt beam="2">  1       21 0.15286952E-01 0.45541042E+03</pdfrwt>
<totfact> 0.58320627E+04</totfact>
</mgrwt>
</event>
<event>
 7    0  0.4709932E-002  0.4527318E+03  0.7546771E-02  0.1026911E+00
         21   -1    0    0  502  501  0.00000000000E+00  0.00000000000E+00  0.41740360017E+03  0.41740360017E+03  0.00000000000E+00 0.  1.
         21   -1    0    0  501  502 -0.00000000000E+00 -0.00000000000E+00 -0.12276250527E+03  0.12276250527E+03  0.00000000000E+00 0.  1.
      99926    2    1    2    0    0 -0.71054273576E-14  0.00000000000E+00  0.29464109491E+03  0.54016610544E+03  0.45273176017E+03 0.  0.
      99925    2    3    3    0    0  0.56856033001E+02 -0.99255431786E+01  0.72756740148E+02  0.27899317445E+03  0.26308273082E+03 0.  0.
         25    1    4    4    0    0 -0.72188710657E+00  0.19080946164E+02  0.17225775404E+02  0.12770606511E+03  0.12509000000E+03 0.  0.
         25    1    3    3    0    0 -0.56856033001E+02  0.99255431786E+01  0.22188435476E+03  0.26117293099E+03  0.12509000000E+03 0.  0.
         25    1    4    4    0    0  0.57577920107E+02 -0.29006489342E+02  0.55530964744E+02  0.15128710934E+03  0.12509000000E+03 0.  0.
<mgrwt>
<rscale>  2 0.45273176E+03</rscale>
<asrwt>0</asrwt>
<pdfrwt beam="1">  1       21 0.61382882E-01 0.45273176E+03</pdfrwt>
<pdfrwt beam="2">  1       21 0.18053310E-01 0.45273176E+03</pdfrwt>
<totfact> 0.63656045E+04</totfact>
</mgrwt>
</event>
<event>
 7    0  0.4709932E-002  0.4532063E+03  0.7546771E-02  0.1026770E+00
         21   -1    0    0  502  501  0.00000000000E+00  0.00000000000E+00  0.14387561767E+04  0.14387561767E+04  0.00000000000E+00 0. -1.
         21   -1    0    0  501  502 -0.00000000000E+00 -0.00000000000E+00 -0.35689852389E+02  0.35689852389E+02  0.00000000000E+00 0. -1.
      99926    2    1    2    0    0  0.17763568394E-14  0.00000000000E+00  0.14030663243E+04  0.14744460291E+04  0.45320633522E+03 0.  0.
      99925    2    3    3    0    0  0.11737663715E+02 -0.10262926005E+03  0.74797489792E+03  0.79956617104E+03  0.26300014484E+03 0.  0.
         25    1    3    3    0    0 -0.11737663715E+02  0.10262926005E+03  0.65509142640E+03  0.67487985806E+03  0.12509000000E+03 0.  0.
         25    1    4    4    0    0 -0.25502374183E+02 -0.60377540226E+02  0.31096018321E+03  0.34152534620E+03  0.12509000000E+03 0.  0.
         25    1    4    4    0    0  0.37240037898E+02 -0.42251719825E+02  0.43701471471E+03  0.45804082484E+03  0.12509000000E+03 0.  0.
<mgrwt>
<rscale>  2 0.45320634E+03</rscale>
<asrwt>0</asrwt>
<pdfrwt beam="1">  1       21 0.21158175E+00 0.45320634E+03</pdfrwt>
<pdfrwt beam="2">  1       21 0.52485087E-02 0.45320634E+03</pdfrwt>
<totfact> 0.24755547E+04</totfact>
</mgrwt>
</event>
<event>
 7    0  0.4709932E-002  0.4553123E+03  0.7546771E-02  0.1026150E+00
         21   -1    0    0  502  501  0.00000000000E+00  0.00000000000E+00  0.35013807639E+03  0.35013807639E+03  0.00000000000E+00 0. -1.
         21   -1    0    0  501  502 -0.00000000000E+00 -0.00000000000E+00 -0.14801964665E+03  0.14801964665E+03  0.00000000000E+00 0. -1.
      99926    2    1    2    0    0 -0.14210854715E-13  0.35527136788E-14  0.20211842974E+03  0.49815772304E+03  0.45531226360E+03 0.  0.
      99925    2    3    3    0    0  0.11014733904E+03 -0.23291255708E+02  0.10940507474E+03  0.30601664678E+03  0.26268193474E+03 0.  0.
         25    1    4    4    0    0  0.91888455285E+02 -0.16796217232E+02  0.82614647403E+02  0.17663037449E+03  0.12509000000E+03 0.  0.
         25    1    3    3    0    0 -0.11014733904E+03  0.23291255708E+02  0.92713355003E+02  0.19214107626E+03  0.12509000000E+03 0.  0.
         25    1    4    4    0    0  0.18258883752E+02 -0.64950384767E+01  0.26790427333E+02  0.12938627229E+03  0.12509000000E+03 0.  0.
<mgrwt>
<rscale>  2 0.45531226E+03</rscale>
<asrwt>0</asrwt>
<pdfrwt beam="1">  1       21 0.51490894E-01 0.45531226E+03</pdfrwt>
<pdfrwt beam="2">  1       21 0.21767595E-01 0.45531226E+03</pdfrwt>
<totfact> 0.65238414E+04</totfact>
</mgrwt>
</event>
<event>
 7    0  0.4709932E-002  0.4602830E+03  0.7546771E-02  0.1024699E+00
         21   -1    0    0  502  501  0.00000000000E+00  0.00000000000E+00  0.86315206241E+02  0.86315206241E+02  0.00000000000E+00 0. -1.
         21   -1    0    0  501  502 -0.00000000000E+00 -0.00000000000E+00 -0.61362443074E+03  0.61362443074E+03  0.00000000000E+00 0. -1.
      99926    2    1    2    0    0  0.00000000000E+00  0.00000000000E+00 -0.52730922450E+03  0.69993963698E+03  0.46028304029E+03 0.  0.
      99925    2    3    3    0    0  0.98732641991E+02 -0.64167222242E+02 -0.33194373828E+03  0.43978439811E+03  0.26335926875E+03 0.  0.
         25    1    3    3    0    0 -0.98732641991E+02  0.64167222242E+02 -0.19536548623E+03  0.26015523887E+03  0.12509000000E+03 0.  0.
         25    1    4    4    0    0  0.78884383363E+02 -0.65640231514E+02 -0.18892511191E+03  0.24874000873E+03  0.12509000000E+03 0.  0.
         25    1    4    4    0    0  0.19848258628E+02  0.14730092714E+01 -0.14301862637E+03  0.19104438938E+03  0.12509000000E+03 0.  0.
<mgrwt>
<rscale>  2 0.46028304E+03</rscale>
<asrwt>0</asrwt>
<pdfrwt beam="1">  1       21 0.12693412E-01 0.46028304E+03</pdfrwt>
<pdfrwt beam="2">  1       21 0.90238890E-01 0.46028304E+03</pdfrwt>
<totfact> 0.50762512E+04</totfact>
</mgrwt>
</event>
<event>
 7    0  0.4709932E-002  0.4586911E+03  0.7546771E-02  0.1025162E+00
         21   -1    0    0  502  501  0.00000000000E+00  0.00000000000E+00  0.97714317761E+03  0.97714317761E+03  0.00000000000E+00 0. -1.
         21   -1    0    0  501  502 -0.00000000000E+00 -0.00000000000E+00 -0.53829764874E+02  0.53829764874E+02  0.00000000000E+00 0. -1.
      99926    2    1    2    0    0  0.00000000000E+00  0.00000000000E+00  0.92331341274E+03  0.10309729425E+04  0.45869112701E+03 0.  0.
      99925    2    3    3    0    0 -0.10745013455E+03  0.41044718692E+02  0.53743457730E+03  0.60933306760E+03  0.26309819850E+03 0.  0.
         25    1    4    4    0    0 -0.32373614232E+02  0.53774339780E+02  0.28456428503E+03  0.31711838631E+03  0.12509000000E+03 0.  0.
         25    1    4    4    0    0 -0.75076520321E+02 -0.12729621088E+02  0.25287029226E+03  0.29221468130E+03  0.12509000000E+03 0.  0.
         25    1    3    3    0    0  0.10745013455E+03 -0.41044718692E+02  0.38587883544E+03  0.42163987488E+03  0.12509000000E+03 0.  0.
<mgrwt>
<rscale>  2 0.45869113E+03</rscale>
<asrwt>0</asrwt>
<pdfrwt beam="1">  1       21 0.14369752E+00 0.45869113E+03</pdfrwt>
<pdfrwt beam="2">  1       21 0.79161425E-02 0.45869113E+03</pdfrwt>
<totfact> 0.36908316E+04</totfact>
</mgrwt>
</event>
<event>
 7    0  0.4709932E-002  0.4489908E+03  0.7546771E-02  0.1028023E+00
         21   -1    0    0  502  501  0.00000000000E+00  0.00000000000E+00  0.75367499322E+03  0.75367499322E+03  0.00000000000E+00 0. -1.
         21   -1    0    0  501  502 -0.00000000000E+00 -0.00000000000E+00 -0.66869909966E+02  0.66869909966E+02  0.00000000000E+00 0. -1.
      99926    2    1    2    0    0  0.00000000000E+00 -0.71054273576E-14  0.68680508326E+03  0.82054490319E+03  0.44899077470E+03 0.  0.
      99925    2    3    3    0    0  0.88186294398E+02  0.59764733223E+02  0.41038747964E+03  0.49898177479E+03  0.26308987489E+03 0.  0.
         25    1    3    3    0    0 -0.88186294398E+02 -0.59764733223E+02  0.27641760361E+03  0.32156312840E+03  0.12509000000E+03 0.  0.
         25    1    4    4    0    0  0.80436879722E+02  0.21910195993E+02  0.25265801235E+03  0.29399613537E+03  0.12509000000E+03 0.  0.
         25    1    4    4    0    0  0.77494146752E+01  0.37854537230E+02  0.15772946730E+03  0.20498563942E+03  0.12509000000E+03 0.  0.
<mgrwt>
<rscale>  2 0.44899077E+03</rscale>
<asrwt>0</asrwt>
<pdfrwt beam="1">  1       21 0.11083455E+00 0.44899077E+03</pdfrwt>
<pdfrwt beam="2">  1       21 0.98338107E-02 0.44899077E+03</pdfrwt>
<totfact> 0.49059775E+04</totfact>
</mgrwt>
</event>
<event>
 7    0  0.4709932E-002  0.4695701E+03  0.7546771E-02  0.1022042E+00
         21   -1    0    0  502  501  0.00000000000E+00  0.00000000000E+00  0.21842320279E+03  0.21842320279E+03  0.00000000000E+00 0.  1.
         21   -1    0    0  501  502 -0.00000000000E+00 -0.00000000000E+00 -0.25237254444E+03  0.25237254444E+03  0.00000000000E+00 0.  1.
      99926    2    1    2    0    0  0.44408920985E-14  0.00000000000E+00 -0.33949341646E+02  0.47079574723E+03  0.46957009893E+03 0.  0.
      99925    2    3    3    0    0  0.45643554865E+01 -0.10983929518E+03  0.41318158619E+02  0.28804397897E+03  0.26301452333E+03 0.  0.
         25    1    4    4    0    0  0.33991660896E+02 -0.42662653539E+02 -0.27417757339E+01  0.13649381104E+03  0.12509000000E+03 0.  0.
         25    1    3    3    0    0 -0.45643554865E+01  0.10983929518E+03 -0.75267500265E+02  0.18275176826E+03  0.12509000000E+03 0.  0.
         25    1    4    4    0    0 -0.29427305410E+02 -0.67176641639E+02  0.44059934353E+02  0.15155016793E+03  0.12509000000E+03 0.  0.
<mgrwt>
<rscale>  2 0.46957010E+03</rscale>
<asrwt>0</asrwt>
<pdfrwt beam="1">  1       21 0.32121060E-01 0.46957010E+03</pdfrwt>
<pdfrwt beam="2">  1       21 0.37113609E-01 0.46957010E+03</pdfrwt>
<totfact> 0.60106492E+04</totfact>
</mgrwt>
</event>
<event>
 7    0  0.4709932E-002  0.4519160E+03  0.7546771E-02  0.1027152E+00
         21   -1    0    0  502  501  0.00000000000E+00  0.00000000000E+00  0.82181727864E+02  0.82181727864E+02  0.00000000000E+00 0. -1.
         21   -1    0    0  501  502 -0.00000000000E+00 -0.00000000000E+00 -0.62126971396E+03  0.62126971396E+03  0.00000000000E+00 0. -1.
      99926    2    1    2    0    0  0.00000000000E+00  0.00000000000E+00 -0.53908798610E+03  0.70345144183E+03  0.45191600353E+03 0.  0.
      99925    2    3    3    0    0  0.42850005064E+02 -0.77078210373E+02 -0.44285485081E+03  0.52266013154E+03  0.26320338289E+03 0.  0.
         25    1    4    4    0    0 -0.21056927959E+01 -0.16781243385E+02 -0.15484343332E+03  0.19977497595E+03  0.12509000000E+03 0.  0.
         25    1    3    3    0    0 -0.42850005064E+02  0.77078210373E+02 -0.96233135292E+02  0.18079131029E+03  0.12509000000E+03 0.  0.
         25    1    4    4    0    0  0.44955697860E+02 -0.60296966988E+02 -0.28801141749E+03  0.32288515559E+03  0.12509000000E+03 0.  0.
<mgrwt>
<rscale>  2 0.45191600E+03</rscale>
<asrwt>0</asrwt>
<pdfrwt beam="1">  1       21 0.12085548E-01 0.45191600E+03</pdfrwt>
<pdfrwt beam="2">  1       21 0.91363193E-01 0.45191600E+03</pdfrwt>
<totfact> 0.54014907E+04</totfact>
</mgrwt>
</event>
<event>
 7    0  0.4709932E-002  0.4554241E+03  0.7546771E-02  0.1026117E+00
         21   -1    0    0  502  501  0.00000000000E+00  0.00000000000E+00  0.15913200121E+03  0.15913200121E+03  0.00000000000E+00 0.  1.
         21   -1    0    0  501  502 -0.00000000000E+00 -0.00000000000E+00 -0.32584751850E+03  0.32584751850E+03  0.00000000000E+00 0.  1.
      99926    2    1    2    0    0  0.00000000000E+00  0.88817841970E-15 -0.16671551729E+03  0.48497951971E+03  0.45542405606E+03 0.  0.
      99925    2    3    3    0    0  0.10358822432E+03 -0.79856712323E+01 -0.15380799934E+03  0.32185869553E+03  0.26294833726E+03 0.  0.
         25    1    4    4    0    0  0.93070564125E+02 -0.11105278000E+02 -0.97629699148E+02  0.18429466450E+03  0.12509000000E+03 0.  0.
         25    1    4    4    0    0  0.10517660190E+02  0.31196067681E+01 -0.56178300192E+02  0.13756403104E+03  0.12509000000E+03 0.  0.
         25    1    3    3    0    0 -0.10358822432E+03  0.79856712323E+01 -0.12907517953E+02  0.16312082418E+03  0.12509000000E+03 0.  0.
<mgrwt>
<rscale>  2 0.45542406E+03</rscale>
<asrwt>0</asrwt>
<pdfrwt beam="1">  1       21 0.23401765E-01 0.45542406E+03</pdfrwt>
<pdfrwt beam="2">  1       21 0.47918753E-01 0.45542406E+03</pdfrwt>
<totfact> 0.66116531E+04</totfact>
</mgrwt>
</event>
<event>
 7    0  0.4709932E-002  0.4689768E+03  0.7546771E-02  0.1022209E+00
         21   -1    0    0  502  501  0.00000000000E+00  0.00000000000E+00  0.12252721423E+03  0.12252721423E+03  0.00000000000E+00 0. -1.
         21   -1    0    0  501  502 -0.00000000000E+00 -0.00000000000E+00 -0.44875580031E+03  0.44875580031E+03  0.00000000000E+00 0. -1.
      99926    2    1    2    0    0  0.00000000000E+00 -0.71054273576E-14 -0.32622858608E+03  0.57128301455E+03  0.46897675032E+03 0.  0.
      99925    2    3    3    0    0  0.25235983365E+02 -0.53272878521E+02 -0.33820992594E+03  0.43248130330E+03  0.26301952257E+03 0.  0.
         25    1    3    3    0    0 -0.25235983365E+02  0.53272878521E+02  0.11981339863E+02  0.13880171125E+03  0.12509000000E+03 0.  0.
         25    1    4    4    0    0 -0.82058665786E+01 -0.33260097532E+01 -0.11802601448E+03  0.17220931096E+03  0.12509000000E+03 0.  0.
         25    1    4    4    0    0  0.33441849943E+02 -0.49946868768E+02 -0.22018391146E+03  0.26027199233E+03  0.12509000000E+03 0.  0.
<mgrwt>
<rscale>  2 0.46897675E+03</rscale>
<asrwt>0</asrwt>
<pdfrwt beam="1">  1       21 0.18018708E-01 0.46897675E+03</pdfrwt>
<pdfrwt beam="2">  1       21 0.65993500E-01 0.46897675E+03</pdfrwt>
<totfact> 0.54234087E+04</totfact>
</mgrwt>
</event>
<event>
 7    0  0.4709932E-002  0.4546831E+03  0.7546771E-02  0.1026335E+00
         21   -1    0    0  502  501  0.00000000000E+00  0.00000000000E+00  0.95795777131E+02  0.95795777131E+02  0.00000000000E+00 0.  1.
         21   -1    0    0  501  502 -0.00000000000E+00 -0.00000000000E+00 -0.53952454862E+03  0.53952454862E+03  0.00000000000E+00 0.  1.
      99926    2    1    2    0    0  0.00000000000E+00  0.00000000000E+00 -0.44372877149E+03  0.63532032576E+03  0.45468306947E+03 0.  0.
      99925    2    3    3    0    0  0.10065769743E+03  0.48450651093E+02 -0.25262382255E+03  0.38106052309E+03  0.26250502641E+03 0.  0.
         25    1    3    3    0    0 -0.10065769743E+03 -0.48450651093E+02 -0.19110494894E+03  0.25425980267E+03  0.12509000000E+03 0.  0.
         25    1    4    4    0    0  0.47336703465E+02  0.12546296144E-02 -0.16419798558E+03  0.21177641527E+03  0.12509000000E+03 0.  0.
         25    1    4    4    0    0  0.53320993963E+02  0.48449396463E+02 -0.88425836973E+02  0.16928410782E+03  0.12509000000E+03 0.  0.
<mgrwt>
<rscale>  2 0.45468307E+03</rscale>
<asrwt>0</asrwt>
<pdfrwt beam="1">  1       21 0.14087614E-01 0.45468307E+03</pdfrwt>
<pdfrwt beam="2">  1       21 0.79341846E-01 0.45468307E+03</pdfrwt>
<totfact> 0.56696900E+04</totfact>
</mgrwt>
</event>
<event>
 7    0  0.4709932E-002  0.4247084E+03  0.7546771E-02  0.1035545E+00
         21   -1    0    0  502  501  0.00000000000E+00  0.00000000000E+00  0.39805346160E+03  0.39805346160E+03  0.00000000000E+00 0. -1.
         21   -1    0    0  501  502 -0.00000000000E+00 -0.00000000000E+00 -0.11328707582E+03  0.11328707582E+03  0.00000000000E+00 0. -1.
      99926    2    1    2    0    0  0.00000000000E+00  0.00000000000E+00  0.28476638578E+03  0.51134053742E+03  0.42470843026E+03 0.  0.
      99925    2    3    3    0    0 -0.58706758189E+02  0.39347494669E+02  0.23375380319E+03  0.35887906531E+03  0.26298029246E+03 0.  0.
         25    1    4    4    0    0 -0.64039850586E+02  0.25773970373E+00  0.13295570246E+03  0.19345773650E+03  0.12509000000E+03 0.  0.
         25    1    3    3    0    0  0.58706758189E+02 -0.39347494669E+02  0.51012582589E+02  0.15246147210E+03  0.12509000000E+03 0.  0.
         25    1    4    4    0    0  0.53330923971E+01  0.39089754966E+02  0.10079810073E+03  0.16542132882E+03  0.12509000000E+03 0.  0.
<mgrwt>
<rscale>  2 0.42470843E+03</rscale>
<asrwt>0</asrwt>
<pdfrwt beam="1">  1       21 0.58537273E-01 0.42470843E+03</pdfrwt>
<pdfrwt beam="2">  1       21 0.16659864E-01 0.42470843E+03</pdfrwt>
<totfact> 0.82598178E+04</totfact>
</mgrwt>
</event>
<event>
 7    0  0.4709932E-002  0.4533836E+03  0.7546771E-02  0.1026718E+00
         21   -1    0    0  502  501  0.00000000000E+00  0.00000000000E+00  0.11203128007E+03  0.11203128007E+03  0.00000000000E+00 0. -1.
         21   -1    0    0  501  502 -0.00000000000E+00 -0.00000000000E+00 -0.45870381481E+03  0.45870381481E+03  0.00000000000E+00 0. -1.
      99926    2    1    2    0    0  0.00000000000E+00 -0.35527136788E-14 -0.34667253474E+03  0.57073509488E+03  0.45338361481E+03 0.  0.
      99925    2    3    3    0    0  0.81412926543E+02 -0.21969229919E+02 -0.12641424514E+03  0.30376705576E+03  0.26302690189E+03 0.  0.
         25    1    4    4    0    0  0.52876909527E+02  0.26691874437E+02 -0.73374612298E+02  0.15665173332E+03  0.12509000000E+03 0.  0.
         25    1    4    4    0    0  0.28536017015E+02 -0.48661104356E+02 -0.53039632841E+02  0.14711532244E+03  0.12509000000E+03 0.  0.
         25    1    3    3    0    0 -0.81412926543E+02  0.21969229919E+02 -0.22025828960E+03  0.26696803912E+03  0.12509000000E+03 0.  0.
<mgrwt>
<rscale>  2 0.45338361E+03</rscale>
<asrwt>0</asrwt>
<pdfrwt beam="1">  1       21 0.16475188E-01 0.45338361E+03</pdfrwt>
<pdfrwt beam="2">  1       21 0.67456443E-01 0.45338361E+03</pdfrwt>
<totfact> 0.61296486E+04</totfact>
</mgrwt>
</event>
<event>
 7    0  0.4709932E-002  0.4522599E+03  0.7546771E-02  0.1027050E+00
         21   -1    0    0  502  501  0.00000000000E+00  0.00000000000E+00  0.15369874691E+03  0.15369874691E+03  0.00000000000E+00 0.  1.
         21   -1    0    0  501  502 -0.00000000000E+00 -0.00000000000E+00 -0.33269466129E+03  0.33269466129E+03  0.00000000000E+00 0.  1.
      99926    2    1    2    0    0  0.00000000000E+00  0.00000000000E+00 -0.17899591438E+03  0.48639340820E+03  0.45225989229E+03 0.  0.
      99925    2    3    3    0    0 -0.85931083376E+02  0.65258444000E+02 -0.13859563664E+03  0.31632722654E+03  0.26308049748E+03 0.  0.
         25    1    4    4    0    0 -0.62101942711E+02  0.22587580903E+02 -0.32450160095E+02  0.14514603367E+03  0.12509000000E+03 0.  0.
         25    1    4    4    0    0 -0.23829140666E+02  0.42670863096E+02 -0.10614547655E+03  0.17118119287E+03  0.12509000000E+03 0.  0.
         25    1    3    3    0    0  0.85931083376E+02 -0.65258444000E+02 -0.40400277743E+02  0.17006618166E+03  0.12509000000E+03 0.  0.
<mgrwt>
<rscale>  2 0.45225989E+03</rscale>
<asrwt>0</asrwt>
<pdfrwt beam="1">  1       21 0.22602757E-01 0.45225989E+03</pdfrwt>
<pdfrwt beam="2">  1       21 0.48925685E-01 0.45225989E+03</pdfrwt>
<totfact> 0.67698247E+04</totfact>
</mgrwt>
</event>
<event>
 7    0  0.6101453E-002  0.4159817E+03  0.7546771E-02  0.1038382E+00
         21   -1    0    0  502  501  0.00000000000E+00  0.00000000000E+00  0.24268426698E+03  0.24268426698E+03  0.00000000000E+00 0. -1.
         21   -1    0    0  501  502 -0.00000000000E+00 -0.00000000000E+00 -0.17825711365E+03  0.17825711365E+03  0.00000000000E+00 0. -1.
      99926    2    1    2    0    0  0.00000000000E+00  0.00000000000E+00  0.64427153328E+02  0.42094138063E+03  0.41598171575E+03 0.  0.
      99925    2    3    3    0    0  0.62868247420E+02 -0.27467250308E+02  0.25846113982E+02  0.27314804157E+03  0.26312537816E+03 0.  0.
         25    1    3    3    0    0 -0.62868247420E+02  0.27467250308E+02  0.38581039345E+02  0.14779333906E+03  0.12509000000E+03 0.  0.
         25    1    4    4    0    0  0.44586009205E+02 -0.39048095701E+02 -0.16322598772E+02  0.13937934325E+03  0.12509000000E+03 0.  0.
         25    1    4    4    0    0  0.18282238216E+02  0.11580845393E+02  0.42168712755E+02  0.13376869832E+03  0.12509000000E+03 0.  0.
<mgrwt>
<rscale>  2 0.41598172E+03</rscale>
<asrwt>0</asrwt>
<pdfrwt beam="1">  1       21 0.35688863E-01 0.41598172E+03</pdfrwt>
<pdfrwt beam="2">  1       21 0.26214281E-01 0.41598172E+03</pdfrwt>
<totfact> 0.98339585E+04</totfact>
</mgrwt>
</event>
<event>
 7    0  0.4709932E-002  0.4452895E+03  0.7546771E-02  0.1029136E+00
         21   -1    0    0  502  501  0.00000000000E+00  0.00000000000E+00  0.12942354505E+03  0.12942354505E+03  0.00000000000E+00 0.  1.
         21   -1    0    0  501  502 -0.00000000000E+00 -0.00000000000E+00 -0.38301134665E+03  0.38301134665E+03  0.00000000000E+00 0.  1.
      99926    2    1    2    0    0  0.00000000000E+00  0.00000000000E+00 -0.25358780161E+03  0.51243489170E+03  0.44528950707E+03 0.  0.
      99925    2    3    3    0    0  0.91204128768E+02  0.46647736263E+02 -0.14204235443E+03  0.31600653507E+03  0.26303972200E+03 0.  0.
         25    1    4    4    0    0  0.44743461004E+02  0.27133163893E+02 -0.25934845444E+02  0.13805183879E+03  0.12509000000E+03 0.  0.
         25    1    4    4    0    0  0.46460667764E+02  0.19514572369E+02 -0.11610750898E+03  0.17795469627E+03  0.12509000000E+03 0.  0.
         25    1    3    3    0    0 -0.91204128768E+02 -0.46647736263E+02 -0.11154544718E+03  0.19642835663E+03  0.12509000000E+03 0.  0.
<mgrwt>
<rscale>  2 0.44528951E+03</rscale>
<asrwt>0</asrwt>
<pdfrwt beam="1">  1       21 0.19032874E-01 0.44528951E+03</pdfrwt>
<pdfrwt beam="2">  1       21 0.56325200E-01 0.44528951E+03</pdfrwt>
<totfact> 0.69616598E+04</totfact>
</mgrwt>
</event>
<event>
 7    0  0.4709932E-002  0.4365518E+03  0.7546771E-02  0.1031810E+00
         21   -1    0    0  502  501  0.00000000000E+00  0.00000000000E+00  0.81828267539E+03  0.81828267539E+03  0.00000000000E+00 0.  1.
         21   -1    0    0  501  502 -0.00000000000E+00 -0.00000000000E+00 -0.58224841372E+02  0.58224841372E+02  0.00000000000E+00 0.  1.
      99926    2    1    2    0    0  0.35527136788E-14  0.14210854715E-13  0.76005783402E+03  0.87650751677E+03  0.43655184788E+03 0.  0.
      99925    2    3    3    0    0 -0.23118695418E+02 -0.89120687448E+02  0.53002880724E+03  0.59895061761E+03  0.26331413714E+03 0.  0.
         25    1    4    4    0    0  0.14335785834E+02 -0.37822468014E+02  0.32435795648E+03  0.34998806533E+03  0.12509000000E+03 0.  0.
         25    1    4    4    0    0 -0.37454481251E+02 -0.51298219435E+02  0.20567085076E+03  0.24896255228E+03  0.12509000000E+03 0.  0.
         25    1    3    3    0    0  0.23118695418E+02  0.89120687448E+02  0.23002902678E+03  0.27755689916E+03  0.12509000000E+03 0.  0.
<mgrwt>
<rscale>  2 0.43655185E+03</rscale>
<asrwt>0</asrwt>
<pdfrwt beam="1">  1       21 0.12033568E+00 0.43655185E+03</pdfrwt>
<pdfrwt beam="2">  1       21 0.85624772E-02 0.43655185E+03</pdfrwt>
<totfact> 0.51281069E+04</totfact>
</mgrwt>
</event>
<event>
 7    0  0.4709932E-002  0.4543130E+03  0.7546771E-02  0.1026444E+00
         21   -1    0    0  502  501  0.00000000000E+00  0.00000000000E+00  0.10275625385E+04  0.10275625385E+04  0.00000000000E+00 0. -1.
         21   -1    0    0  501  502 -0.00000000000E+00 -0.00000000000E+00 -0.50215996485E+02  0.50215996485E+02  0.00000000000E+00 0. -1.
      99926    2    1    2    0    0  0.00000000000E+00  0.00000000000E+00  0.97734654203E+03  0.10777785350E+04  0.45431300585E+03 0.  0.
      99925    2    3    3    0    0 -0.17391033547E+02 -0.56246927148E+02  0.84278913043E+03  0.88485531199E+03  0.26307649062E+03 0.  0.
         25    1    4    4    0    0  0.23285218884E+02 -0.50238435176E+02  0.38924102368E+03  0.41257991275E+03  0.12509000000E+03 0.  0.
         25    1    3    3    0    0  0.17391033547E+02  0.56246927148E+02  0.13455741159E+03  0.19292322301E+03  0.12509000000E+03 0.  0.
         25    1    4    4    0    0 -0.40676252431E+02 -0.60084919719E+01  0.45354810675E+03  0.47227539924E+03  0.12509000000E+03 0.  0.
<mgrwt>
<rscale>  2 0.45431301E+03</rscale>
<asrwt>0</asrwt>
<pdfrwt beam="1">  1       21 0.15111212E+00 0.45431301E+03</pdfrwt>
<pdfrwt beam="2">  1       21 0.73847060E-02 0.45431301E+03</pdfrwt>
<totfact> 0.36469438E+04</totfact>
</mgrwt>
</event>
<event>
 7    0  0.4709932E-002  0.4188687E+03  0.7546771E-02  0.1037435E+00
         21   -1    0    0  502  501  0.00000000000E+00  0.00000000000E+00  0.16877676867E+03  0.16877676867E+03  0.00000000000E+00 0. -1.
         21   -1    0    0  501  502 -0.00000000000E+00 -0.00000000000E+00 -0.25988615323E+03  0.25988615323E+03  0.00000000000E+00 0. -1.
      99926    2    1    2    0    0  0.00000000000E+00 -0.88817841970E-15 -0.91109384564E+02  0.42866292190E+03  0.41886869143E+03 0.  0.
      99925    2    3    3    0    0 -0.26585256947E+02 -0.53719279929E+01  0.11521540620E+02  0.26460120059E+03  0.26295515959E+03 0.  0.
         25    1    3    3    0    0  0.26585256947E+02  0.53719279929E+01 -0.10263092518E+03  0.16406172132E+03  0.12509000000E+03 0.  0.
         25    1    4    4    0    0  0.59276654531E+01 -0.12987122950E+02 -0.28497662115E+02  0.12908689874E+03  0.12509000000E+03 0.  0.
         25    1    4    4    0    0 -0.32512922400E+02  0.76151949570E+01  0.40019202735E+02  0.13551430185E+03  0.12509000000E+03 0.  0.
<mgrwt>
<rscale>  2 0.41886869E+03</rscale>
<asrwt>0</asrwt>
<pdfrwt beam="1">  1       21 0.24820113E-01 0.41886869E+03</pdfrwt>
<pdfrwt beam="2">  1       21 0.38218552E-01 0.41886869E+03</pdfrwt>
<totfact> 0.95101090E+04</totfact>
</mgrwt>
</event>
<event>
 7    0  0.4709932E-002  0.4559103E+03  0.7546771E-02  0.1025974E+00
         21   -1    0    0  502  501  0.00000000000E+00  0.00000000000E+00  0.38416380316E+03  0.38416380316E+03  0.00000000000E+00 0.  1.
         21   -1    0    0  501  502 -0.00000000000E+00 -0.00000000000E+00 -0.13526406297E+03  0.13526406297E+03  0.00000000000E+00 0.  1.
      99926    2    1    2    0    0  0.00000000000E+00  0.00000000000E+00  0.24889974019E+03  0.51942786613E+03  0.45591032830E+03 0.  0.
      99925    2    3    3    0    0  0.38866505121E+02  0.98946358938E+02  0.10953162542E+03  0.30408635438E+03  0.26300256042E+03 0.  0.
         25    1    4    4    0    0  0.61915409862E+01  0.34987106395E+02  0.13359875482E+02  0.13072271098E+03  0.12509000000E+03 0.  0.
         25    1    4    4    0    0  0.32674964135E+02  0.63959252543E+02  0.96171749938E+02  0.17336364340E+03  0.12509000000E+03 0.  0.
         25    1    3    3    0    0 -0.38866505121E+02 -0.98946358938E+02  0.13936811477E+03  0.21534151175E+03  0.12509000000E+03 0.  0.
<mgrwt>
<rscale>  2 0.45591033E+03</rscale>
<asrwt>0</asrwt>
<pdfrwt beam="1">  1       21 0.56494677E-01 0.45591033E+03</pdfrwt>
<pdfrwt beam="2">  1       21 0.19891774E-01 0.45591033E+03</pdfrwt>
<totfact> 0.63466633E+04</totfact>
</mgrwt>
</event>
<event>
 7    0  0.4709932E-002  0.4178865E+03  0.7546771E-02  0.1037756E+00
         21   -1    0    0  502  501  0.00000000000E+00  0.00000000000E+00  0.99944443806E+03  0.99944443806E+03  0.00000000000E+00 0. -1.
         21   -1    0    0  501  502 -0.00000000000E+00 -0.00000000000E+00 -0.43681554336E+02  0.43681554336E+02  0.00000000000E+00 0. -1.
      99926    2    1    2    0    0  0.17763568394E-14  0.00000000000E+00  0.95576288372E+03  0.10431259924E+04  0.41788652300E+03 0.  0.
      99925    2    3    3    0    0  0.10872820936E+02 -0.55886023724E+02  0.50856067608E+03  0.57528115860E+03  0.26281739727E+03 0.  0.
         25    1    4    4    0    0  0.42520944706E+02 -0.38976326796E+02  0.28659444590E+03  0.31797966807E+03  0.12509000000E+03 0.  0.
         25    1    3    3    0    0 -0.10872820936E+02  0.55886023724E+02  0.44720220765E+03  0.46784483379E+03  0.12509000000E+03 0.  0.
         25    1    4    4    0    0 -0.31648123770E+02 -0.16909696927E+02  0.22196623018E+03  0.25730149053E+03  0.12509000000E+03 0.  0.
<mgrwt>
<rscale>  2 0.41788652E+03</rscale>
<asrwt>0</asrwt>
<pdfrwt beam="1">  1       21 0.14697711E+00 0.41788652E+03</pdfrwt>
<pdfrwt beam="2">  1       21 0.64237586E-02 0.41788652E+03</pdfrwt>
<totfact> 0.50702246E+04</totfact>
</mgrwt>
</event>
<event>
 7    0  0.4709932E-002  0.4590004E+03  0.7546771E-02  0.1025072E+00
         21   -1    0    0  502  501  0.00000000000E+00  0.00000000000E+00  0.75572377082E+02  0.75572377082E+02  0.00000000000E+00 0.  1.
         21   -1    0    0  501  502 -0.00000000000E+00 -0.00000000000E+00 -0.69695230692E+03  0.69695230692E+03  0.00000000000E+00 0.  1.
      99926    2    1    2    0    0  0.00000000000E+00  0.00000000000E+00 -0.62137992984E+03  0.77252468400E+03  0.45900040326E+03 0.  0.
      99925    2    3    3    0    0  0.73697171664E+02 -0.84017366517E+02 -0.44712836318E+03  0.53065424850E+03  0.26302084956E+03 0.  0.
         25    1    4    4    0    0  0.52884271621E+01 -0.58433483372E+02 -0.25517859510E+03  0.29018280951E+03  0.12509000000E+03 0.  0.
         25    1    3    3    0    0 -0.73697171664E+02  0.84017366517E+02 -0.17425156665E+03  0.24187043550E+03  0.12509000000E+03 0.  0.
         25    1    4    4    0    0  0.68408744502E+02 -0.25583883145E+02 -0.19194976808E+03  0.24047143899E+03  0.12509000000E+03 0.  0.
<mgrwt>
<rscale>  2 0.45900040E+03</rscale>
<asrwt>0</asrwt>
<pdfrwt beam="1">  1       21 0.11113584E-01 0.45900040E+03</pdfrwt>
<pdfrwt beam="2">  1       21 0.10249299E+00 0.45900040E+03</pdfrwt>
<totfact> 0.47609695E+04</totfact>
</mgrwt>
</event>
<event>
 7    0  0.4709932E-002  0.4511900E+03  0.7546771E-02  0.1027368E+00
         21   -1    0    0  502  501  0.00000000000E+00  0.00000000000E+00  0.74601600246E+02  0.74601600246E+02  0.00000000000E+00 0.  1.
         21   -1    0    0  501  502 -0.00000000000E+00 -0.00000000000E+00 -0.68219867360E+03  0.68219867360E+03  0.00000000000E+00 0.  1.
      99926    2    1    2    0    0  0.00000000000E+00 -0.19984014443E-14 -0.60759707336E+03  0.75680027385E+03  0.45119003861E+03 0.  0.
      99925    2    3    3    0    0  0.76465757566E+02 -0.12042934079E+01 -0.51530851857E+03  0.58355724268E+03  0.26295954779E+03 0.  0.
         25    1    4    4    0    0  0.37141636857E+02 -0.32315210019E+02 -0.20375031907E+03  0.24410136134E+03  0.12509000000E+03 0.  0.
         25    1    3    3    0    0 -0.76465757566E+02  0.12042934079E+01 -0.92288554785E+02  0.17324303116E+03  0.12509000000E+03 0.  0.
         25    1    4    4    0    0  0.39324120708E+02  0.31110916612E+02 -0.31155819950E+03  0.33945588134E+03  0.12509000000E+03 0.  0.
<mgrwt>
<rscale>  2 0.45119004E+03</rscale>
<asrwt>0</asrwt>
<pdfrwt beam="1">  1       21 0.10970824E-01 0.45119004E+03</pdfrwt>
<pdfrwt beam="2">  1       21 0.10032333E+00 0.45119004E+03</pdfrwt>
<totfact> 0.51446459E+04</totfact>
</mgrwt>
</event>
<event>
 7    0  0.4709932E-002  0.4526190E+03  0.7546771E-02  0.1026944E+00
         21   -1    0    0  502  501  0.00000000000E+00  0.00000000000E+00  0.26944520548E+03  0.26944520548E+03  0.00000000000E+00 0. -1.
         21   -1    0    0  501  502 -0.00000000000E+00 -0.00000000000E+00 -0.19007944067E+03  0.19007944067E+03  0.00000000000E+00 0. -1.
      99926    2    1    2    0    0  0.71054273576E-14  0.00000000000E+00  0.79365764810E+02  0.45952464615E+03  0.45261901838E+03 0.  0.
      99925    2    3    3    0    0 -0.33994627050E+02 -0.86560355388E+02  0.10924451075E+03  0.30081554953E+03  0.26439989016E+03 0.  0.
         25    1    3    3    0    0  0.33994627050E+02  0.86560355388E+02 -0.29878745937E+02  0.15870909663E+03  0.12509000000E+03 0.  0.
         25    1    4    4    0    0  0.21958723831E+02 -0.49783937872E+02  0.71420712185E+02  0.15397744072E+03  0.12509000000E+03 0.  0.
         25    1    4    4    0    0 -0.55953350881E+02 -0.36776417516E+02  0.37823798562E+02  0.14683810881E+03  0.12509000000E+03 0.  0.
<mgrwt>
<rscale>  2 0.45261902E+03</rscale>
<asrwt>0</asrwt>
<pdfrwt beam="1">  1       21 0.39624295E-01 0.45261902E+03</pdfrwt>
<pdfrwt beam="2">  1       21 0.27952859E-01 0.45261902E+03</pdfrwt>
<totfact> 0.69525118E+04</totfact>
</mgrwt>
</event>
<event>
 7    0  0.4709932E-002  0.4504042E+03  0.7546771E-02  0.1027602E+00
         21   -1    0    0  502  501  0.00000000000E+00  0.00000000000E+00  0.58338198893E+03  0.58338198893E+03  0.00000000000E+00 0. -1.
         21   -1    0    0  501  502 -0.00000000000E+00 -0.00000000000E+00 -0.86934424667E+02  0.86934424667E+02  0.00000000000E+00 0. -1.
      99926    2    1    2    0    0 -0.17763568394E-14  0.00000000000E+00  0.49644756427E+03  0.67031641360E+03  0.45040416325E+03 0.  0.
      99925    2    3    3    0    0  0.13279348290E+02  0.10124281211E+03  0.25739007070E+03  0.38183341337E+03  0.26290808084E+03 0.  0.
         25    1    3    3    0    0 -0.13279348290E+02 -0.10124281211E+03  0.23905749356E+03  0.28848300023E+03  0.12509000000E+03 0.  0.
         25    1    4    4    0    0 -0.29073197325E+02  0.44254251611E+02  0.10039038555E+03  0.16890656352E+03  0.12509000000E+03 0.  0.
         25    1    4    4    0    0  0.42352545614E+02  0.56988560502E+02  0.15699968515E+03  0.21292684985E+03  0.12509000000E+03 0.  0.
<mgrwt>
<rscale>  2 0.45040416E+03</rscale>
<asrwt>0</asrwt>
<pdfrwt beam="1">  1       21 0.85791467E-01 0.45040416E+03</pdfrwt>
<pdfrwt beam="2">  1       21 0.12784475E-01 0.45040416E+03</pdfrwt>
<totfact> 0.56565336E+04</totfact>
</mgrwt>
</event>
<event>
 7    0  0.4709932E-002  0.4540612E+03  0.7546771E-02  0.1026518E+00
         21   -1    0    0  502  501  0.00000000000E+00  0.00000000000E+00  0.57884471837E+02  0.57884471837E+02  0.00000000000E+00 0.  1.
         21   -1    0    0  501  502 -0.00000000000E+00 -0.00000000000E+00 -0.89044427372E+03  0.89044427372E+03  0.00000000000E+00 0.  1.
      99926    2    1    2    0    0  0.00000000000E+00  0.00000000000E+00 -0.83255980188E+03  0.94832874555E+03  0.45406121387E+03 0.  0.
      99925    2    3    3    0    0 -0.99879340143E+02 -0.50464683243E+02 -0.50562278577E+03  0.58082651774E+03  0.26302561735E+03 0.  0.
         25    1    4    4    0    0 -0.37400539846E+02 -0.62183893948E+02 -0.23342784247E+03  0.27459370493E+03  0.12509000000E+03 0.  0.
         25    1    4    4    0    0 -0.62478800298E+02  0.11719210705E+02 -0.27219494330E+03  0.30623281281E+03  0.12509000000E+03 0.  0.
         25    1    3    3    0    0  0.99879340143E+02  0.50464683243E+02 -0.32693701611E+03  0.36750222781E+03  0.12509000000E+03 0.  0.
<mgrwt>
<rscale>  2 0.45406121E+03</rscale>
<asrwt>0</asrwt>
<pdfrwt beam="1">  1       21 0.85124226E-02 0.45406121E+03</pdfrwt>
<pdfrwt beam="2">  1       21 0.13094768E+00 0.45406121E+03</pdfrwt>
<totfact> 0.41512468E+04</totfact>
</mgrwt>
</event>
<event>
 7    0  0.4709932E-002  0.4836935E+03  0.7546771E-02  0.1018125E+00
         21   -1    0    0  502  501  0.00000000000E+00  0.00000000000E+00  0.32824050790E+03  0.32824050790E+03  0.00000000000E+00 0.  1.
         21   -1    0    0  501  502 -0.00000000000E+00 -0.00000000000E+00 -0.17819205115E+03  0.17819205115E+03  0.00000000000E+00 0.  1.
      99926    2    1    2    0    0  0.00000000000E+00 -0.71054273576E-14  0.15004845676E+03  0.50643255905E+03  0.48369349540E+03 0.  0.
      99925    2    3    3    0    0  0.88135325531E+02 -0.61827360991E+02  0.15805307441E+01  0.28444001114E+03  0.26327393279E+03 0.  0.
         25    1    3    3    0    0 -0.88135325531E+02  0.61827360991E+02  0.14846792601E+03  0.22199254791E+03  0.12509000000E+03 0.  0.
         25    1    4    4    0    0  0.79402142881E+02 -0.57327233707E+02  0.45087165194E+01  0.15893064098E+03  0.12509000000E+03 0.  0.
         25    1    4    4    0    0  0.87331826504E+01 -0.45001272832E+01 -0.29281857753E+01  0.12550937015E+03  0.12509000000E+03 0.  0.
<mgrwt>
<rscale>  2 0.48369350E+03</rscale>
<asrwt>0</asrwt>
<pdfrwt beam="1">  1       21 0.48270663E-01 0.48369350E+03</pdfrwt>
<pdfrwt beam="2">  1       21 0.26204713E-01 0.48369350E+03</pdfrwt>
<totfact> 0.51942774E+04</totfact>
</mgrwt>
</event>
<event>
 7    0  0.4709932E-002  0.4575566E+03  0.7546771E-02  0.1025492E+00
         21   -1    0    0  502  501  0.00000000000E+00  0.00000000000E+00  0.63891455975E+03  0.63891455975E+03  0.00000000000E+00 0. -1.
         21   -1    0    0  501  502 -0.00000000000E+00 -0.00000000000E+00 -0.81919409767E+02  0.81919409767E+02  0.00000000000E+00 0. -1.
      99926    2    1    2    0    0  0.00000000000E+00 -0.17763568394E-14  0.55699514999E+03  0.72083396952E+03  0.45755656973E+03 0.  0.
      99925    2    3    3    0    0  0.10596161892E+03 -0.11202666200E+02  0.27984392874E+03  0.39863267847E+03  0.26313879129E+03 0.  0.
         25    1    4    4    0    0  0.54050625256E+02  0.27368071568E+02  0.10534242038E+03  0.17439901107E+03  0.12509000000E+03 0.  0.
         25    1    4    4    0    0  0.51910993665E+02 -0.38570737768E+02  0.17450150836E+03  0.22423366740E+03  0.12509000000E+03 0.  0.
         25    1    3    3    0    0 -0.10596161892E+03  0.11202666200E+02  0.27715122125E+03  0.32220129105E+03  0.12509000000E+03 0.  0.
<mgrwt>
<rscale>  2 0.45755657E+03</rscale>
<asrwt>0</asrwt>
<pdfrwt beam="1">  1       21 0.93958021E-01 0.45755657E+03</pdfrwt>
<pdfrwt beam="2">  1       21 0.12046972E-01 0.45755657E+03</pdfrwt>
<totfact> 0.50758007E+04</totfact>
</mgrwt>
</event>
<event>
 7    0  0.4709932E-002  0.4509239E+03  0.7546771E-02  0.1027447E+00
         21   -1    0    0  502  501  0.00000000000E+00  0.00000000000E+00  0.41742015819E+02  0.41742015819E+02  0.00000000000E+00 0.  1.
         21   -1    0    0  501  502 -0.00000000000E+00 -0.00000000000E+00 -0.12177919731E+04  0.12177919731E+04  0.00000000000E+00 0.  1.
      99926    2    1    2    0    0  0.71054273576E-14  0.00000000000E+00 -0.11760499573E+04  0.12595339889E+04  0.45092390402E+03 0.  0.
      99925    2    3    3    0    0  0.36599249847E+02 -0.25663395787E+02 -0.46229648186E+03  0.53352459039E+03  0.26254968376E+03 0.  0.
         25    1    4    4    0    0 -0.13218164680E+02 -0.31795789307E+02 -0.19584284517E+03  0.23492045505E+03  0.12509000000E+03 0.  0.
         25    1    3    3    0    0 -0.36599249847E+02  0.25663395787E+02 -0.71375347541E+03  0.72600939851E+03  0.12509000000E+03 0.  0.
         25    1    4    4    0    0  0.49817414527E+02  0.61323935200E+01 -0.26645363669E+03  0.29860413534E+03  0.12509000000E+03 0.  0.
<mgrwt>
<rscale>  2 0.45092390E+03</rscale>
<asrwt>0</asrwt>
<pdfrwt beam="1">  1       21 0.61385307E-02 0.45092390E+03</pdfrwt>
<pdfrwt beam="2">  1       21 0.17908708E+00 0.45092390E+03</pdfrwt>
<totfact> 0.31294049E+04</totfact>
</mgrwt>
</event>
<event>
 6    0  0.4709932E-002  0.4536512E+03  0.7546771E-02  0.1026639E+00
         21   -1    0    0  502  501  0.00000000000E+00  0.00000000000E+00  0.69940395106E+03  0.69940395106E+03  0.00000000000E+00 0. -1.
         21   -1    0    0  501  502 -0.00000000000E+00 -0.00000000000E+00 -0.73562421155E+02  0.73562421155E+02  0.00000000000E+00 0. -1.
      99926    2    1    2    0    0  0.00000000000E+00  0.00000000000E+00  0.62584152991E+03  0.77296637222E+03  0.45365117880E+03 0.  0.
         25    1    3    3    0    0  0.81252377510E+02  0.40701109170E+02  0.11673606512E+03  0.19373524754E+03  0.12509000000E+03 0.  0.
         25    1    3    3    0    0 -0.42106788452E+02 -0.24534664813E+02  0.17947296125E+03  0.22412715884E+03  0.12509000000E+03 0.  0.
         25    1    3    3    0    0 -0.39145589058E+02 -0.16166444357E+02  0.32963250354E+03  0.35510396584E+03  0.12509000000E+03 0.  0.
<mgrwt>
<rscale>  2 0.45365118E+03</rscale>
<asrwt>0</asrwt>
<pdfrwt beam="1">  1       21 0.10285352E+00 0.45365118E+03</pdfrwt>
<pdfrwt beam="2">  1       21 0.10818003E-01 0.45365118E+03</pdfrwt>
<totfact> 0.49623519E+04</totfact>
</mgrwt>
</event>
<event>
 7    0  0.4709932E-002  0.4535995E+03  0.7546771E-02  0.1026654E+00
         21   -1    0    0  502  501  0.00000000000E+00  0.00000000000E+00  0.31412830452E+02  0.31412830452E+02  0.00000000000E+00 0. -1.
         21   -1    0    0  501  502 -0.00000000000E+00 -0.00000000000E+00 -0.16374877217E+04  0.16374877217E+04  0.00000000000E+00 0. -1.
      99926    2    1    2    0    0 -0.22204460493E-15  0.14210854715E-13 -0.16060748913E+04  0.16689005522E+04  0.45359948928E+03 0.  0.
      99925    2    3    3    0    0  0.19307000732E+01  0.11088279327E+03 -0.10629175094E+04  0.11005994251E+04  0.26310975145E+03 0.  0.
         25    1    3    3    0    0 -0.19307000732E+01 -0.11088279327E+03 -0.54315738189E+03  0.56830112709E+03  0.12509000000E+03 0.  0.
         25    1    4    4    0    0 -0.99713437769E+00  0.99312968816E+02 -0.61225549860E+03  0.63274668210E+03  0.12509000000E+03 0.  0.
         25    1    4    4    0    0  0.29278344509E+01  0.11569824457E+02 -0.45066201077E+03  0.46785274297E+03  0.12509000000E+03 0.  0.
<mgrwt>
<rscale>  2 0.45359949E+03</rscale>
<asrwt>0</asrwt>
<pdfrwt beam="1">  1       21 0.46195338E-02 0.45359949E+03</pdfrwt>
<pdfrwt beam="2">  1       21 0.24080702E+00 0.45359949E+03</pdfrwt>
<totfact> 0.20134735E+04</totfact>
</mgrwt>
</event>
<event>
 7    0  0.4709932E-002  0.4434953E+03  0.7546771E-02  0.1029680E+00
         21   -1    0    0  502  501  0.00000000000E+00  0.00000000000E+00  0.23536421681E+02  0.23536421681E+02  0.00000000000E+00 0.  1.
         21   -1    0    0  501  502 -0.00000000000E+00 -0.00000000000E+00 -0.20891886637E+04  0.20891886637E+04  0.00000000000E+00 0.  1.
      99926    2    1    2    0    0  0.00000000000E+00  0.00000000000E+00 -0.20656522420E+04  0.21127250854E+04  0.44349532291E+03 0.  0.
      99925    2    3    3    0    0  0.67150598599E+02 -0.42352873710E+02 -0.10119130156E+04  0.10486213150E+04  0.26331680970E+03 0.  0.
         25    1    4    4    0    0  0.65674431399E+01  0.26648850277E+01 -0.38344259829E+03  0.40339306787E+03  0.12509000000E+03 0.  0.
         25    1    4    4    0    0  0.60583155459E+02 -0.45017758737E+02 -0.62847041729E+03  0.64522824708E+03  0.12509000000E+03 0.  0.
         25    1    3    3    0    0 -0.67150598599E+02  0.42352873710E+02 -0.10537392265E+04  0.10641037704E+04  0.12509000000E+03 0.  0.
<mgrwt>
<rscale>  2 0.44349532E+03</rscale>
<asrwt>0</asrwt>
<pdfrwt beam="1">  1       21 0.34612389E-02 0.44349532E+03</pdfrwt>
<pdfrwt beam="2">  1       21 0.30723359E+00 0.44349532E+03</pdfrwt>
<totfact> 0.13085762E+04</totfact>
</mgrwt>
</event>
<event>
 7    0  0.4709932E-002  0.4546944E+03  0.7546771E-02  0.1026331E+00
         21   -1    0    0  502  501  0.00000000000E+00  0.00000000000E+00  0.67576442083E+02  0.67576442083E+02  0.00000000000E+00 0. -1.
         21   -1    0    0  501  502 -0.00000000000E+00 -0.00000000000E+00 -0.76486330585E+03  0.76486330585E+03  0.00000000000E+00 0. -1.
      99926    2    1    2    0    0  0.00000000000E+00  0.00000000000E+00 -0.69728686376E+03  0.83243974793E+03  0.45469436279E+03 0.  0.
      99925    2    3    3    0    0 -0.22471883450E+02  0.76290586686E+02 -0.58522643803E+03  0.64661648168E+03  0.26324447088E+03 0.  0.
         25    1    4    4    0    0 -0.11744913062E+02 -0.42328250959E+01 -0.27765377678E+03  0.30478679048E+03  0.12509000000E+03 0.  0.
         25    1    3    3    0    0  0.22471883450E+02 -0.76290586686E+02 -0.11206042573E+03  0.18582326624E+03  0.12509000000E+03 0.  0.
         25    1    4    4    0    0 -0.10726970388E+02  0.80523411782E+02 -0.30757266126E+03  0.34182969121E+03  0.12509000000E+03 0.  0.
<mgrwt>
<rscale>  2 0.45469436E+03</rscale>
<asrwt>0</asrwt>
<pdfrwt beam="1">  1       21 0.99377119E-02 0.45469436E+03</pdfrwt>
<pdfrwt beam="2">  1       21 0.11247990E+00 0.45469436E+03</pdfrwt>
<totfact> 0.46346455E+04</totfact>
</mgrwt>
</event>
<event>
 7    0  0.4709932E-002  0.4264398E+03  0.7546771E-02  0.1034991E+00
         21   -1    0    0  502  501  0.00000000000E+00  0.00000000000E+00  0.10400220974E+03  0.10400220974E+03  0.00000000000E+00 0.  1.
         21   -1    0    0  501  502 -0.00000000000E+00 -0.00000000000E+00 -0.43713238824E+03  0.43713238824E+03  0.00000000000E+00 0.  1.
      99926    2    1    2    0    0 -0.71054273576E-14  0.00000000000E+00 -0.33313017850E+03  0.54113459797E+03  0.42643984018E+03 0.  0.
      99925    2    3    3    0    0 -0.62756324104E+02  0.27993321439E+02 -0.27591497514E+03  0.38737156647E+03  0.26306971461E+03 0.  0.
         25    1    4    4    0    0 -0.27745668477E+02  0.46615190222E+02 -0.17491744667E+03  0.22178011482E+03  0.12509000000E+03 0.  0.
         25    1    4    4    0    0 -0.35010655627E+02 -0.18621868783E+02 -0.10099752847E+03  0.16559145166E+03  0.12509000000E+03 0.  0.
         25    1    3    3    0    0  0.62756324104E+02 -0.27993321439E+02 -0.57215203355E+02  0.15376303150E+03  0.12509000000E+03 0.  0.
<mgrwt>
<rscale>  2 0.42643984E+03</rscale>
<asrwt>0</asrwt>
<pdfrwt beam="1">  1       21 0.15294443E-01 0.42643984E+03</pdfrwt>
<pdfrwt beam="2">  1       21 0.64284175E-01 0.42643984E+03</pdfrwt>
<totfact> 0.78815439E+04</totfact>
</mgrwt>
</event>
<event>
 7    0  0.4709932E-002  0.4567778E+03  0.7546771E-02  0.1025720E+00
         21   -1    0    0  502  501  0.00000000000E+00  0.00000000000E+00  0.58486538174E+02  0.58486538174E+02  0.00000000000E+00 0. -1.
         21   -1    0    0  501  502 -0.00000000000E+00 -0.00000000000E+00 -0.89185461600E+03  0.89185461600E+03  0.00000000000E+00 0. -1.
      99926    2    1    2    0    0  0.14210854715E-13  0.00000000000E+00 -0.83336807783E+03  0.95034115418E+03  0.45677779738E+03 0.  0.
      99925    2    3    3    0    0  0.10565026334E+03  0.13686078770E+02 -0.60861011109E+03  0.67192969857E+03  0.26407189478E+03 0.  0.
         25    1    3    3    0    0 -0.10565026334E+03 -0.13686078770E+02 -0.22475796674E+03  0.27841145560E+03  0.12509000000E+03 0.  0.
         25    1    4    4    0    0  0.21399093439E+02  0.35003777530E+01 -0.35088343139E+03  0.37314456229E+03  0.12509000000E+03 0.  0.
         25    1    4    4    0    0  0.84251169904E+02  0.10185701017E+02 -0.25772667970E+03  0.29878513628E+03  0.12509000000E+03 0.  0.
<mgrwt>
<rscale>  2 0.45677780E+03</rscale>
<asrwt>0</asrwt>
<pdfrwt beam="1">  1       21 0.86009614E-02 0.45677780E+03</pdfrwt>
<pdfrwt beam="2">  1       21 0.13115509E+00 0.45677780E+03</pdfrwt>
<totfact> 0.40560186E+04</totfact>
</mgrwt>
</event>
<event>
 7    0  0.4709932E-002  0.4591424E+03  0.7546771E-02  0.1025030E+00
         21   -1    0    0  502  501  0.00000000000E+00  0.00000000000E+00  0.23159501112E+02  0.23159501112E+02  0.00000000000E+00 0. -1.
         21   -1    0    0  501  502 -0.00000000000E+00 -0.00000000000E+00 -0.22756508184E+04  0.22756508184E+04  0.00000000000E+00 0. -1.
      99926    2    1    2    0    0  0.00000000000E+00  0.00000000000E+00 -0.22524913173E+04  0.22988103195E+04  0.45914240780E+03 0.  0.
      99925    2    3    3    0    0  0.40369412602E+02  0.10816918454E+03 -0.15076254041E+04  0.15347402974E+04  0.26298889601E+03 0.  0.
         25    1    3    3    0    0 -0.40369412602E+02 -0.10816918454E+03 -0.74486591323E+03  0.76407002215E+03  0.12509000000E+03 0.  0.
         25    1    4    4    0    0  0.57296991803E+02  0.45834591444E+02 -0.84089460439E+03  0.85330826718E+03  0.12509000000E+03 0.  0.
         25    1    4    4    0    0 -0.16927579201E+02  0.62334593092E+02 -0.66673079969E+03  0.68143203020E+03  0.12509000000E+03 0.  0.
<mgrwt>
<rscale>  2 0.45914241E+03</rscale>
<asrwt>0</asrwt>
<pdfrwt beam="1">  1       21 0.34058074E-02 0.45914241E+03</pdfrwt>
<pdfrwt beam="2">  1       21 0.33465469E+00 0.45914241E+03</pdfrwt>
<totfact> 0.91188108E+03</totfact>
</mgrwt>
</event>
<event>
 7    0  0.4709932E-002  0.4429557E+03  0.7546771E-02  0.1029844E+00
         21   -1    0    0  502  501  0.00000000000E+00  0.00000000000E+00  0.69326962512E+03  0.69326962512E+03  0.00000000000E+00 0. -1.
         21   -1    0    0  501  502 -0.00000000000E+00 -0.00000000000E+00 -0.70755211641E+02  0.70755211641E+02  0.00000000000E+00 0. -1.
      99926    2    1    2    0    0 -0.71054273576E-14 -0.35527136788E-14  0.62251441348E+03  0.76402483676E+03  0.44295570456E+03 0.  0.
      99925    2    3    3    0    0 -0.54518029752E+02  0.27559575410E+02  0.25691527129E+03  0.37281902567E+03  0.26316691189E+03 0.  0.
         25    1    4    4    0    0  0.11294702127E+02  0.27860129486E+02  0.12894090521E+03  0.18214560727E+03  0.12509000000E+03 0.  0.
         25    1    3    3    0    0  0.54518029752E+02 -0.27559575410E+02  0.36559914219E+03  0.39120581109E+03  0.12509000000E+03 0.  0.
         25    1    4    4    0    0 -0.65812731879E+02 -0.30055407638E+00  0.12797436608E+03  0.19067341840E+03  0.12509000000E+03 0.  0.
<mgrwt>
<rscale>  2 0.44295570E+03</rscale>
<asrwt>0</asrwt>
<pdfrwt beam="1">  1       21 0.10195141E+00 0.44295570E+03</pdfrwt>
<pdfrwt beam="2">  1       21 0.10405179E-01 0.44295570E+03</pdfrwt>
<totfact> 0.54530271E+04</totfact>
</mgrwt>
</event>
<event>
 7    0  0.4709932E-002  0.4557835E+03  0.7546771E-02  0.1026011E+00
         21   -1    0    0  502  501  0.00000000000E+00  0.00000000000E+00  0.67925636544E+02  0.67925636544E+02  0.00000000000E+00 0.  1.
         21   -1    0    0  501  502 -0.00000000000E+00 -0.00000000000E+00 -0.76458089123E+03  0.76458089123E+03  0.00000000000E+00 0.  1.
      99926    2    1    2    0    0  0.00000000000E+00 -0.17763568394E-14 -0.69665525468E+03  0.83250652777E+03  0.45578347371E+03 0.  0.
      99925    2    3    3    0    0 -0.24535390772E+02  0.14934750433E+02 -0.23681218032E+03  0.35508826952E+03  0.26302592692E+03 0.  0.
         25    1    4    4    0    0 -0.23147042875E+02  0.46048640232E+02 -0.13088260463E+03  0.18823928165E+03  0.12509000000E+03 0.  0.
         25    1    3    3    0    0  0.24535390772E+02 -0.14934750433E+02 -0.45984307436E+03  0.47741825825E+03  0.12509000000E+03 0.  0.
         25    1    4    4    0    0 -0.13883478972E+01 -0.31113889799E+02 -0.10592957569E+03  0.16684898788E+03  0.12509000000E+03 0.  0.
<mgrwt>
<rscale>  2 0.45578347E+03</rscale>
<asrwt>0</asrwt>
<pdfrwt beam="1">  1       21 0.99890643E-02 0.45578347E+03</pdfrwt>
<pdfrwt beam="2">  1       21 0.11243836E+00 0.45578347E+03</pdfrwt>
<totfact> 0.45949244E+04</totfact>
</mgrwt>
</event>
<event>
 7    0  0.4709932E-002  0.4547955E+03  0.7546771E-02  0.1026302E+00
         21   -1    0    0  502  501  0.00000000000E+00  0.00000000000E+00  0.53922170112E+03  0.53922170112E+03  0.00000000000E+00 0.  1.
         21   -1    0    0  501  502 -0.00000000000E+00 -0.00000000000E+00 -0.95896968868E+02  0.95896968868E+02  0.00000000000E+00 0.  1.
      99926    2    1    2    0    0  0.00000000000E+00 -0.17763568394E-14  0.44332473225E+03  0.63511866999E+03  0.45479545594E+03 0.  0.
      99925    2    3    3    0    0 -0.61176965825E+02 -0.15202902526E+02  0.14790109246E+03  0.30816854468E+03  0.26290562829E+03 0.  0.
         25    1    4    4    0    0 -0.27657371032E+02 -0.17026741842E+02  0.29220237846E+02  0.13249970004E+03  0.12509000000E+03 0.  0.
         25    1    4    4    0    0 -0.33519594793E+02  0.18238393162E+01  0.11868085461E+03  0.17566884464E+03  0.12509000000E+03 0.  0.
         25    1    3    3    0    0  0.61176965825E+02  0.15202902526E+02  0.29542363979E+03  0.32695012531E+03  0.12509000000E+03 0.  0.
<mgrwt>
<rscale>  2 0.45479546E+03</rscale>
<asrwt>0</asrwt>
<pdfrwt beam="1">  1       21 0.79297308E-01 0.45479546E+03</pdfrwt>
<pdfrwt beam="2">  1       21 0.14102496E-01 0.45479546E+03</pdfrwt>
<totfact> 0.56658466E+04</totfact>
</mgrwt>
</event>
<event>
 7    0  0.4709932E-002  0.4407330E+03  0.7546771E-02  0.1030522E+00
         21   -1    0    0  502  501  0.00000000000E+00  0.00000000000E+00  0.10758989562E+03  0.10758989562E+03  0.00000000000E+00 0.  1.
         21   -1    0    0  501  502 -0.00000000000E+00 -0.00000000000E+00 -0.45135642994E+03  0.45135642994E+03  0.00000000000E+00 0.  1.
      99926    2    1    2    0    0  0.14210854715E-13 -0.53290705182E-14 -0.34376653432E+03  0.55894632556E+03  0.44073298575E+03 0.  0.
      99925    2    3    3    0    0  0.96506162636E+02  0.15096782991E+01 -0.18989296975E+03  0.33840086419E+03  0.26294502537E+03 0.  0.
         25    1    4    4    0    0  0.59494778477E+02 -0.32184997163E+02 -0.72116544936E+02  0.15944844578E+03  0.12509000000E+03 0.  0.
         25    1    3    3    0    0 -0.96506162636E+02 -0.15096782991E+01 -0.15387356457E+03  0.22054546137E+03  0.12509000000E+03 0.  0.
         25    1    4    4    0    0  0.37011384159E+02  0.33694675462E+02 -0.11777642482E+03  0.17895241841E+03  0.12509000000E+03 0.  0.
<mgrwt>
<rscale>  2 0.44073299E+03</rscale>
<asrwt>0</asrwt>
<pdfrwt beam="1">  1       21 0.15822044E-01 0.44073299E+03</pdfrwt>
<pdfrwt beam="2">  1       21 0.66375944E-01 0.44073299E+03</pdfrwt>
<totfact> 0.68711150E+04</totfact>
</mgrwt>
</event>
<event>
 7    0  0.4709932E-002  0.4518734E+03  0.7546771E-02  0.1027165E+00
         21   -1    0    0  502  501  0.00000000000E+00  0.00000000000E+00  0.57840607031E+03  0.57840607031E+03  0.00000000000E+00 0. -1.
         21   -1    0    0  501  502 -0.00000000000E+00 -0.00000000000E+00 -0.88255285261E+02  0.88255285261E+02  0.00000000000E+00 0. -1.
      99926    2    1    2    0    0  0.00000000000E+00  0.00000000000E+00  0.49015078505E+03  0.66666135558E+03  0.45187340144E+03 0.  0.
      99925    2    3    3    0    0  0.79118705482E+02 -0.76459112681E+02  0.31615730466E+03  0.42577340489E+03  0.26310033361E+03 0.  0.
         25    1    4    4    0    0  0.57292074739E+02 -0.67876034146E+02  0.20982345440E+03  0.25992869783E+03  0.12509000000E+03 0.  0.
         25    1    4    4    0    0  0.21826630743E+02 -0.85830785350E+01  0.10633385026E+03  0.16584470706E+03  0.12509000000E+03 0.  0.
         25    1    3    3    0    0 -0.79118705482E+02  0.76459112681E+02  0.17399348039E+03  0.24088795069E+03  0.12509000000E+03 0.  0.
<mgrwt>
<rscale>  2 0.45187340E+03</rscale>
<asrwt>0</asrwt>
<pdfrwt beam="1">  1       21 0.85059714E-01 0.45187340E+03</pdfrwt>
<pdfrwt beam="2">  1       21 0.12978719E-01 0.45187340E+03</pdfrwt>
<totfact> 0.56121156E+04</totfact>
</mgrwt>
</event>
<event>
 7    0  0.4709932E-002  0.4580093E+03  0.7546771E-02  0.1025360E+00
         21   -1    0    0  502  501  0.00000000000E+00  0.00000000000E+00  0.14558005679E+04  0.14558005679E+04  0.00000000000E+00 0.  1.
         21   -1    0    0  501  502 -0.00000000000E+00 -0.00000000000E+00 -0.36023559779E+02  0.36023559779E+02  0.00000000000E+00 0.  1.
      99926    2    1    2    0    0 -0.44408920985E-14  0.00000000000E+00  0.14197770081E+04  0.14918241277E+04  0.45800925224E+03 0.  0.
      99925    2    3    3    0    0  0.67178764894E+01  0.33913965620E+02  0.12513819789E+04  0.12792219619E+04  0.26316664637E+03 0.  0.
         25    1    3    3    0    0 -0.67178764894E+01 -0.33913965620E+02  0.16839502923E+03  0.21260216579E+03  0.12509000000E+03 0.  0.
         25    1    4    4    0    0 -0.33600885353E+02  0.29756711679E+02  0.57252079195E+03  0.58774318091E+03  0.12509000000E+03 0.  0.
         25    1    4    4    0    0  0.40318761843E+02  0.41572539414E+01  0.67886118693E+03  0.69147878098E+03  0.12509000000E+03 0.  0.
<mgrwt>
<rscale>  2 0.45800925E+03</rscale>
<asrwt>0</asrwt>
<pdfrwt beam="1">  1       21 0.21408828E+00 0.45800925E+03</pdfrwt>
<pdfrwt beam="2">  1       21 0.52975833E-02 0.45800925E+03</pdfrwt>
<totfact> 0.23427809E+04</totfact>
</mgrwt>
</event>
<event>
 7    0  0.4709932E-002  0.4566886E+03  0.7546771E-02  0.1025746E+00
         21   -1    0    0  502  501  0.00000000000E+00  0.00000000000E+00  0.46924365381E+03  0.46924365381E+03  0.00000000000E+00 0.  1.
         21   -1    0    0  501  502 -0.00000000000E+00 -0.00000000000E+00 -0.11111736912E+03  0.11111736912E+03  0.00000000000E+00 0.  1.
      99926    2    1    2    0    0  0.00000000000E+00  0.71054273576E-14  0.35812628468E+03  0.58036102293E+03  0.45668860415E+03 0.  0.
      99925    2    3    3    0    0  0.10015156027E+03 -0.42795300113E+02  0.27072644850E+03  0.39288299169E+03  0.26306360923E+03 0.  0.
         25    1    4    4    0    0  0.47738743921E+02  0.66673206568E+01  0.89510305169E+02  0.16119256703E+03  0.12509000000E+03 0.  0.
         25    1    3    3    0    0 -0.10015156027E+03  0.42795300113E+02  0.87399836181E+02  0.18747803125E+03  0.12509000000E+03 0.  0.
         25    1    4    4    0    0  0.52412816346E+02 -0.49462620770E+02  0.18121614333E+03  0.23169042465E+03  0.12509000000E+03 0.  0.
<mgrwt>
<rscale>  2 0.45668860E+03</rscale>
<asrwt>0</asrwt>
<pdfrwt beam="1">  1       21 0.69006419E-01 0.45668860E+03</pdfrwt>
<pdfrwt beam="2">  1       21 0.16340790E-01 0.45668860E+03</pdfrwt>
<totfact> 0.59110617E+04</totfact>
</mgrwt>
</event>
<event>
 7    0  0.4709932E-002  0.4565676E+03  0.7546771E-02  0.1025781E+00
         21   -1    0    0  502  501  0.00000000000E+00  0.00000000000E+00  0.71583604475E+02  0.71583604475E+02  0.00000000000E+00 0.  1.
         21   -1    0    0  501  502 -0.00000000000E+00 -0.00000000000E+00 -0.72800864156E+03  0.72800864156E+03  0.00000000000E+00 0.  1.
      99926    2    1    2    0    0 -0.14210854715E-13 -0.17763568394E-14 -0.65642503708E+03  0.79959224603E+03  0.45656755317E+03 0.  0.
      99925    2    3    3    0    0  0.94990730844E+02  0.12613317345E+02 -0.52244650546E+03  0.59275876287E+03  0.26311644793E+03 0.  0.
         25    1    3    3    0    0 -0.94990730844E+02 -0.12613317345E+02 -0.13397853162E+03  0.20683348316E+03  0.12509000000E+03 0.  0.
         25    1    4    4    0    0  0.59585762235E+02  0.45025855863E+02 -0.28692787714E+03  0.32179637279E+03  0.12509000000E+03 0.  0.
         25    1    4    4    0    0  0.35404968610E+02 -0.32412538518E+02 -0.23551862832E+03  0.27096239009E+03  0.12509000000E+03 0.  0.
<mgrwt>
<rscale>  2 0.45656755E+03</rscale>
<asrwt>0</asrwt>
<pdfrwt beam="1">  1       21 0.10527000E-01 0.45656755E+03</pdfrwt>
<pdfrwt beam="2">  1       21 0.10706010E+00 0.45656755E+03</pdfrwt>
<totfact> 0.47201189E+04</totfact>
</mgrwt>
</event>
<event>
 7    0  0.4709932E-002  0.4358818E+03  0.7546771E-02  0.1032018E+00
         21   -1    0    0  502  501  0.00000000000E+00  0.00000000000E+00  0.17925917705E+03  0.17925917705E+03  0.00000000000E+00 0.  1.
         21   -1    0    0  501  502 -0.00000000000E+00 -0.00000000000E+00 -0.26496961716E+03  0.26496961716E+03  0.00000000000E+00 0.  1.
      99926    2    1    2    0    0 -0.35527136788E-14  0.00000000000E+00 -0.85710440115E+02  0.44422879421E+03  0.43588179826E+03 0.  0.
      99925    2    3    3    0    0  0.20264669192E+02 -0.90299588297E+01  0.38021792725E+02  0.26688909048E+03  0.26323360903E+03 0.  0.
         25    1    4    4    0    0  0.44411739276E+02  0.48000773665E+01  0.40023212869E+02  0.13872566092E+03  0.12509000000E+03 0.  0.
         25    1    3    3    0    0 -0.20264669192E+02  0.90299588297E+01 -0.12373223284E+03  0.17733970373E+03  0.12509000000E+03 0.  0.
         25    1    4    4    0    0 -0.24147070084E+02 -0.13830036196E+02 -0.20014201438E+01  0.12816342956E+03  0.12509000000E+03 0.  0.
<mgrwt>
<rscale>  2 0.43588180E+03</rscale>
<asrwt>0</asrwt>
<pdfrwt beam="1">  1       21 0.26361644E-01 0.43588180E+03</pdfrwt>
<pdfrwt beam="2">  1       21 0.38966119E-01 0.43588180E+03</pdfrwt>
<totfact> 0.81003710E+04</totfact>
</mgrwt>
</event>
<event>
 7    0  0.4709932E-002  0.4517902E+03  0.7546771E-02  0.1027190E+00
         21   -1    0    0  502  501  0.00000000000E+00  0.00000000000E+00  0.27584480198E+03  0.27584480198E+03  0.00000000000E+00 0. -1.
         21   -1    0    0  501  502 -0.00000000000E+00 -0.00000000000E+00 -0.18499023840E+03  0.18499023840E+03  0.00000000000E+00 0. -1.
      99926    2    1    2    0    0  0.71054273576E-14  0.00000000000E+00  0.90854563583E+02  0.46083504038E+03  0.45179019768E+03 0.  0.
      99925    2    3    3    0    0  0.41378124398E+02  0.46830147096E+02  0.14979628483E+03  0.30908904715E+03  0.26304353302E+03 0.  0.
         25    1    3    3    0    0 -0.41378124398E+02 -0.46830147096E+02 -0.58941721251E+02  0.15174599322E+03  0.12509000000E+03 0.  0.
         25    1    4    4    0    0 -0.89023251276E+01  0.93140222357E+00  0.49143282703E+02  0.13469480034E+03  0.12509000000E+03 0.  0.
         25    1    4    4    0    0  0.50280449526E+02  0.45898744872E+02  0.10065300213E+03  0.17439424682E+03  0.12509000000E+03 0.  0.
<mgrwt>
<rscale>  2 0.45179020E+03</rscale>
<asrwt>0</asrwt>
<pdfrwt beam="1">  1       21 0.40565412E-01 0.45179020E+03</pdfrwt>
<pdfrwt beam="2">  1       21 0.27204447E-01 0.45179020E+03</pdfrwt>
<totfact> 0.69886778E+04</totfact>
</mgrwt>
</event>
<event>
 7    0  0.4709932E-002  0.4652127E+03  0.7546771E-02  0.1023280E+00
         21   -1    0    0  502  501  0.00000000000E+00  0.00000000000E+00  0.10615078763E+03  0.10615078763E+03  0.00000000000E+00 0. -1.
         21   -1    0    0  501  502 -0.00000000000E+00 -0.00000000000E+00 -0.50970610798E+03  0.50970610798E+03  0.00000000000E+00 0. -1.
      99926    2    1    2    0    0  0.00000000000E+00 -0.71054273576E-14 -0.40355532035E+03  0.61585689560E+03  0.46521266028E+03 0.  0.
      99925    2    3    3    0    0 -0.99685017886E+02 -0.43348127067E+02 -0.32645886642E+03  0.43307961524E+03  0.26299505462E+03 0.  0.
         25    1    3    3    0    0  0.99685017886E+02  0.43348127067E+02 -0.77096453923E+02  0.18277728037E+03  0.12509000000E+03 0.  0.
         25    1    4    4    0    0 -0.46835309350E+02 -0.12654782449E+02 -0.22054532723E+03  0.25815003231E+03  0.12509000000E+03 0.  0.
         25    1    4    4    0    0 -0.52849708537E+02 -0.30693344619E+02 -0.10591353919E+03  0.17492958292E+03  0.12509000000E+03 0.  0.
<mgrwt>
<rscale>  2 0.46521266E+03</rscale>
<asrwt>0</asrwt>
<pdfrwt beam="1">  1       21 0.15610411E-01 0.46521266E+03</pdfrwt>
<pdfrwt beam="2">  1       21 0.74956778E-01 0.46521266E+03</pdfrwt>
<totfact> 0.53283071E+04</totfact>
</mgrwt>
</event>
<event>
 7    0  0.4709932E-002  0.4546277E+03  0.7546771E-02  0.1026351E+00
         21   -1    0    0  502  501  0.00000000000E+00  0.00000000000E+00  0.55149600855E+03  0.55149600855E+03  0.00000000000E+00 0. -1.
         21   -1    0    0  501  502 -0.00000000000E+00 -0.00000000000E+00 -0.93693498130E+02  0.93693498130E+02  0.00000000000E+00 0. -1.
      99926    2    1    2    0    0  0.00000000000E+00 -0.14210854715E-13  0.45780251042E+03  0.64518950668E+03  0.45462771691E+03 0.  0.
      99925    2    3    3    0    0  0.20324592367E+02  0.10275978467E+03  0.34767109833E+03  0.44834159983E+03  0.26298732884E+03 0.  0.
         25    1    4    4    0    0 -0.23218961729E+02  0.64624595522E+02  0.20681209504E+03  0.25126521702E+03  0.12509000000E+03 0.  0.
         25    1    4    4    0    0  0.43543554096E+02  0.38135189150E+02  0.14085900329E+03  0.19707638281E+03  0.12509000000E+03 0.  0.
         25    1    3    3    0    0 -0.20324592367E+02 -0.10275978467E+03  0.11013141209E+03  0.19684790685E+03  0.12509000000E+03 0.  0.
<mgrwt>
<rscale>  2 0.45462772E+03</rscale>
<asrwt>0</asrwt>
<pdfrwt beam="1">  1       21 0.81102353E-01 0.45462772E+03</pdfrwt>
<pdfrwt beam="2">  1       21 0.13778456E-01 0.45462772E+03</pdfrwt>
<totfact> 0.56144210E+04</totfact>
</mgrwt>
</event>
<event>
 7    0  0.4709932E-002  0.4276771E+03  0.7546771E-02  0.1034596E+00
         21   -1    0    0  502  501  0.00000000000E+00  0.00000000000E+00  0.36311757957E+02  0.36311757957E+02  0.00000000000E+00 0.  1.
         21   -1    0    0  501  502 -0.00000000000E+00 -0.00000000000E+00 -0.12592872925E+04  0.12592872925E+04  0.00000000000E+00 0.  1.
      99926    2    1    2    0    0 -0.17763568394E-14  0.00000000000E+00 -0.12229755346E+04  0.12955990505E+04  0.42767714629E+03 0.  0.
      99925    2    3    3    0    0  0.12697282701E+02 -0.22286458791E+02 -0.10370724439E+04  0.10700655176E+04  0.26241770296E+03 0.  0.
         25    1    4    4    0    0  0.25070619738E+02 -0.20476491265E+02 -0.38855045460E+03  0.40947135008E+03  0.12509000000E+03 0.  0.
         25    1    4    4    0    0 -0.12373337037E+02 -0.18099675257E+01 -0.64852198932E+03  0.66059416754E+03  0.12509000000E+03 0.  0.
         25    1    3    3    0    0 -0.12697282701E+02  0.22286458791E+02 -0.18590309066E+03  0.22553353287E+03  0.12509000000E+03 0.  0.
<mgrwt>
<rscale>  2 0.42767715E+03</rscale>
<asrwt>0</asrwt>
<pdfrwt beam="1">  1       21 0.53399649E-02 0.42767715E+03</pdfrwt>
<pdfrwt beam="2">  1       21 0.18518929E+00 0.42767715E+03</pdfrwt>
<totfact> 0.36381172E+04</totfact>
</mgrwt>
</event>
<event>
 7    0  0.4709932E-002  0.4588817E+03  0.7546771E-02  0.1025106E+00
         21   -1    0    0  502  501  0.00000000000E+00  0.00000000000E+00  0.65847465075E+02  0.65847465075E+02  0.00000000000E+00 0. -1.
         21   -1    0    0  501  502 -0.00000000000E+00 -0.00000000000E+00 -0.79947043800E+03  0.79947043800E+03  0.00000000000E+00 0. -1.
      99926    2    1    2    0    0 -0.14210854715E-13 -0.71054273576E-14 -0.73362297293E+03  0.86531790308E+03  0.45888169170E+03 0.  0.
      99925    2    3    3    0    0 -0.84202656707E+02 -0.19777478025E+02 -0.31191819610E+03  0.41702819437E+03  0.26294166237E+03 0.  0.
         25    1    4    4    0    0 -0.24408345093E+02 -0.35152606464E+02 -0.11210852327E+03  0.17334157649E+03  0.12509000000E+03 0.  0.
         25    1    4    4    0    0 -0.59794311614E+02  0.15375128439E+02 -0.19980967283E+03  0.24368661788E+03  0.12509000000E+03 0.  0.
         25    1    3    3    0    0  0.84202656707E+02  0.19777478025E+02 -0.42170477683E+03  0.44828970871E+03  0.12509000000E+03 0.  0.
<mgrwt>
<rscale>  2 0.45888169E+03</rscale>
<asrwt>0</asrwt>
<pdfrwt beam="1">  1       21 0.96834511E-02 0.45888169E+03</pdfrwt>
<pdfrwt beam="2">  1       21 0.11756918E+00 0.45888169E+03</pdfrwt>
<totfact> 0.43424453E+04</totfact>
</mgrwt>
</event>
<event>
 7    0  0.4709932E-002  0.4511793E+03  0.7546771E-02  0.1027371E+00
         21   -1    0    0  502  501  0.00000000000E+00  0.00000000000E+00  0.50795266644E+03  0.50795266644E+03  0.00000000000E+00 0. -1.
         21   -1    0    0  501  502 -0.00000000000E+00 -0.00000000000E+00 -0.10018783903E+03  0.10018783903E+03  0.00000000000E+00 0. -1.
      99926    2    1    2    0    0  0.00000000000E+00 -0.11102230246E-15  0.40776482741E+03  0.60814050548E+03  0.45117925477E+03 0.  0.
      99925    2    3    3    0    0 -0.10773277300E+03  0.97025236132E+00  0.23069457354E+03  0.36604822003E+03  0.26299053474E+03 0.  0.
         25    1    3    3    0    0  0.10773277300E+03 -0.97025236132E+00  0.17707025387E+03  0.24209228545E+03  0.12509000000E+03 0.  0.
         25    1    4    4    0    0 -0.47122923864E+02 -0.31170660937E+02  0.14481320959E+03  0.19952582246E+03  0.12509000000E+03 0.  0.
         25    1    4    4    0    0 -0.60609849131E+02  0.32140913299E+02  0.85881363949E+02  0.16652239757E+03  0.12509000000E+03 0.  0.
<mgrwt>
<rscale>  2 0.45117925E+03</rscale>
<asrwt>0</asrwt>
<pdfrwt beam="1">  1       21 0.74698920E-01 0.45117925E+03</pdfrwt>
<pdfrwt beam="2">  1       21 0.14733506E-01 0.45117925E+03</pdfrwt>
<totfact> 0.59969517E+04</totfact>
</mgrwt>
</event>
<event>
 7    0  0.4709932E-002  0.4501716E+03  0.7546771E-02  0.1027671E+00
         21   -1    0    0  502  501  0.00000000000E+00  0.00000000000E+00  0.19170998142E+04  0.19170998142E+04  0.00000000000E+00 0. -1.
         21   -1    0    0  501  502 -0.00000000000E+00 -0.00000000000E+00 -0.26427217482E+02  0.26427217482E+02  0.00000000000E+00 0. -1.
      99926    2    1    2    0    0  0.00000000000E+00  0.00000000000E+00  0.18906725967E+04  0.19435270317E+04  0.45017158384E+03 0.  0.
      99925    2    3    3    0    0  0.67152306575E+02 -0.44176015012E+02  0.87891174922E+03  0.92089881321E+03  0.26288364095E+03 0.  0.
         25    1    4    4    0    0  0.62499175039E+02  0.53135560767E+01  0.47145062687E+03  0.49178001427E+03  0.12509000000E+03 0.  0.
         25    1    3    3    0    0 -0.67152306575E+02  0.44176015012E+02  0.10117608475E+04  0.10226282185E+04  0.12509000000E+03 0.  0.
         25    1    4    4    0    0  0.46531315359E+01 -0.49489571089E+02  0.40746112234E+03  0.42911879894E+03  0.12509000000E+03 0.  0.
<mgrwt>
<rscale>  2 0.45017158E+03</rscale>
<asrwt>0</asrwt>
<pdfrwt beam="1">  1       21 0.28192635E+00 0.45017158E+03</pdfrwt>
<pdfrwt beam="2">  1       21 0.38863568E-02 0.45017158E+03</pdfrwt>
<totfact> 0.15216238E+04</totfact>
</mgrwt>
</event>
<event>
 7    0  0.4709932E-002  0.4566645E+03  0.7546771E-02  0.1025753E+00
         21   -1    0    0  502  501  0.00000000000E+00  0.00000000000E+00  0.10272761237E+03  0.10272761237E+03  0.00000000000E+00 0.  1.
         21   -1    0    0  501  502 -0.00000000000E+00 -0.00000000000E+00 -0.50751308459E+03  0.50751308459E+03  0.00000000000E+00 0.  1.
      99926    2    1    2    0    0  0.00000000000E+00  0.00000000000E+00 -0.40478547222E+03  0.61024069696E+03  0.45666446075E+03 0.  0.
      99925    2    3    3    0    0 -0.10024430460E+03 -0.52494165640E+02 -0.28032832175E+03  0.40061806356E+03  0.26288078447E+03 0.  0.
         25    1    4    4    0    0 -0.50593377150E+02 -0.39844482868E+02 -0.89447729302E+02  0.16672035570E+03  0.12509000000E+03 0.  0.
         25    1    4    4    0    0 -0.49650927450E+02 -0.12649682772E+02 -0.19088059245E+03  0.23389770786E+03  0.12509000000E+03 0.  0.
         25    1    3    3    0    0  0.10024430460E+03  0.52494165640E+02 -0.12445715047E+03  0.20962263340E+03  0.12509000000E+03 0.  0.
<mgrwt>
<rscale>  2 0.45666446E+03</rscale>
<asrwt>0</asrwt>
<pdfrwt beam="1">  1       21 0.15107002E-01 0.45666446E+03</pdfrwt>
<pdfrwt beam="2">  1       21 0.74634276E-01 0.45666446E+03</pdfrwt>
<totfact> 0.57295302E+04</totfact>
</mgrwt>
</event>
<event>
 7    0  0.4709932E-002  0.4558099E+03  0.7546771E-02  0.1026003E+00
         21   -1    0    0  502  501  0.00000000000E+00  0.00000000000E+00  0.39594020494E+02  0.39594020494E+02  0.00000000000E+00 0.  1.
         21   -1    0    0  501  502 -0.00000000000E+00 -0.00000000000E+00 -0.13118313266E+04  0.13118313266E+04  0.00000000000E+00 0.  1.
      99926    2    1    2    0    0  0.00000000000E+00 -0.14210854715E-13 -0.12722373061E+04  0.13514253471E+04  0.45580994473E+03 0.  0.
      99925    2    3    3    0    0  0.27161861699E+02 -0.10935139678E+03 -0.85040441387E+03  0.89723817006E+03  0.26296990698E+03 0.  0.
         25    1    4    4    0    0  0.12020528612E+02 -0.31757316814E+02 -0.50702147311E+03  0.52332714679E+03  0.12509000000E+03 0.  0.
         25    1    4    4    0    0  0.15141333086E+02 -0.77594079966E+02 -0.34338294076E+03  0.37391102326E+03  0.12509000000E+03 0.  0.
         25    1    3    3    0    0 -0.27161861699E+02  0.10935139678E+03 -0.42183289222E+03  0.45418717702E+03  0.12509000000E+03 0.  0.
<mgrwt>
<rscale>  2 0.45580994E+03</rscale>
<asrwt>0</asrwt>
<pdfrwt beam="1">  1       21 0.58226505E-02 0.45580994E+03</pdfrwt>
<pdfrwt beam="2">  1       21 0.19291636E+00 0.45580994E+03</pdfrwt>
<totfact> 0.27482229E+04</totfact>
</mgrwt>
</event>
<event>
 7    0  0.4709932E-002  0.4221626E+03  0.7546771E-02  0.1036365E+00
         21   -1    0    0  502  501  0.00000000000E+00  0.00000000000E+00  0.11475027645E+03  0.11475027645E+03  0.00000000000E+00 0. -1.
         21   -1    0    0  501  502 -0.00000000000E+00 -0.00000000000E+00 -0.38828064829E+03  0.38828064829E+03  0.00000000000E+00 0. -1.
      99926    2    1    2    0    0  0.00000000000E+00 -0.18457457784E-14 -0.27353037185E+03  0.50303092474E+03  0.42216258352E+03 0.  0.
      99925    2    3    3    0    0  0.31800852562E+02 -0.77766629139E-01 -0.26327209949E+03  0.37355490177E+03  0.26309649560E+03 0.  0.
         25    1    4    4    0    0  0.31194269051E+02 -0.26766361567E+02 -0.17109438817E+03  0.21589422942E+03  0.12509000000E+03 0.  0.
         25    1    3    3    0    0 -0.31800852562E+02  0.77766629139E-01 -0.10258272360E+02  0.12947602297E+03  0.12509000000E+03 0.  0.
         25    1    4    4    0    0  0.60658351163E+00  0.26688594937E+02 -0.92177711317E+02  0.15766067235E+03  0.12509000000E+03 0.  0.
<mgrwt>
<rscale>  2 0.42216258E+03</rscale>
<asrwt>0</asrwt>
<pdfrwt beam="1">  1       21 0.16875041E-01 0.42216258E+03</pdfrwt>
<pdfrwt beam="2">  1       21 0.57100095E-01 0.42216258E+03</pdfrwt>
<totfact> 0.85164440E+04</totfact>
</mgrwt>
</event>
<event>
 7    0  0.4709932E-002  0.4602540E+03  0.7546771E-02  0.1024708E+00
         21   -1    0    0  502  501  0.00000000000E+00  0.00000000000E+00  0.43960860031E+03  0.43960860031E+03  0.00000000000E+00 0. -1.
         21   -1    0    0  501  502 -0.00000000000E+00 -0.00000000000E+00 -0.12046725975E+03  0.12046725975E+03  0.00000000000E+00 0. -1.
      99926    2    1    2    0    0  0.14210854715E-13  0.00000000000E+00  0.31914134057E+03  0.56007586006E+03  0.46025403177E+03 0.  0.
      99925    2    3    3    0    0  0.11081781502E+03 -0.17219524198E+02  0.15515428591E+03  0.32530711781E+03  0.26301096617E+03 0.  0.
         25    1    3    3    0    0 -0.11081781502E+03  0.17219524198E+02  0.16398705466E+03  0.23476874224E+03  0.12509000000E+03 0.  0.
         25    1    4    4    0    0  0.31564998903E+02 -0.92253991427E+01  0.33799018939E+02  0.13368372723E+03  0.12509000000E+03 0.  0.
         25    1    4    4    0    0  0.79252816115E+02 -0.79941250554E+01  0.12135526697E+03  0.19162339058E+03  0.12509000000E+03 0.  0.
<mgrwt>
<rscale>  2 0.46025403E+03</rscale>
<asrwt>0</asrwt>
<pdfrwt beam="1">  1       21 0.64648323E-01 0.46025403E+03</pdfrwt>
<pdfrwt beam="2">  1       21 0.17715774E-01 0.46025403E+03</pdfrwt>
<totfact> 0.58726607E+04</totfact>
</mgrwt>
</event>
<event>
 7    0  0.4709932E-002  0.4580849E+03  0.7546771E-02  0.1025338E+00
         21   -1    0    0  502  501  0.00000000000E+00  0.00000000000E+00  0.20016052270E+03  0.20016052270E+03  0.00000000000E+00 0. -1.
         21   -1    0    0  501  502 -0.00000000000E+00 -0.00000000000E+00 -0.26209186045E+03  0.26209186045E+03  0.00000000000E+00 0. -1.
      99926    2    1    2    0    0  0.00000000000E+00  0.00000000000E+00 -0.61931337749E+02  0.46225238315E+03  0.45808489949E+03 0.  0.
      99925    2    3    3    0    0 -0.58160352375E+02 -0.12258801596E+02 -0.13943424013E+03  0.30354790060E+03  0.26299527721E+03 0.  0.
         25    1    4    4    0    0 -0.50856055939E+02 -0.65214071334E+01 -0.11102425699E+03  0.17493644822E+03  0.12509000000E+03 0.  0.
         25    1    4    4    0    0 -0.73042964363E+01 -0.57373944622E+01 -0.28409983138E+02  0.12861145238E+03  0.12509000000E+03 0.  0.
         25    1    3    3    0    0  0.58160352375E+02  0.12258801596E+02  0.77502902378E+02  0.15870448255E+03  0.12509000000E+03 0.  0.
<mgrwt>
<rscale>  2 0.45808490E+03</rscale>
<asrwt>0</asrwt>
<pdfrwt beam="1">  1       21 0.29435371E-01 0.45808490E+03</pdfrwt>
<pdfrwt beam="2">  1       21 0.38542920E-01 0.45808490E+03</pdfrwt>
<totfact> 0.66368869E+04</totfact>
</mgrwt>
</event>
<event>
 7    0  0.4709932E-002  0.4538186E+03  0.7546771E-02  0.1026589E+00
         21   -1    0    0  502  501  0.00000000000E+00  0.00000000000E+00  0.23901197221E+03  0.23901197221E+03  0.00000000000E+00 0.  1.
         21   -1    0    0  501  502 -0.00000000000E+00 -0.00000000000E+00 -0.21541947425E+03  0.21541947425E+03  0.00000000000E+00 0.  1.
      99926    2    1    2    0    0  0.00000000000E+00  0.00000000000E+00  0.23592497961E+02  0.45443144647E+03  0.45381861308E+03 0.  0.
      99925    2    3    3    0    0 -0.68348779714E+02  0.75667095484E+02 -0.31654184379E+02  0.28385369576E+03  0.26300925493E+03 0.  0.
         25    1    4    4    0    0 -0.17442339763E+02  0.61591905036E+02  0.12497236418E+02  0.14107263023E+03  0.12509000000E+03 0.  0.
         25    1    3    3    0    0  0.68348779714E+02 -0.75667095484E+02  0.55246682340E+02  0.17057775071E+03  0.12509000000E+03 0.  0.
         25    1    4    4    0    0 -0.50906439951E+02  0.14075190448E+02 -0.44151420797E+02  0.14278106553E+03  0.12509000000E+03 0.  0.
<mgrwt>
<rscale>  2 0.45381861E+03</rscale>
<asrwt>0</asrwt>
<pdfrwt beam="1">  1       21 0.35148819E-01 0.45381861E+03</pdfrwt>
<pdfrwt beam="2">  1       21 0.31679335E-01 0.45381861E+03</pdfrwt>
<totfact> 0.69237839E+04</totfact>
</mgrwt>
</event>
<event>
 7    0  0.4709932E-002  0.4495754E+03  0.7546771E-02  0.1027849E+00
         21   -1    0    0  502  501  0.00000000000E+00  0.00000000000E+00  0.15489342385E+04  0.15489342385E+04  0.00000000000E+00 0. -1.
         21   -1    0    0  501  502 -0.00000000000E+00 -0.00000000000E+00 -0.32622119086E+02  0.32622119086E+02  0.00000000000E+00 0. -1.
      99926    2    1    2    0    0  0.00000000000E+00  0.00000000000E+00  0.15163121194E+04  0.15815563576E+04  0.44957543164E+03 0.  0.
      99925    2    3    3    0    0  0.81997647409E+02  0.65500136572E+02  0.86822846186E+03  0.91321975275E+03  0.26293682276E+03 0.  0.
         25    1    4    4    0    0  0.70456223326E+01  0.54796849543E+01  0.38221599015E+03  0.40226389220E+03  0.12509000000E+03 0.  0.
         25    1    4    4    0    0  0.74952025076E+02  0.60020451617E+02  0.48601247171E+03  0.51095586056E+03  0.12509000000E+03 0.  0.
         25    1    3    3    0    0 -0.81997647409E+02 -0.65500136572E+02  0.64808365756E+03  0.66833660484E+03  0.12509000000E+03 0.  0.
<mgrwt>
<rscale>  2 0.44957543E+03</rscale>
<asrwt>0</asrwt>
<pdfrwt beam="1">  1       21 0.22778440E+00 0.44957543E+03</pdfrwt>
<pdfrwt beam="2">  1       21 0.47973715E-02 0.44957543E+03</pdfrwt>
<totfact> 0.22794420E+04</totfact>
</mgrwt>
</event>
<event>
 7    0  0.4709932E-002  0.4558757E+03  0.7546771E-02  0.1025984E+00
         21   -1    0    0  502  501  0.00000000000E+00  0.00000000000E+00  0.19821081060E+03  0.19821081060E+03  0.00000000000E+00 0.  1.
         21   -1    0    0  501  502 -0.00000000000E+00 -0.00000000000E+00 -0.26212325106E+03  0.26212325106E+03  0.00000000000E+00 0.  1.
      99926    2    1    2    0    0  0.22204460493E-14 -0.35527136788E-14 -0.63912440462E+02  0.46033406165E+03  0.45587569388E+03 0.  0.
      99925    2    3    3    0    0  0.28652526467E+01  0.30154528323E+02  0.70863570136E+02  0.27397530446E+03  0.26291313514E+03 0.  0.
         25    1    4    4    0    0 -0.19107152688E+02  0.36174795951E+02  0.72691497712E+01  0.13181065126E+03  0.12509000000E+03 0.  0.
         25    1    4    4    0    0  0.21972405335E+02 -0.60202676278E+01  0.63594420365E+02  0.14216465320E+03  0.12509000000E+03 0.  0.
         25    1    3    3    0    0 -0.28652526467E+01 -0.30154528323E+02 -0.13477601060E+03  0.18635875720E+03  0.12509000000E+03 0.  0.
<mgrwt>
<rscale>  2 0.45587569E+03</rscale>
<asrwt>0</asrwt>
<pdfrwt beam="1">  1       21 0.29148649E-01 0.45587569E+03</pdfrwt>
<pdfrwt beam="2">  1       21 0.38547537E-01 0.45587569E+03</pdfrwt>
<totfact> 0.67682344E+04</totfact>
</mgrwt>
</event>
<event>
 7    0  0.4709932E-002  0.4695120E+03  0.7546771E-02  0.1022058E+00
         21   -1    0    0  502  501  0.00000000000E+00  0.00000000000E+00  0.12137134153E+04  0.12137134153E+04  0.00000000000E+00 0.  1.
         21   -1    0    0  501  502 -0.00000000000E+00 -0.00000000000E+00 -0.45406411937E+02  0.45406411937E+02  0.00000000000E+00 0.  1.
      99926    2    1    2    0    0  0.71054273576E-14  0.00000000000E+00  0.11683070034E+04  0.12591198273E+04  0.46951196495E+03 0.  0.
      99925    2    3    3    0    0 -0.48092777162E+02  0.76756133593E+01  0.10385057020E+04  0.10723908360E+04  0.26297562938E+03 0.  0.
         25    1    4    4    0    0 -0.46876481298E+01  0.80793987907E+01  0.64854350821E+03  0.66056297267E+03  0.12509000000E+03 0.  0.
         25    1    4    4    0    0 -0.43405129032E+02 -0.40378543141E+00  0.38996219384E+03  0.41182786330E+03  0.12509000000E+03 0.  0.
         25    1    3    3    0    0  0.48092777162E+02 -0.76756133593E+01  0.12980130134E+03  0.18672899128E+03  0.12509000000E+03 0.  0.
<mgrwt>
<rscale>  2 0.46951196E+03</rscale>
<asrwt>0</asrwt>
<pdfrwt beam="1">  1       21 0.17848725E+00 0.46951196E+03</pdfrwt>
<pdfrwt beam="2">  1       21 0.66774143E-02 0.46951196E+03</pdfrwt>
<totfact> 0.27128964E+04</totfact>
</mgrwt>
</event>
<event>
 7    0  0.4709932E-002  0.4610577E+03  0.7546771E-02  0.1024475E+00
         21   -1    0    0  502  501  0.00000000000E+00  0.00000000000E+00  0.22289816566E+02  0.22289816566E+02  0.00000000000E+00 0. -1.
         21   -1    0    0  501  502 -0.00000000000E+00 -0.00000000000E+00 -0.23842076866E+04  0.23842076866E+04  0.00000000000E+00 0. -1.
      99926    2    1    2    0    0  0.00000000000E+00 -0.14210854715E-13 -0.23619178700E+04  0.24064975031E+04  0.46105770567E+03 0.  0.
      99925    2    3    3    0    0  0.43360735867E+02  0.97628414848E+02 -0.17488849887E+04  0.17717784453E+04  0.26303743936E+03 0.  0.
         25    1    4    4    0    0  0.22266340578E+02  0.71062855879E+02 -0.70465805867E+03  0.71953888509E+03  0.12509000000E+03 0.  0.
         25    1    3    3    0    0 -0.43360735867E+02 -0.97628414848E+02 -0.61303288129E+03  0.63471905789E+03  0.12509000000E+03 0.  0.
         25    1    4    4    0    0  0.21094395288E+02  0.26565558969E+02 -0.10442269300E+04  0.10522395602E+04  0.12509000000E+03 0.  0.
<mgrwt>
<rscale>  2 0.46105771E+03</rscale>
<asrwt>0</asrwt>
<pdfrwt beam="1">  1       21 0.32779122E-02 0.46105771E+03</pdfrwt>
<pdfrwt beam="2">  1       21 0.35061899E+00 0.46105771E+03</pdfrwt>
<totfact> 0.77642715E+03</totfact>
</mgrwt>
</event>
<event>
 7    0  0.4709932E-002  0.4531288E+03  0.7546771E-02  0.1026793E+00
         21   -1    0    0  502  501  0.00000000000E+00  0.00000000000E+00  0.22771175308E+02  0.22771175308E+02  0.00000000000E+00 0. -1.
         21   -1    0    0  501  502 -0.00000000000E+00 -0.00000000000E+00 -0.22542282948E+04  0.22542282948E+04  0.00000000000E+00 0. -1.
      99926    2    1    2    0    0  0.00000000000E+00  0.00000000000E+00 -0.22314571195E+04  0.22769994701E+04  0.45312880149E+03 0.  0.
      99925    2    3    3    0    0  0.42882083202E+02  0.84479384570E+02 -0.17010534478E+04  0.17238709114E+04  0.26300655356E+03 0.  0.
         25    1    3    3    0    0 -0.42882083202E+02 -0.84479384570E+02 -0.53040367162E+03  0.55312855869E+03  0.12509000000E+03 0.  0.
         25    1    4    4    0    0 -0.96872357887E+01  0.35567859206E+02 -0.64860539618E+03  0.66158550709E+03  0.12509000000E+03 0.  0.
         25    1    4    4    0    0  0.52569318991E+02  0.48911525364E+02 -0.10524480517E+04  0.10622854043E+04  0.12509000000E+03 0.  0.
<mgrwt>
<rscale>  2 0.45312880E+03</rscale>
<asrwt>0</asrwt>
<pdfrwt beam="1">  1       21 0.33487037E-02 0.45312880E+03</pdfrwt>
<pdfrwt beam="2">  1       21 0.33150402E+00 0.45312880E+03</pdfrwt>
<totfact> 0.98336337E+03</totfact>
</mgrwt>
</event>
<event>
 7    0  0.4709932E-002  0.4553150E+03  0.7546771E-02  0.1026149E+00
         21   -1    0    0  502  501  0.00000000000E+00  0.00000000000E+00  0.79403800780E+03  0.79403800780E+03  0.00000000000E+00 0.  1.
         21   -1    0    0  501  502 -0.00000000000E+00 -0.00000000000E+00 -0.65271354733E+02  0.65271354733E+02  0.00000000000E+00 0.  1.
      99926    2    1    2    0    0  0.71054273576E-14  0.00000000000E+00  0.72876665307E+03  0.85930936253E+03  0.45531499636E+03 0.  0.
      99925    2    3    3    0    0  0.60139301849E+02 -0.19919637579E+02  0.63594826040E+03  0.69115381043E+03  0.26315370445E+03 0.  0.
         25    1    3    3    0    0 -0.60139301849E+02  0.19919637579E+02  0.92818392664E+02  0.16815555211E+03  0.12509000000E+03 0.  0.
         25    1    4    4    0    0  0.20863837848E+02  0.24552043812E+02  0.25548654487E+03  0.28628479752E+03  0.12509000000E+03 0.  0.
         25    1    4    4    0    0  0.39275464001E+02 -0.44471681391E+02  0.38046171554E+03  0.40486901290E+03  0.12509000000E+03 0.  0.
<mgrwt>
<rscale>  2 0.45531500E+03</rscale>
<asrwt>0</asrwt>
<pdfrwt beam="1">  1       21 0.11677029E+00 0.45531500E+03</pdfrwt>
<pdfrwt beam="2">  1       21 0.95987291E-02 0.45531500E+03</pdfrwt>
<totfact> 0.44914667E+04</totfact>
</mgrwt>
</event>
<event>
 7    0  0.4709932E-002  0.4438702E+03  0.7546771E-02  0.1029566E+00
         21   -1    0    0  502  501  0.00000000000E+00  0.00000000000E+00  0.47755475490E+02  0.47755475490E+02  0.00000000000E+00 0.  1.
         21   -1    0    0  501  502 -0.00000000000E+00 -0.00000000000E+00 -0.10314041497E+04  0.10314041497E+04  0.00000000000E+00 0.  1.
      99926    2    1    2    0    0  0.17763568394E-14  0.00000000000E+00 -0.98364867421E+03  0.10791596252E+04  0.44387023145E+03 0.  0.
      99925    2    3    3    0    0 -0.80032037140E+01 -0.96623939388E+02 -0.54793424355E+03  0.61559214346E+03  0.26328979263E+03 0.  0.
         25    1    3    3    0    0  0.80032037140E+01  0.96623939388E+02 -0.43571443066E+03  0.46356748173E+03  0.12509000000E+03 0.  0.
         25    1    4    4    0    0 -0.38450112728E+02 -0.72332373745E+02 -0.29686842456E+03  0.33239848534E+03  0.12509000000E+03 0.  0.
         25    1    4    4    0    0  0.30446909014E+02 -0.24291565643E+02 -0.25106581900E+03  0.28319365812E+03  0.12509000000E+03 0.  0.
<mgrwt>
<rscale>  2 0.44387023E+03</rscale>
<asrwt>0</asrwt>
<pdfrwt beam="1">  1       21 0.70228637E-02 0.44387023E+03</pdfrwt>
<pdfrwt beam="2">  1       21 0.15167709E+00 0.44387023E+03</pdfrwt>
<totfact> 0.39549884E+04</totfact>
</mgrwt>
</event>
<event>
 7    0  0.4709932E-002  0.4564574E+03  0.7546771E-02  0.1025814E+00
         21   -1    0    0  502  501  0.00000000000E+00  0.00000000000E+00  0.35442512666E+03  0.35442512666E+03  0.00000000000E+00 0. -1.
         21   -1    0    0  501  502 -0.00000000000E+00 -0.00000000000E+00 -0.14696572067E+03  0.14696572067E+03  0.00000000000E+00 0. -1.
      99926    2    1    2    0    0 -0.44408920985E-15  0.00000000000E+00  0.20745940599E+03  0.50139084733E+03  0.45645742041E+03 0.  0.
      99925    2    3    3    0    0  0.37053101889E+01  0.85846464646E+02  0.47026362936E+02  0.28055241268E+03  0.26289700004E+03 0.  0.
         25    1    3    3    0    0 -0.37053101889E+01 -0.85846464646E+02  0.16043304306E+03  0.22083843465E+03  0.12509000000E+03 0.  0.
         25    1    4    4    0    0  0.12170490378E+01  0.79171065784E+02  0.46780947011E+02  0.15525947304E+03  0.12509000000E+03 0.  0.
         25    1    4    4    0    0  0.24882611510E+01  0.66753988620E+01  0.24541592542E+00  0.12529293964E+03  0.12509000000E+03 0.  0.
<mgrwt>
<rscale>  2 0.45645742E+03</rscale>
<asrwt>0</asrwt>
<pdfrwt beam="1">  1       21 0.52121342E-01 0.45645742E+03</pdfrwt>
<pdfrwt beam="2">  1       21 0.21612606E-01 0.45645742E+03</pdfrwt>
<totfact> 0.64424503E+04</totfact>
</mgrwt>
</event>
<event>
 7    0  0.4709932E-002  0.4589829E+03  0.7546771E-02  0.1025077E+00
         21   -1    0    0  502  501  0.00000000000E+00  0.00000000000E+00  0.17858523207E+04  0.17858523207E+04  0.00000000000E+00 0.  1.
         21   -1    0    0  501  502 -0.00000000000E+00 -0.00000000000E+00 -0.29490859865E+02  0.29490859865E+02  0.00000000000E+00 0.  1.
      99926    2    1    2    0    0  0.71054273576E-14  0.00000000000E+00  0.17563614609E+04  0.18153431806E+04  0.45898287781E+03 0.  0.
      99925    2    3    3    0    0  0.56556483000E+02  0.13132572434E+02  0.15019020320E+04  0.15259157989E+04  0.26332149821E+03 0.  0.
         25    1    3    3    0    0 -0.56556483000E+02 -0.13132572434E+02  0.25445942885E+03  0.28942738166E+03  0.12509000000E+03 0.  0.
         25    1    4    4    0    0  0.68681145874E+02  0.40244696521E+01  0.85891276227E+03  0.87069623718E+03  0.12509000000E+03 0.  0.
         25    1    4    4    0    0 -0.12124662873E+02  0.91081027821E+01  0.64298926975E+03  0.65521956175E+03  0.12509000000E+03 0.  0.
<mgrwt>
<rscale>  2 0.45898288E+03</rscale>
<asrwt>0</asrwt>
<pdfrwt beam="1">  1       21 0.26262527E+00 0.45898288E+03</pdfrwt>
<pdfrwt beam="2">  1       21 0.43368924E-02 0.45898288E+03</pdfrwt>
<totfact> 0.16451900E+04</totfact>
</mgrwt>
</event>
<event>
 7    0  0.4709932E-002  0.4522857E+03  0.7546771E-02  0.1027043E+00
         21   -1    0    0  502  501  0.00000000000E+00  0.00000000000E+00  0.26563546857E+03  0.26563546857E+03  0.00000000000E+00 0. -1.
         21   -1    0    0  501  502 -0.00000000000E+00 -0.00000000000E+00 -0.19252170998E+03  0.19252170998E+03  0.00000000000E+00 0. -1.
      99926    2    1    2    0    0  0.00000000000E+00 -0.35527136788E-14  0.73113758592E+02  0.45815717855E+03  0.45228572668E+03 0.  0.
      99925    2    3    3    0    0  0.45448277842E+02  0.23240146854E+02  0.14497203904E+03  0.30513178538E+03  0.26359602418E+03 0.  0.
         25    1    4    4    0    0  0.19614224064E+02  0.50090501757E+02  0.56341702023E+02  0.14736238203E+03  0.12509000000E+03 0.  0.
         25    1    3    3    0    0 -0.45448277842E+02 -0.23240146854E+02 -0.71858280446E+02  0.15302539317E+03  0.12509000000E+03 0.  0.
         25    1    4    4    0    0  0.25834053778E+02 -0.26850354903E+02  0.88630337015E+02  0.15776940335E+03  0.12509000000E+03 0.  0.
<mgrwt>
<rscale>  2 0.45228573E+03</rscale>
<asrwt>0</asrwt>
<pdfrwt beam="1">  1       21 0.39064040E-01 0.45228573E+03</pdfrwt>
<pdfrwt beam="2">  1       21 0.28312016E-01 0.45228573E+03</pdfrwt>
<totfact> 0.69813962E+04</totfact>
</mgrwt>
</event>
<event>
 7    0  0.4709932E-002  0.4522549E+03  0.7546771E-02  0.1027052E+00
         21   -1    0    0  502  501  0.00000000000E+00  0.00000000000E+00  0.12483342938E+04  0.12483342938E+04  0.00000000000E+00 0.  1.
         21   -1    0    0  501  502 -0.00000000000E+00 -0.00000000000E+00 -0.40961475829E+02  0.40961475829E+02  0.00000000000E+00 0.  1.
      99926    2    1    2    0    0  0.00000000000E+00  0.00000000000E+00  0.12073728180E+04  0.12892957696E+04  0.45225486179E+03 0.  0.
      99925    2    3    3    0    0  0.33243154383E+02 -0.59674571306E+02  0.51343663597E+03  0.58087421818E+03  0.26292872877E+03 0.  0.
         25    1    4    4    0    0 -0.22721945166E+02 -0.20653141207E+02  0.22871833247E+03  0.26249270988E+03  0.12509000000E+03 0.  0.
         25    1    3    3    0    0 -0.33243154383E+02  0.59674571306E+02  0.69393618202E+03  0.70842155147E+03  0.12509000000E+03 0.  0.
         25    1    4    4    0    0  0.55965099549E+02 -0.39021430099E+02  0.28471830351E+03  0.31838150830E+03  0.12509000000E+03 0.  0.
<mgrwt>
<rscale>  2 0.45225486E+03</rscale>
<asrwt>0</asrwt>
<pdfrwt beam="1">  1       21 0.18357855E+00 0.45225486E+03</pdfrwt>
<pdfrwt beam="2">  1       21 0.60237473E-02 0.45225486E+03</pdfrwt>
<totfact> 0.30063991E+04</totfact>
</mgrwt>
</event>
<event>
 7    0  0.4709932E-002  0.4628636E+03  0.7546771E-02  0.1023954E+00
         21   -1    0    0  502  501  0.00000000000E+00  0.00000000000E+00  0.40941181929E+03  0.40941181929E+03  0.00000000000E+00 0.  1.
         21   -1    0    0  501  502 -0.00000000000E+00 -0.00000000000E+00 -0.13082348135E+03  0.13082348135E+03  0.00000000000E+00 0.  1.
      99926    2    1    2    0    0  0.00000000000E+00  0.14210854715E-13  0.27858833794E+03  0.54023530063E+03  0.46286360627E+03 0.  0.
      99925    2    3    3    0    0 -0.17409694856E+02 -0.75756503643E+02  0.66657204330E+02  0.28215690399E+03  0.26292050179E+03 0.  0.
         25    1    4    4    0    0 -0.25122701898E+02 -0.76495533839E+02  0.32819050489E+02  0.15233947296E+03  0.12509000000E+03 0.  0.
         25    1    4    4    0    0  0.77130070414E+01  0.73903019563E+00  0.33838153841E+02  0.12981743103E+03  0.12509000000E+03 0.  0.
         25    1    3    3    0    0  0.17409694856E+02  0.75756503643E+02  0.21193113361E+03  0.25807839664E+03  0.12509000000E+03 0.  0.
<mgrwt>
<rscale>  2 0.46286361E+03</rscale>
<asrwt>0</asrwt>
<pdfrwt beam="1">  1       21 0.60207620E-01 0.46286361E+03</pdfrwt>
<pdfrwt beam="2">  1       21 0.19238747E-01 0.46286361E+03</pdfrwt>
<totfact> 0.58770147E+04</totfact>
</mgrwt>
</event>
<event>
 7    0  0.4709932E-002  0.4608073E+03  0.7546771E-02  0.1024547E+00
         21   -1    0    0  502  501  0.00000000000E+00  0.00000000000E+00  0.82147297144E+02  0.82147297144E+02  0.00000000000E+00 0. -1.
         21   -1    0    0  501  502 -0.00000000000E+00 -0.00000000000E+00 -0.64622738857E+03  0.64622738857E+03  0.00000000000E+00 0. -1.
      99926    2    1    2    0    0 -0.35527136788E-14  0.14210854715E-13 -0.56408009143E+03  0.72837468571E+03  0.46080726258E+03 0.  0.
      99925    2    3    3    0    0  0.21794678542E+02 -0.69755699514E+02 -0.50062406999E+03  0.57021324798E+03  0.26301677342E+03 0.  0.
         25    1    4    4    0    0  0.24919963581E+02 -0.95365158186E+01 -0.30091506905E+03  0.32696993226E+03  0.12509000000E+03 0.  0.
         25    1    3    3    0    0 -0.21794678542E+02  0.69755699514E+02 -0.63456021441E+02  0.15816143773E+03  0.12509000000E+03 0.  0.
         25    1    4    4    0    0 -0.31252850389E+01 -0.60219183695E+02 -0.19970900093E+03  0.24324331572E+03  0.12509000000E+03 0.  0.
<mgrwt>
<rscale>  2 0.46080726E+03</rscale>
<asrwt>0</asrwt>
<pdfrwt beam="1">  1       21 0.12080485E-01 0.46080726E+03</pdfrwt>
<pdfrwt beam="2">  1       21 0.95033438E-01 0.46080726E+03</pdfrwt>
<totfact> 0.49107977E+04</totfact>
</mgrwt>
</event>
<event>
 7    0  0.4709932E-002  0.4585959E+03  0.7546771E-02  0.1025189E+00
         21   -1    0    0  502  501  0.00000000000E+00  0.00000000000E+00  0.30851159812E+03  0.30851159812E+03  0.00000000000E+00 0. -1.
         21   -1    0    0  501  502 -0.00000000000E+00 -0.00000000000E+00 -0.17042327799E+03  0.17042327799E+03  0.00000000000E+00 0. -1.
      99926    2    1    2    0    0  0.35527136788E-14 -0.14210854715E-13  0.13808832013E+03  0.47893487611E+03  0.45859593478E+03 0.  0.
      99925    2    3    3    0    0 -0.31945645066E+02  0.10170515686E+03  0.37542006652E+02  0.28626538598E+03  0.26300951652E+03 0.  0.
         25    1    4    4    0    0 -0.26505670407E+02  0.20353954442E+02 -0.92029966868E+01  0.12980384152E+03  0.12509000000E+03 0.  0.
         25    1    4    4    0    0 -0.54399746595E+01  0.81351202419E+02  0.46745003339E+02  0.15646154447E+03  0.12509000000E+03 0.  0.
         25    1    3    3    0    0  0.31945645066E+02 -0.10170515686E+03  0.10054631347E+03  0.19266949012E+03  0.12509000000E+03 0.  0.
<mgrwt>
<rscale>  2 0.45859593E+03</rscale>
<asrwt>0</asrwt>
<pdfrwt beam="1">  1       21 0.45369353E-01 0.45859593E+03</pdfrwt>
<pdfrwt beam="2">  1       21 0.25062247E-01 0.45859593E+03</pdfrwt>
<totfact> 0.64905493E+04</totfact>
</mgrwt>
</event>
<event>
 7    0  0.4709932E-002  0.4549675E+03  0.7546771E-02  0.1026251E+00
         21   -1    0    0  502  501  0.00000000000E+00  0.00000000000E+00  0.13085510162E+04  0.13085510162E+04  0.00000000000E+00 0.  1.
         21   -1    0    0  501  502 -0.00000000000E+00 -0.00000000000E+00 -0.39546690022E+02  0.39546690022E+02  0.00000000000E+00 0.  1.
      99926    2    1    2    0    0  0.00000000000E+00  0.00000000000E+00  0.12690043262E+04  0.13480977063E+04  0.45496752156E+03 0.  0.
      99925    2    3    3    0    0  0.28640448063E+02  0.10866870622E+03  0.83644350525E+03  0.88400123471E+03  0.26304235877E+03 0.  0.
         25    1    4    4    0    0  0.30531198746E+02  0.82573307626E+02  0.53855781456E+03  0.55985938677E+03  0.12509000000E+03 0.  0.
         25    1    4    4    0    0 -0.18907506833E+01  0.26095398590E+02  0.29788569069E+03  0.32414184794E+03  0.12509000000E+03 0.  0.
         25    1    3    3    0    0 -0.28640448063E+02 -0.10866870622E+03  0.43256082098E+03  0.46409647157E+03  0.12509000000E+03 0.  0.
<mgrwt>
<rscale>  2 0.45496752E+03</rscale>
<asrwt>0</asrwt>
<pdfrwt beam="1">  1       21 0.19243394E+00 0.45496752E+03</pdfrwt>
<pdfrwt beam="2">  1       21 0.58156906E-02 0.45496752E+03</pdfrwt>
<totfact> 0.27755513E+04</totfact>
</mgrwt>
</event>
<event>
 7    0  0.4709932E-002  0.4571771E+03  0.7546771E-02  0.1025603E+00
         21   -1    0    0  502  501  0.00000000000E+00  0.00000000000E+00  0.15858074327E+02  0.15858074327E+02  0.00000000000E+00 0.  1.
         21   -1    0    0  501  502 -0.00000000000E+00 -0.00000000000E+00 -0.32950228474E+04  0.32950228474E+04  0.00000000000E+00 0.  1.
      99926    2    1    2    0    0  0.00000000000E+00  0.00000000000E+00 -0.32791647731E+04  0.33108809217E+04  0.45717706515E+03 0.  0.
      99925    2    3    3    0    0 -0.72984030950E+02  0.59923078478E+02 -0.15749577277E+04  0.15994819017E+04  0.26255107266E+03 0.  0.
         25    1    4    4    0    0 -0.45780622176E+02  0.97664135691E+01 -0.58699269899E+03  0.60199600079E+03  0.12509000000E+03 0.  0.
         25    1    3    3    0    0  0.72984030950E+02 -0.59923078478E+02 -0.17042070454E+04  0.17113990200E+04  0.12509000000E+03 0.  0.
         25    1    4    4    0    0 -0.27203408775E+02  0.50156664909E+02 -0.98796502872E+03  0.99748590093E+03  0.12509000000E+03 0.  0.
<mgrwt>
<rscale>  2 0.45717707E+03</rscale>
<asrwt>0</asrwt>
<pdfrwt beam="1">  1       21 0.23320720E-02 0.45717707E+03</pdfrwt>
<pdfrwt beam="2">  1       21 0.48456171E+00 0.45717707E+03</pdfrwt>
<totfact> 0.18251649E+03</totfact>
</mgrwt>
</event>
<event>
 7    0  0.4709932E-002  0.4529304E+03  0.7546771E-02  0.1026852E+00
         21   -1    0    0  502  501  0.00000000000E+00  0.00000000000E+00  0.34406972952E+02  0.34406972952E+02  0.00000000000E+00 0.  1.
         21   -1    0    0  501  502 -0.00000000000E+00 -0.00000000000E+00 -0.14905842501E+04  0.14905842501E+04  0.00000000000E+00 0.  1.
      99926    2    1    2    0    0  0.00000000000E+00  0.00000000000E+00 -0.14561772772E+04  0.15249912231E+04  0.45293042281E+03 0.  0.
      99925    2    3    3    0    0  0.14358542196E+02  0.77039897775E+02 -0.65217888000E+03  0.70755483758E+03  0.26297384485E+03 0.  0.
         25    1    4    4    0    0  0.34692251159E+02  0.15700340249E+02 -0.36509332309E+03  0.38780239251E+03  0.12509000000E+03 0.  0.
         25    1    4    4    0    0 -0.20333708963E+02  0.61339557526E+02 -0.28708555691E+03  0.31975244506E+03  0.12509000000E+03 0.  0.
         25    1    3    3    0    0 -0.14358542196E+02 -0.77039897775E+02 -0.80399839719E+03  0.81743638552E+03  0.12509000000E+03 0.  0.
<mgrwt>
<rscale>  2 0.45293042E+03</rscale>
<asrwt>0</asrwt>
<pdfrwt beam="1">  1       21 0.50598506E-02 0.45293042E+03</pdfrwt>
<pdfrwt beam="2">  1       21 0.21920350E+00 0.45293042E+03</pdfrwt>
<totfact> 0.23549497E+04</totfact>
</mgrwt>
</event>
<event>
 7    0  0.4709932E-002  0.4573207E+03  0.7546771E-02  0.1025561E+00
         21   -1    0    0  502  501  0.00000000000E+00  0.00000000000E+00  0.13265778339E+03  0.13265778339E+03  0.00000000000E+00 0.  1.
         21   -1    0    0  501  502 -0.00000000000E+00 -0.00000000000E+00 -0.39413869331E+03  0.39413869331E+03  0.00000000000E+00 0.  1.
      99926    2    1    2    0    0  0.00000000000E+00  0.00000000000E+00 -0.26148090992E+03  0.52679647670E+03  0.45732074260E+03 0.  0.
      99925    2    3    3    0    0  0.35035917781E+01 -0.21783119705E+02 -0.34125216404E+02  0.26636433788E+03  0.26324636871E+03 0.  0.
         25    1    3    3    0    0 -0.35035917781E+01  0.21783119705E+02 -0.22735569351E+03  0.26043213882E+03  0.12509000000E+03 0.  0.
         25    1    4    4    0    0 -0.18611844671E+01 -0.16503509872E+02 -0.57859609780E+02  0.13882028811E+03  0.12509000000E+03 0.  0.
         25    1    4    4    0    0  0.53647762452E+01 -0.52796098336E+01  0.23734393375E+02  0.12754404978E+03  0.12509000000E+03 0.  0.
<mgrwt>
<rscale>  2 0.45732074E+03</rscale>
<asrwt>0</asrwt>
<pdfrwt beam="1">  1       21 0.19508498E-01 0.45732074E+03</pdfrwt>
<pdfrwt beam="2">  1       21 0.57961572E-01 0.45732074E+03</pdfrwt>
<totfact> 0.62270417E+04</totfact>
</mgrwt>
</event>
<event>
 7    0  0.4709932E-002  0.4771790E+03  0.7546771E-02  0.1019913E+00
         21   -1    0    0  502  501  0.00000000000E+00  0.00000000000E+00  0.12509891036E+03  0.12509891036E+03  0.00000000000E+00 0.  1.
         21   -1    0    0  501  502 -0.00000000000E+00 -0.00000000000E+00 -0.45503943656E+03  0.45503943656E+03  0.00000000000E+00 0.  1.
      99926    2    1    2    0    0  0.00000000000E+00  0.00000000000E+00 -0.32994052620E+03  0.58013834693E+03  0.47717895044E+03 0.  0.
      99925    2    3    3    0    0  0.62803136383E+02  0.84681070635E+02 -0.10521752331E+03  0.30217602252E+03  0.26291539268E+03 0.  0.
         25    1    4    4    0    0  0.68167483753E+02  0.37389769942E+02 -0.73621473986E+02  0.16465852626E+03  0.12509000000E+03 0.  0.
         25    1    3    3    0    0 -0.62803136383E+02 -0.84681070635E+02 -0.22472300289E+03  0.27796232441E+03  0.12509000000E+03 0.  0.
         25    1    4    4    0    0 -0.53643473701E+01  0.47291300693E+02 -0.31596049324E+02  0.13751749626E+03  0.12509000000E+03 0.  0.
<mgrwt>
<rscale>  2 0.47717895E+03</rscale>
<asrwt>0</asrwt>
<pdfrwt beam="1">  1       21 0.18396899E-01 0.47717895E+03</pdfrwt>
<pdfrwt beam="2">  1       21 0.66917563E-01 0.47717895E+03</pdfrwt>
<totfact> 0.50468315E+04</totfact>
</mgrwt>
</event>
<event>
 7    0  0.4709932E-002  0.4536878E+03  0.7546771E-02  0.1026628E+00
         21   -1    0    0  502  501  0.00000000000E+00  0.00000000000E+00  0.19906807692E+03  0.19906807692E+03  0.00000000000E+00 0. -1.
         21   -1    0    0  501  502 -0.00000000000E+00 -0.00000000000E+00 -0.25849527080E+03  0.25849527080E+03  0.00000000000E+00 0. -1.
      99926    2    1    2    0    0  0.00000000000E+00  0.35527136788E-14 -0.59427193876E+02  0.45756334773E+03  0.45368780655E+03 0.  0.
      99925    2    3    3    0    0  0.11008097916E+03  0.19527390980E+02 -0.41785995292E+02  0.28886876880E+03  0.26305884363E+03 0.  0.
         25    1    4    4    0    0  0.65105559589E+02 -0.28814713730E+02 -0.12962808615E+02  0.14451492699E+03  0.12509000000E+03 0.  0.
         25    1    3    3    0    0 -0.11008097916E+03 -0.19527390980E+02 -0.17641198585E+02  0.16869457893E+03  0.12509000000E+03 0.  0.
         25    1    4    4    0    0  0.44975419574E+02  0.48342104711E+02 -0.28823186677E+02  0.14435384181E+03  0.12509000000E+03 0.  0.
<mgrwt>
<rscale>  2 0.45368781E+03</rscale>
<asrwt>0</asrwt>
<pdfrwt beam="1">  1       21 0.29274717E-01 0.45368781E+03</pdfrwt>
<pdfrwt beam="2">  1       21 0.38014010E-01 0.45368781E+03</pdfrwt>
<totfact> 0.69078549E+04</totfact>
</mgrwt>
</event>
<event>
 7    0  0.4709932E-002  0.4560340E+03  0.7546771E-02  0.1025938E+00
         21   -1    0    0  502  501  0.00000000000E+00  0.00000000000E+00  0.14510050526E+04  0.14510050526E+04  0.00000000000E+00 0. -1.
         21   -1    0    0  501  502 -0.00000000000E+00 -0.00000000000E+00 -0.35831546534E+02  0.35831546534E+02  0.00000000000E+00 0. -1.
      99926    2    1    2    0    0 -0.28421709430E-13  0.00000000000E+00  0.14151735060E+04  0.14868365991E+04  0.45603401217E+03 0.  0.
      99925    2    3    3    0    0  0.87188990817E+02  0.25309298888E+02  0.66715930018E+03  0.72302036401E+03  0.26346619181E+03 0.  0.
         25    1    4    4    0    0  0.16407713229E+01  0.11087503376E+02  0.27344075217E+03  0.30090360236E+03  0.12509000000E+03 0.  0.
         25    1    4    4    0    0  0.85548219494E+02  0.14221795512E+02  0.39371854801E+03  0.42211676165E+03  0.12509000000E+03 0.  0.
         25    1    3    3    0    0 -0.87188990817E+02 -0.25309298888E+02  0.74801420586E+03  0.76381623510E+03  0.12509000000E+03 0.  0.
<mgrwt>
<rscale>  2 0.45603401E+03</rscale>
<asrwt>0</asrwt>
<pdfrwt beam="1">  1       21 0.21338306E+00 0.45603401E+03</pdfrwt>
<pdfrwt beam="2">  1       21 0.52693460E-02 0.45603401E+03</pdfrwt>
<totfact> 0.23910970E+04</totfact>
</mgrwt>
</event>
<event>
 7    0  0.4709932E-002  0.4586138E+03  0.7546771E-02  0.1025184E+00
         21   -1    0    0  502  501  0.00000000000E+00  0.00000000000E+00  0.14281596844E+03  0.14281596844E+03  0.00000000000E+00 0.  1.
         21   -1    0    0  501  502 -0.00000000000E+00 -0.00000000000E+00 -0.36817771369E+03  0.36817771369E+03  0.00000000000E+00 0.  1.
      99926    2    1    2    0    0 -0.22204460493E-14  0.00000000000E+00 -0.22536174525E+03  0.51099368213E+03  0.45861381026E+03 0.  0.
      99925    2    3    3    0    0  0.25997119846E+01 -0.47500642256E+02 -0.22444452460E+02  0.26791755140E+03  0.26270323825E+03 0.  0.
         25    1    4    4    0    0 -0.28331497517E+02 -0.12660252920E+02  0.13750134101E+02  0.12961300106E+03  0.12509000000E+03 0.  0.
         25    1    3    3    0    0 -0.25997119846E+01  0.47500642256E+02 -0.20291729279E+03  0.24307613073E+03  0.12509000000E+03 0.  0.
         25    1    4    4    0    0  0.30931209501E+02 -0.34840389335E+02 -0.36194586560E+02  0.13830455035E+03  0.12509000000E+03 0.  0.
<mgrwt>
<rscale>  2 0.45861381E+03</rscale>
<asrwt>0</asrwt>
<pdfrwt beam="1">  1       21 0.21002348E-01 0.45861381E+03</pdfrwt>
<pdfrwt beam="2">  1       21 0.54143781E-01 0.45861381E+03</pdfrwt>
<totfact> 0.62687681E+04</totfact>
</mgrwt>
</event>
<event>
 7    0  0.4709932E-002  0.4508715E+03  0.7546771E-02  0.1027462E+00
         21   -1    0    0  502  501  0.00000000000E+00  0.00000000000E+00  0.11160693525E+04  0.11160693525E+04  0.00000000000E+00 0. -1.
         21   -1    0    0  501  502 -0.00000000000E+00 -0.00000000000E+00 -0.45535958253E+02  0.45535958253E+02  0.00000000000E+00 0. -1.
      99926    2    1    2    0    0 -0.53290705182E-14  0.00000000000E+00  0.10705333942E+04  0.11616053107E+04  0.45087154465E+03 0.  0.
      99925    2    3    3    0    0 -0.12641871548E+02  0.16084620747E+02  0.95269959376E+03  0.98854218765E+03  0.26298404679E+03 0.  0.
         25    1    3    3    0    0  0.12641871548E+02 -0.16084620747E+02  0.11783380047E+03  0.17306312309E+03  0.12509000000E+03 0.  0.
         25    1    4    4    0    0  0.32269859029E+02  0.19905254761E+02  0.48627142643E+03  0.50353249272E+03  0.12509000000E+03 0.  0.
         25    1    4    4    0    0 -0.44911730577E+02 -0.38206340141E+01  0.46642816734E+03  0.48500969493E+03  0.12509000000E+03 0.  0.
<mgrwt>
<rscale>  2 0.45087154E+03</rscale>
<asrwt>0</asrwt>
<pdfrwt beam="1">  1       21 0.16412783E+00 0.45087154E+03</pdfrwt>
<pdfrwt beam="2">  1       21 0.66964652E-02 0.45087154E+03</pdfrwt>
<totfact> 0.34493692E+04</totfact>
</mgrwt>
</event>
<event>
 7    0  0.4709932E-002  0.4536032E+03  0.7546771E-02  0.1026653E+00
         21   -1    0    0  502  501  0.00000000000E+00  0.00000000000E+00  0.89085840297E+02  0.89085840297E+02  0.00000000000E+00 0.  1.
         21   -1    0    0  501  502 -0.00000000000E+00 -0.00000000000E+00 -0.57740905497E+03  0.57740905497E+03  0.00000000000E+00 0.  1.
      99926    2    1    2    0    0  0.14210854715E-13  0.35527136788E-14 -0.48832321468E+03  0.66649489527E+03  0.45360322246E+03 0.  0.
      99925    2    3    3    0    0 -0.81418435515E+02  0.99089456767E+01 -0.41944272164E+03  0.50181587637E+03  0.26298256252E+03 0.  0.
         25    1    3    3    0    0  0.81418435515E+02 -0.99089456767E+01 -0.68880493033E+02  0.16467901890E+03  0.12509000000E+03 0.  0.
         25    1    4    4    0    0 -0.67670583249E+02 -0.25708386864E+02 -0.21154204042E+03  0.25619869625E+03  0.12509000000E+03 0.  0.
         25    1    4    4    0    0 -0.13747852265E+02  0.35617332540E+02 -0.20790068122E+03  0.24561718012E+03  0.12509000000E+03 0.  0.
<mgrwt>
<rscale>  2 0.45360322E+03</rscale>
<asrwt>0</asrwt>
<pdfrwt beam="1">  1       21 0.13100859E-01 0.45360322E+03</pdfrwt>
<pdfrwt beam="2">  1       21 0.84913099E-01 0.45360322E+03</pdfrwt>
<totfact> 0.55367159E+04</totfact>
</mgrwt>
</event>
<event>
 7    0  0.4709932E-002  0.4277873E+03  0.7546771E-02  0.1034561E+00
         21   -1    0    0  502  501  0.00000000000E+00  0.00000000000E+00  0.41706812225E+03  0.41706812225E+03  0.00000000000E+00 0. -1.
         21   -1    0    0  501  502 -0.00000000000E+00 -0.00000000000E+00 -0.10969547216E+03  0.10969547216E+03  0.00000000000E+00 0. -1.
      99926    2    1    2    0    0  0.71054273576E-14  0.00000000000E+00  0.30737265009E+03  0.52676359441E+03  0.42778725831E+03 0.  0.
      99925    2    3    3    0    0  0.62057929005E+02 -0.52156281108E+02  0.16697951852E+03  0.32199737722E+03  0.26311344914E+03 0.  0.
         25    1    3    3    0    0 -0.62057929005E+02  0.52156281108E+02  0.14039313156E+03  0.20476621719E+03  0.12509000000E+03 0.  0.
         25    1    4    4    0    0  0.40360217297E+02 -0.61612586236E+02  0.65812197142E+02  0.15938573122E+03  0.12509000000E+03 0.  0.
         25    1    4    4    0    0  0.21697711708E+02  0.94563051278E+01  0.10116732138E+03  0.16261164600E+03  0.12509000000E+03 0.  0.
<mgrwt>
<rscale>  2 0.42778726E+03</rscale>
<asrwt>0</asrwt>
<pdfrwt beam="1">  1       21 0.61333547E-01 0.42778726E+03</pdfrwt>
<pdfrwt beam="2">  1       21 0.16131687E-01 0.42778726E+03</pdfrwt>
<totfact> 0.79151055E+04</totfact>
</mgrwt>
</event>
<event>
 7    0  0.4709932E-002  0.4524221E+03  0.7546771E-02  0.1027002E+00
         21   -1    0    0  502  501  0.00000000000E+00  0.00000000000E+00  0.24709777105E+03  0.24709777105E+03  0.00000000000E+00 0. -1.
         21   -1    0    0  501  502 -0.00000000000E+00 -0.00000000000E+00 -0.20708982712E+03  0.20708982712E+03  0.00000000000E+00 0. -1.
      99926    2    1    2    0    0  0.00000000000E+00  0.00000000000E+00  0.40007943931E+02  0.45418759817E+03  0.45242208031E+03 0.  0.
      99925    2    3    3    0    0  0.96346629083E+02 -0.38748582197E+02 -0.13374051142E+02  0.28306988706E+03  0.26299347931E+03 0.  0.
         25    1    3    3    0    0 -0.96346629083E+02  0.38748582197E+02  0.53381995073E+02  0.17111771111E+03  0.12509000000E+03 0.  0.
         25    1    4    4    0    0  0.68487535646E+01 -0.11819330366E+02  0.44123184199E+01  0.12591099495E+03  0.12509000000E+03 0.  0.
         25    1    4    4    0    0  0.89497875518E+02 -0.26929251830E+02 -0.17786369562E+02  0.15715889211E+03  0.12509000000E+03 0.  0.
<mgrwt>
<rscale>  2 0.45242208E+03</rscale>
<asrwt>0</asrwt>
<pdfrwt beam="1">  1       21 0.36337907E-01 0.45242208E+03</pdfrwt>
<pdfrwt beam="2">  1       21 0.30454386E-01 0.45242208E+03</pdfrwt>
<totfact> 0.70034821E+04</totfact>
</mgrwt>
</event>
<event>
 7    0  0.4709932E-002  0.4460247E+03  0.7546771E-02  0.1028914E+00
         21   -1    0    0  502  501  0.00000000000E+00  0.00000000000E+00  0.20708626650E+03  0.20708626650E+03  0.00000000000E+00 0.  1.
         21   -1    0    0  501  502 -0.00000000000E+00 -0.00000000000E+00 -0.24016325718E+03  0.24016325718E+03  0.00000000000E+00 0.  1.
      99926    2    1    2    0    0  0.00000000000E+00  0.00000000000E+00 -0.33076990687E+02  0.44724952368E+03  0.44602471806E+03 0.  0.
      99925    2    3    3    0    0 -0.59509977755E+02  0.61260484198E+02 -0.81438554421E+02  0.28825067675E+03  0.26298655883E+03 0.  0.
         25    1    3    3    0    0  0.59509977755E+02 -0.61260484198E+02  0.48361563733E+02  0.15899884692E+03  0.12509000000E+03 0.  0.
         25    1    4    4    0    0 -0.59472788435E+02  0.60805657967E+02 -0.49279457231E+02  0.15909215446E+03  0.12509000000E+03 0.  0.
         25    1    4    4    0    0 -0.37189319846E-01  0.45482623071E+00 -0.32159097190E+02  0.12915852230E+03  0.12509000000E+03 0.  0.
<mgrwt>
<rscale>  2 0.44602472E+03</rscale>
<asrwt>0</asrwt>
<pdfrwt beam="1">  1       21 0.30453863E-01 0.44602472E+03</pdfrwt>
<pdfrwt beam="2">  1       21 0.35318126E-01 0.44602472E+03</pdfrwt>
<totfact> 0.74297052E+04</totfact>
</mgrwt>
</event>
<event>
 7    0  0.4709932E-002  0.4566023E+03  0.7546771E-02  0.1025771E+00
         21   -1    0    0  502  501  0.00000000000E+00  0.00000000000E+00  0.63154018949E+03  0.63154018949E+03  0.00000000000E+00 0.  1.
         21   -1    0    0  501  502 -0.00000000000E+00 -0.00000000000E+00 -0.82530647228E+02  0.82530647228E+02  0.00000000000E+00 0.  1.
      99926    2    1    2    0    0  0.00000000000E+00 -0.71054273576E-14  0.54900954226E+03  0.71407083672E+03  0.45660232408E+03 0.  0.
      99925    2    3    3    0    0 -0.80495857819E+02  0.58439770464E+02  0.43407896569E+03  0.51721724790E+03  0.26304817653E+03 0.  0.
         25    1    3    3    0    0  0.80495857819E+02 -0.58439770464E+02  0.11493057658E+03  0.19685358882E+03  0.12509000000E+03 0.  0.
         25    1    4    4    0    0 -0.44818606900E+02 -0.75347969647E+01  0.24013557690E+03  0.27455069492E+03  0.12509000000E+03 0.  0.
         25    1    4    4    0    0 -0.35677250920E+02  0.65974567428E+02  0.19394338878E+03  0.24266655298E+03  0.12509000000E+03 0.  0.
<mgrwt>
<rscale>  2 0.45660232E+03</rscale>
<asrwt>0</asrwt>
<pdfrwt beam="1">  1       21 0.92873555E-01 0.45660232E+03</pdfrwt>
<pdfrwt beam="2">  1       21 0.12136860E-01 0.45660232E+03</pdfrwt>
<totfact> 0.51493513E+04</totfact>
</mgrwt>
</event>
<event>
 7    0  0.4709932E-002  0.4616571E+03  0.7546771E-02  0.1024302E+00
         21   -1    0    0  502  501  0.00000000000E+00  0.00000000000E+00  0.15820928596E+04  0.15820928596E+04  0.00000000000E+00 0.  1.
         21   -1    0    0  501  502 -0.00000000000E+00 -0.00000000000E+00 -0.33678059189E+02  0.33678059189E+02  0.00000000000E+00 0.  1.
      99926    2    1    2    0    0  0.00000000000E+00  0.00000000000E+00  0.15484148004E+04  0.16157709188E+04  0.46165708905E+03 0.  0.
      99925    2    3    3    0    0  0.92186604762E+02  0.35671567258E+02  0.73500648188E+03  0.78688526229E+03  0.26302672256E+03 0.  0.
         25    1    3    3    0    0 -0.92186604762E+02 -0.35671567258E+02  0.81340831852E+03  0.82888565649E+03  0.12509000000E+03 0.  0.
         25    1    4    4    0    0  0.82755987121E+02  0.20078090955E+02  0.34026024608E+03  0.37239257015E+03  0.12509000000E+03 0.  0.
         25    1    4    4    0    0  0.94306176403E+01  0.15593476304E+02  0.39474623580E+03  0.41449269213E+03  0.12509000000E+03 0.  0.
<mgrwt>
<rscale>  2 0.46165709E+03</rscale>
<asrwt>0</asrwt>
<pdfrwt beam="1">  1       21 0.23266067E+00 0.46165709E+03</pdfrwt>
<pdfrwt beam="2">  1       21 0.49526568E-02 0.46165709E+03</pdfrwt>
<totfact> 0.20020710E+04</totfact>
</mgrwt>
</event>
<event>
 7    0  0.4709932E-002  0.4563080E+03  0.7546771E-02  0.1025857E+00
         21   -1    0    0  502  501  0.00000000000E+00  0.00000000000E+00  0.61550327986E+03  0.61550327986E+03  0.00000000000E+00 0. -1.
         21   -1    0    0  501  502 -0.00000000000E+00 -0.00000000000E+00 -0.84571850291E+02  0.84571850291E+02  0.00000000000E+00 0. -1.
      99926    2    1    2    0    0  0.71054273576E-14  0.14210854715E-13  0.53093142957E+03  0.70007513015E+03  0.45630801544E+03 0.  0.
      99925    2    3    3    0    0 -0.52831924605E+02 -0.91437536365E+02  0.40142440672E+03  0.49133698706E+03  0.26290387070E+03 0.  0.
         25    1    4    4    0    0 -0.24308780543E+02 -0.60202271742E+02  0.14105611551E+03  0.19939800941E+03  0.12509000000E+03 0.  0.
         25    1    4    4    0    0 -0.28523144062E+02 -0.31235264623E+02  0.26036829121E+03  0.29193897765E+03  0.12509000000E+03 0.  0.
         25    1    3    3    0    0  0.52831924605E+02  0.91437536365E+02  0.12950702285E+03  0.20873814309E+03  0.12509000000E+03 0.  0.
<mgrwt>
<rscale>  2 0.45630802E+03</rscale>
<asrwt>0</asrwt>
<pdfrwt beam="1">  1       21 0.90515186E-01 0.45630802E+03</pdfrwt>
<pdfrwt beam="2">  1       21 0.12437037E-01 0.45630802E+03</pdfrwt>
<totfact> 0.52357830E+04</totfact>
</mgrwt>
</event>
<event>
 7    0  0.4709932E-002  0.4558705E+03  0.7546771E-02  0.1025986E+00
         21   -1    0    0  502  501  0.00000000000E+00  0.00000000000E+00  0.79655399643E+03  0.79655399643E+03  0.00000000000E+00 0. -1.
         21   -1    0    0  501  502 -0.00000000000E+00 -0.00000000000E+00 -0.65224046633E+02  0.65224046633E+02  0.00000000000E+00 0. -1.
      99926    2    1    2    0    0 -0.35527136788E-14  0.00000000000E+00  0.73132994979E+03  0.86177804306E+03  0.45587048603E+03 0.  0.
      99925    2    3    3    0    0 -0.17602213869E+02 -0.11058427807E+03  0.50025324212E+03  0.57615123511E+03  0.26297950296E+03 0.  0.
         25    1    4    4    0    0  0.17627918988E+01 -0.77848727057E+02  0.33071643033E+03  0.36205579285E+03  0.12509000000E+03 0.  0.
         25    1    3    3    0    0  0.17602213869E+02  0.11058427807E+03  0.23107670767E+03  0.28562680795E+03  0.12509000000E+03 0.  0.
         25    1    4    4    0    0 -0.19365005767E+02 -0.32735551013E+02  0.16953681179E+03  0.21409544227E+03  0.12509000000E+03 0.  0.
<mgrwt>
<rscale>  2 0.45587049E+03</rscale>
<asrwt>0</asrwt>
<pdfrwt beam="1">  1       21 0.11714029E+00 0.45587049E+03</pdfrwt>
<pdfrwt beam="2">  1       21 0.95917720E-02 0.45587049E+03</pdfrwt>
<totfact> 0.44611603E+04</totfact>
</mgrwt>
</event>
<event>
 7    0  0.4709932E-002  0.4540953E+03  0.7546771E-02  0.1026508E+00
         21   -1    0    0  502  501  0.00000000000E+00  0.00000000000E+00  0.39077225050E+03  0.39077225050E+03  0.00000000000E+00 0.  1.
         21   -1    0    0  501  502 -0.00000000000E+00 -0.00000000000E+00 -0.13191992559E+03  0.13191992559E+03  0.00000000000E+00 0.  1.
      99926    2    1    2    0    0  0.00000000000E+00  0.00000000000E+00  0.25885232491E+03  0.52269217608E+03  0.45409534773E+03 0.  0.
      99925    2    3    3    0    0  0.10695482543E+03 -0.21434235312E+01  0.20246799906E+03  0.34870760996E+03  0.26298246644E+03 0.  0.
         25    1    3    3    0    0 -0.10695482543E+03  0.21434235312E+01  0.56384325856E+02  0.17398456612E+03  0.12509000000E+03 0.  0.
         25    1    4    4    0    0  0.65714671408E+02 -0.11609613366E+02  0.15059455080E+03  0.20683188340E+03  0.12509000000E+03 0.  0.
         25    1    4    4    0    0  0.41240154019E+02  0.94661898351E+01  0.51873448260E+02  0.14187572656E+03  0.12509000000E+03 0.  0.
<mgrwt>
<rscale>  2 0.45409535E+03</rscale>
<asrwt>0</asrwt>
<pdfrwt beam="1">  1       21 0.57466507E-01 0.45409535E+03</pdfrwt>
<pdfrwt beam="2">  1       21 0.19399989E-01 0.45409535E+03</pdfrwt>
<totfact> 0.64162820E+04</totfact>
</mgrwt>
</event>
<event>
 7    0  0.4709932E-002  0.4528292E+03  0.7546771E-02  0.1026882E+00
         21   -1    0    0  502  501  0.00000000000E+00  0.00000000000E+00  0.11864352776E+04  0.11864352776E+04  0.00000000000E+00 0.  1.
         21   -1    0    0  501  502 -0.00000000000E+00 -0.00000000000E+00 -0.43208067124E+02  0.43208067124E+02  0.00000000000E+00 0.  1.
      99926    2    1    2    0    0  0.14210854715E-13  0.71054273576E-14  0.11432272105E+04  0.12296433447E+04  0.45282921775E+03 0.  0.
      99925    2    3    3    0    0 -0.10170929812E+03 -0.44526250713E+02  0.70518978690E+03  0.76075992544E+03  0.26293660885E+03 0.  0.
         25    1    4    4    0    0 -0.29006247375E+02  0.36178121649E-01  0.39961797272E+03  0.41974205879E+03  0.12509000000E+03 0.  0.
         25    1    3    3    0    0  0.10170929812E+03  0.44526250713E+02  0.43803742356E+03  0.46888341927E+03  0.12509000000E+03 0.  0.
         25    1    4    4    0    0 -0.72703050750E+02 -0.44562428835E+02  0.30557181419E+03  0.34101786665E+03  0.12509000000E+03 0.  0.
<mgrwt>
<rscale>  2 0.45282922E+03</rscale>
<asrwt>0</asrwt>
<pdfrwt beam="1">  1       21 0.17447576E+00 0.45282922E+03</pdfrwt>
<pdfrwt beam="2">  1       21 0.63541283E-02 0.45282922E+03</pdfrwt>
<totfact> 0.31761839E+04</totfact>
</mgrwt>
</event>
<event>
 7    0  0.4709932E-002  0.4497782E+03  0.7546771E-02  0.1027788E+00
         21   -1    0    0  502  501  0.00000000000E+00  0.00000000000E+00  0.35868568735E+02  0.35868568735E+02  0.00000000000E+00 0. -1.
         21   -1    0    0  501  502 -0.00000000000E+00 -0.00000000000E+00 -0.14100118238E+04  0.14100118238E+04  0.00000000000E+00 0. -1.
      99926    2    1    2    0    0  0.00000000000E+00  0.71054273576E-14 -0.13741432551E+04  0.14458803925E+04  0.44977819431E+03 0.  0.
      99925    2    3    3    0    0 -0.12349110394E+02 -0.62236029983E+02 -0.58584896422E+03  0.64520491455E+03  0.26276329450E+03 0.  0.
         25    1    4    4    0    0 -0.14379690478E+01  0.56606284987E+01 -0.31639474635E+03  0.34027526224E+03  0.12509000000E+03 0.  0.
         25    1    4    4    0    0 -0.10911141346E+02 -0.67896658482E+02 -0.26945421786E+03  0.30492965232E+03  0.12509000000E+03 0.  0.
         25    1    3    3    0    0  0.12349110394E+02  0.62236029983E+02 -0.78829429085E+03  0.80067547798E+03  0.12509000000E+03 0.  0.
<mgrwt>
<rscale>  2 0.44977819E+03</rscale>
<asrwt>0</asrwt>
<pdfrwt beam="1">  1       21 0.52747875E-02 0.44977819E+03</pdfrwt>
<pdfrwt beam="2">  1       21 0.20735476E+00 0.44977819E+03</pdfrwt>
<totfact> 0.26180801E+04</totfact>
</mgrwt>
</event>
<event>
 7    0  0.4709932E-002  0.4452387E+03  0.7546771E-02  0.1029151E+00
         21   -1    0    0  502  501  0.00000000000E+00  0.00000000000E+00  0.15328253789E+03  0.15328253789E+03  0.00000000000E+00 0. -1.
         21   -1    0    0  501  502 -0.00000000000E+00 -0.00000000000E+00 -0.32332043508E+03  0.32332043508E+03  0.00000000000E+00 0. -1.
      99926    2    1    2    0    0  0.00000000000E+00 -0.17763568394E-14 -0.17003789719E+03  0.47660297297E+03  0.44523870830E+03 0.  0.
      99925    2    3    3    0    0 -0.79167100458E+02 -0.12576498220E+02 -0.17861753414E+03  0.32778524428E+03  0.26289417028E+03 0.  0.
         25    1    4    4    0    0 -0.74284843708E+02  0.36946669541E+01 -0.71125263118E+02  0.16198209692E+03  0.12509000000E+03 0.  0.
         25    1    4    4    0    0 -0.48822567493E+01 -0.16271165174E+02 -0.10749227102E+03  0.16580314736E+03  0.12509000000E+03 0.  0.
         25    1    3    3    0    0  0.79167100458E+02  0.12576498220E+02  0.85796369430E+01  0.14881772869E+03  0.12509000000E+03 0.  0.
<mgrwt>
<rscale>  2 0.44523871E+03</rscale>
<asrwt>0</asrwt>
<pdfrwt beam="1">  1       21 0.22541550E-01 0.44523871E+03</pdfrwt>
<pdfrwt beam="2">  1       21 0.47547123E-01 0.44523871E+03</pdfrwt>
<totfact> 0.72397305E+04</totfact>
</mgrwt>
</event>
<event>
 7    0  0.4709932E-002  0.4416742E+03  0.7546771E-02  0.1030234E+00
         21   -1    0    0  502  501  0.00000000000E+00  0.00000000000E+00  0.52899726812E+03  0.52899726812E+03  0.00000000000E+00 0. -1.
         21   -1    0    0  501  502 -0.00000000000E+00 -0.00000000000E+00 -0.92191450293E+02  0.92191450293E+02  0.00000000000E+00 0. -1.
      99926    2    1    2    0    0 -0.44408920985E-15  0.00000000000E+00  0.43680581783E+03  0.62118871842E+03  0.44167420278E+03 0.  0.
      99925    2    3    3    0    0 -0.27375661210E+01 -0.87686128540E+02  0.21018997101E+03  0.34787826941E+03  0.26295078438E+03 0.  0.
         25    1    3    3    0    0  0.27375661210E+01  0.87686128540E+02  0.22661584682E+03  0.27331044901E+03  0.12509000000E+03 0.  0.
         25    1    4    4    0    0  0.17618273713E+02 -0.29274160332E+02  0.60053404059E+02  0.14290311218E+03  0.12509000000E+03 0.  0.
         25    1    4    4    0    0 -0.20355839834E+02 -0.58411968208E+02  0.15013656695E+03  0.20497515723E+03  0.12509000000E+03 0.  0.
<mgrwt>
<rscale>  2 0.44167420E+03</rscale>
<asrwt>0</asrwt>
<pdfrwt beam="1">  1       21 0.77793715E-01 0.44167420E+03</pdfrwt>
<pdfrwt beam="2">  1       21 0.13557566E-01 0.44167420E+03</pdfrwt>
<totfact> 0.63850042E+04</totfact>
</mgrwt>
</event>
<event>
 7    0  0.4709932E-002  0.4485430E+03  0.7546771E-02  0.1028157E+00
         21   -1    0    0  502  501  0.00000000000E+00  0.00000000000E+00  0.21360184524E+03  0.21360184524E+03  0.00000000000E+00 0. -1.
         21   -1    0    0  501  502 -0.00000000000E+00 -0.00000000000E+00 -0.23547407330E+03  0.23547407330E+03  0.00000000000E+00 0. -1.
      99926    2    1    2    0    0  0.00000000000E+00  0.71054273576E-14 -0.21872228056E+02  0.44907591853E+03  0.44854295920E+03 0.  0.
      99925    2    3    3    0    0 -0.76597046489E+02  0.44556822264E+02 -0.73820949654E+02  0.28721611588E+03  0.26304210057E+03 0.  0.
         25    1    3    3    0    0  0.76597046489E+02 -0.44556822264E+02  0.51948721597E+02  0.16185980266E+03  0.12509000000E+03 0.  0.
         25    1    4    4    0    0 -0.63014065735E+02 -0.56928748357E+01 -0.20766514526E+02  0.14171075305E+03  0.12509000000E+03 0.  0.
         25    1    4    4    0    0 -0.13582980754E+02  0.50249697099E+02 -0.53054435127E+02  0.14550536283E+03  0.12509000000E+03 0.  0.
<mgrwt>
<rscale>  2 0.44854296E+03</rscale>
<asrwt>0</asrwt>
<pdfrwt beam="1">  1       21 0.31412036E-01 0.44854296E+03</pdfrwt>
<pdfrwt beam="2">  1       21 0.34628540E-01 0.44854296E+03</pdfrwt>
<totfact> 0.72653579E+04</totfact>
</mgrwt>
</event>
<event>
 7    0  0.4709932E-002  0.4556395E+03  0.7546771E-02  0.1026054E+00
         21   -1    0    0  502  501  0.00000000000E+00  0.00000000000E+00  0.30395164338E+02  0.30395164338E+02  0.00000000000E+00 0.  1.
         21   -1    0    0  501  502 -0.00000000000E+00 -0.00000000000E+00 -0.17075692682E+04  0.17075692682E+04  0.00000000000E+00 0.  1.
      99926    2    1    2    0    0  0.35527136788E-14  0.00000000000E+00 -0.16771741038E+04  0.17379644325E+04  0.45563954405E+03 0.  0.
      99925    2    3    3    0    0  0.21825785844E+02 -0.69518754030E+02 -0.72235930164E+03  0.77223774411E+03  0.26313295248E+03 0.  0.
         25    1    3    3    0    0 -0.21825785844E+02  0.69518754030E+02 -0.95481480219E+03  0.96572668839E+03  0.12509000000E+03 0.  0.
         25    1    4    4    0    0  0.27379481751E+02 -0.72377358045E+02 -0.41751994727E+03  0.44267203712E+03  0.12509000000E+03 0.  0.
         25    1    4    4    0    0 -0.55536959072E+01  0.28586040155E+01 -0.30483935437E+03  0.32956570700E+03  0.12509000000E+03 0.  0.
<mgrwt>
<rscale>  2 0.45563954E+03</rscale>
<asrwt>0</asrwt>
<pdfrwt beam="1">  1       21 0.44698781E-02 0.45563954E+03</pdfrwt>
<pdfrwt beam="2">  1       21 0.25111307E+00 0.45563954E+03</pdfrwt>
<totfact> 0.18391023E+04</totfact>
</mgrwt>
</event>
<event>
 7    0  0.4709932E-002  0.4604541E+03  0.7546771E-02  0.1024650E+00
         21   -1    0    0  502  501  0.00000000000E+00  0.00000000000E+00  0.10441955912E+03  0.10441955912E+03  0.00000000000E+00 0.  1.
         21   -1    0    0  501  502 -0.00000000000E+00 -0.00000000000E+00 -0.50761074934E+03  0.50761074934E+03  0.00000000000E+00 0.  1.
      99926    2    1    2    0    0  0.00000000000E+00  0.00000000000E+00 -0.40319119022E+03  0.61203030846E+03  0.46045408305E+03 0.  0.
      99925    2    3    3    0    0 -0.11697028706E+03 -0.84131112748E+01 -0.25763548112E+03  0.38711521103E+03  0.26406309281E+03 0.  0.
         25    1    4    4    0    0 -0.31167893951E+02  0.43100605871E+01 -0.74422338873E+02  0.14891677830E+03  0.12509000000E+03 0.  0.
         25    1    3    3    0    0  0.11697028706E+03  0.84131112748E+01 -0.14555570910E+03  0.22491509742E+03  0.12509000000E+03 0.  0.
         25    1    4    4    0    0 -0.85802393113E+02 -0.12723171862E+02 -0.18321314224E+03  0.23819843273E+03  0.12509000000E+03 0.  0.
<mgrwt>
<rscale>  2 0.46045408E+03</rscale>
<asrwt>0</asrwt>
<pdfrwt beam="1">  1       21 0.15355817E-01 0.46045408E+03</pdfrwt>
<pdfrwt beam="2">  1       21 0.74648640E-01 0.46045408E+03</pdfrwt>
<totfact> 0.55513360E+04</totfact>
</mgrwt>
</event>
<event>
 7    0  0.4709932E-002  0.4538912E+03  0.7546771E-02  0.1026568E+00
         21   -1    0    0  502  501  0.00000000000E+00  0.00000000000E+00  0.74276245050E+02  0.74276245050E+02  0.00000000000E+00 0. -1.
         21   -1    0    0  501  502 -0.00000000000E+00 -0.00000000000E+00 -0.69341554223E+03  0.69341554223E+03  0.00000000000E+00 0. -1.
      99926    2    1    2    0    0 -0.17763568394E-14  0.00000000000E+00 -0.61913929718E+03  0.76769178728E+03  0.45389118844E+03 0.  0.
      99925    2    3    3    0    0 -0.15367546944E+02 -0.10724399592E+03 -0.34418008693E+03  0.44677511342E+03  0.26345897892E+03 0.  0.
         25    1    4    4    0    0 -0.33456245070E+02 -0.46986063704E+02 -0.12120167249E+03  0.18347851109E+03  0.12509000000E+03 0.  0.
         25    1    4    4    0    0  0.18088698126E+02 -0.60257932213E+02 -0.22297841444E+03  0.26329660233E+03  0.12509000000E+03 0.  0.
         25    1    3    3    0    0  0.15367546944E+02  0.10724399592E+03 -0.27495921025E+03  0.32091667386E+03  0.12509000000E+03 0.  0.
<mgrwt>
<rscale>  2 0.45389119E+03</rscale>
<asrwt>0</asrwt>
<pdfrwt beam="1">  1       21 0.10922977E-01 0.45389119E+03</pdfrwt>
<pdfrwt beam="2">  1       21 0.10197287E+00 0.45389119E+03</pdfrwt>
<totfact> 0.49799179E+04</totfact>
</mgrwt>
</event>
<event>
 7    0  0.4709932E-002  0.4631212E+03  0.7546771E-02  0.1023880E+00
         21   -1    0    0  502  501  0.00000000000E+00  0.00000000000E+00  0.79486156012E+02  0.79486156012E+02  0.00000000000E+00 0. -1.
         21   -1    0    0  501  502 -0.00000000000E+00 -0.00000000000E+00 -0.67458673851E+03  0.67458673851E+03  0.00000000000E+00 0. -1.
      99926    2    1    2    0    0 -0.88817841970E-15  0.00000000000E+00 -0.59510058250E+03  0.75407289453E+03  0.46312117957E+03 0.  0.
      99925    2    3    3    0    0 -0.61309648131E+01 -0.40293038603E+02 -0.18771355211E+03  0.32596914738E+03  0.26335981035E+03 0.  0.
         25    1    4    4    0    0 -0.94066576699E+01  0.20921248827E+02 -0.87820821084E+02  0.15455157255E+03  0.12509000000E+03 0.  0.
         25    1    3    3    0    0  0.61309648131E+01  0.40293038603E+02 -0.40738703039E+03  0.42810374715E+03  0.12509000000E+03 0.  0.
         25    1    4    4    0    0  0.32756928568E+01 -0.61214287431E+02 -0.99892731023E+02  0.17141757483E+03  0.12509000000E+03 0.  0.
<mgrwt>
<rscale>  2 0.46312118E+03</rscale>
<asrwt>0</asrwt>
<pdfrwt beam="1">  1       21 0.11689141E-01 0.46312118E+03</pdfrwt>
<pdfrwt beam="2">  1       21 0.99203928E-01 0.46312118E+03</pdfrwt>
<totfact> 0.46991836E+04</totfact>
</mgrwt>
</event>
<event>
 7    0  0.4709932E-002  0.4572543E+03  0.7546771E-02  0.1025581E+00
         21   -1    0    0  502  501  0.00000000000E+00  0.00000000000E+00  0.44431343280E+03  0.44431343280E+03  0.00000000000E+00 0. -1.
         21   -1    0    0  501  502 -0.00000000000E+00 -0.00000000000E+00 -0.11764303210E+03  0.11764303210E+03  0.00000000000E+00 0. -1.
      99926    2    1    2    0    0  0.35527136788E-14  0.00000000000E+00  0.32667040069E+03  0.56195646490E+03  0.45725432502E+03 0.  0.
      99925    2    3    3    0    0  0.27362527329E+02 -0.20068204830E+02  0.69855323097E+02  0.27428836982E+03  0.26306444630E+03 0.  0.
         25    1    4    4    0    0 -0.10688991823E+02  0.22690207803E+02  0.29838367685E+02  0.13102265591E+03  0.12509000000E+03 0.  0.
         25    1    4    4    0    0  0.38051519152E+02 -0.42758412632E+02  0.40016955413E+02  0.14326571391E+03  0.12509000000E+03 0.  0.
         25    1    3    3    0    0 -0.27362527329E+02  0.20068204830E+02  0.25681507759E+03  0.28766809508E+03  0.12509000000E+03 0.  0.
<mgrwt>
<rscale>  2 0.45725433E+03</rscale>
<asrwt>0</asrwt>
<pdfrwt beam="1">  1       21 0.65340210E-01 0.45725433E+03</pdfrwt>
<pdfrwt beam="2">  1       21 0.17300446E-01 0.45725433E+03</pdfrwt>
<totfact> 0.60006139E+04</totfact>
</mgrwt>
</event>
<event>
 7    0  0.4709932E-002  0.4573568E+03  0.7546771E-02  0.1025551E+00
         21   -1    0    0  502  501  0.00000000000E+00  0.00000000000E+00  0.14149212008E+04  0.14149212008E+04  0.00000000000E+00 0. -1.
         21   -1    0    0  501  502 -0.00000000000E+00 -0.00000000000E+00 -0.36958822045E+02  0.36958822045E+02  0.00000000000E+00 0. -1.
      99926    2    1    2    0    0  0.00000000000E+00  0.35527136788E-14  0.13779623788E+04  0.14518800229E+04  0.45735684478E+03 0.  0.
      99925    2    3    3    0    0  0.74095090257E+02  0.17397003690E+02  0.59047824117E+03  0.65089842931E+03  0.26308073636E+03 0.  0.
         25    1    4    4    0    0  0.39601549777E+02  0.43496939413E+02  0.35170556525E+03  0.37789493145E+03  0.12509000000E+03 0.  0.
         25    1    3    3    0    0 -0.74095090257E+02 -0.17397003690E+02  0.78748413759E+03  0.80098159354E+03  0.12509000000E+03 0.  0.
         25    1    4    4    0    0  0.34493540480E+02 -0.26099935723E+02  0.23877267592E+03  0.27300349786E+03  0.12509000000E+03 0.  0.
<mgrwt>
<rscale>  2 0.45735684E+03</rscale>
<asrwt>0</asrwt>
<pdfrwt beam="1">  1       21 0.20807661E+00 0.45735684E+03</pdfrwt>
<pdfrwt beam="2">  1       21 0.54351218E-02 0.45735684E+03</pdfrwt>
<totfact> 0.24529409E+04</totfact>
</mgrwt>
</event>
<event>
 7    0  0.4709932E-002  0.4482376E+03  0.7546771E-02  0.1028249E+00
         21   -1    0    0  502  501  0.00000000000E+00  0.00000000000E+00  0.14947101896E+03  0.14947101896E+03  0.00000000000E+00 0.  1.
         21   -1    0    0  501  502 -0.00000000000E+00 -0.00000000000E+00 -0.33604672163E+03  0.33604672163E+03  0.00000000000E+00 0.  1.
      99926    2    1    2    0    0  0.00000000000E+00  0.00000000000E+00 -0.18657570268E+03  0.48551774059E+03  0.44823764188E+03 0.  0.
      99925    2    3    3    0    0  0.61728971637E+02 -0.21832479396E+02 -0.26875970981E+02  0.27235433965E+03  0.26299704450E+03 0.  0.
         25    1    3    3    0    0 -0.61728971637E+02  0.21832479396E+02 -0.15969973170E+03  0.21316340094E+03  0.12509000000E+03 0.  0.
         25    1    4    4    0    0  0.20681635127E+01 -0.17756027938E+02  0.15659435210E+02  0.12732745124E+03  0.12509000000E+03 0.  0.
         25    1    4    4    0    0  0.59660808124E+02 -0.40764514579E+01 -0.42535406192E+02  0.14502688841E+03  0.12509000000E+03 0.  0.
<mgrwt>
<rscale>  2 0.44823764E+03</rscale>
<asrwt>0</asrwt>
<pdfrwt beam="1">  1       21 0.21981033E-01 0.44823764E+03</pdfrwt>
<pdfrwt beam="2">  1       21 0.49418634E-01 0.44823764E+03</pdfrwt>
<totfact> 0.69982762E+04</totfact>
</mgrwt>
</event>
<event>
 7    0  0.4709932E-002  0.4162217E+03  0.7546771E-02  0.1038303E+00
         21   -1    0    0  502  501  0.00000000000E+00  0.00000000000E+00  0.98345378132E+02  0.98345378132E+02  0.00000000000E+00 0.  1.
         21   -1    0    0  501  502 -0.00000000000E+00 -0.00000000000E+00 -0.44038795426E+03  0.44038795426E+03  0.00000000000E+00 0.  1.
      99926    2    1    2    0    0 -0.35527136788E-14  0.00000000000E+00 -0.34204257613E+03  0.53873333239E+03  0.41622167116E+03 0.  0.
      99925    2    3    3    0    0  0.24129147872E+02 -0.44495452328E+02 -0.28836237729E+03  0.39350546695E+03  0.26292894634E+03 0.  0.
         25    1    3    3    0    0 -0.24129147872E+02  0.44495452328E+02 -0.53680198839E+02  0.14522786545E+03  0.12509000000E+03 0.  0.
         25    1    4    4    0    0  0.48390479515E+02 -0.10216597256E+02 -0.12623996398E+03  0.18447236642E+03  0.12509000000E+03 0.  0.
         25    1    4    4    0    0 -0.24261331643E+02 -0.34278855072E+02 -0.16212241331E+03  0.20903310053E+03  0.12509000000E+03 0.  0.
<mgrwt>
<rscale>  2 0.41622167E+03</rscale>
<asrwt>0</asrwt>
<pdfrwt beam="1">  1       21 0.14462556E-01 0.41622167E+03</pdfrwt>
<pdfrwt beam="2">  1       21 0.64762934E-01 0.41622167E+03</pdfrwt>
<totfact> 0.86171689E+04</totfact>
</mgrwt>
</event>
<event>
 7    0  0.4709932E-002  0.4565129E+03  0.7546771E-02  0.1025797E+00
         21   -1    0    0  502  501  0.00000000000E+00  0.00000000000E+00  0.94772244596E+03  0.94772244596E+03  0.00000000000E+00 0.  1.
         21   -1    0    0  501  502 -0.00000000000E+00 -0.00000000000E+00 -0.54974958337E+02  0.54974958337E+02  0.00000000000E+00 0.  1.
      99926    2    1    2    0    0  0.35527136788E-14  0.00000000000E+00  0.89274748762E+03  0.10026974043E+04  0.45651287816E+03 0.  0.
      99925    2    3    3    0    0 -0.18958778998E+02 -0.18417268008E+02  0.80595032719E+03  0.84816622226E+03  0.26292846865E+03 0.  0.
         25    1    4    4    0    0  0.24043467348E+02  0.86707043911E+01  0.43781891267E+03  0.45605501623E+03  0.12509000000E+03 0.  0.
         25    1    3    3    0    0  0.18958778998E+02  0.18417268008E+02  0.86797160431E+02  0.15453118203E+03  0.12509000000E+03 0.  0.
         25    1    4    4    0    0 -0.43002246346E+02 -0.27087972399E+02  0.36813141452E+03  0.39211120603E+03  0.12509000000E+03 0.  0.
<mgrwt>
<rscale>  2 0.45651288E+03</rscale>
<asrwt>0</asrwt>
<pdfrwt beam="1">  1       21 0.13937094E+00 0.45651288E+03</pdfrwt>
<pdfrwt beam="2">  1       21 0.80845533E-02 0.45651288E+03</pdfrwt>
<totfact> 0.38603926E+04</totfact>
</mgrwt>
</event>
<event>
 7    0  0.4709932E-002  0.4532092E+03  0.7546771E-02  0.1026769E+00
         21   -1    0    0  502  501  0.00000000000E+00  0.00000000000E+00  0.22022530932E+03  0.22022530932E+03  0.00000000000E+00 0. -1.
         21   -1    0    0  501  502 -0.00000000000E+00 -0.00000000000E+00 -0.23316867082E+03  0.23316867082E+03  0.00000000000E+00 0. -1.
      99926    2    1    2    0    0  0.31086244690E-14  0.00000000000E+00 -0.12943361499E+02  0.45339398014E+03  0.45320919080E+03 0.  0.
      99925    2    3    3    0    0 -0.36714501555E+01  0.38533034077E+02  0.96143519182E+02  0.28296590177E+03  0.26330182495E+03 0.  0.
         25    1    4    4    0    0  0.38890009308E+02  0.14012900096E+02  0.47452371840E+02  0.14002867523E+03  0.12509000000E+03 0.  0.
         25    1    4    4    0    0 -0.42561459464E+02  0.24520133980E+02  0.48691147343E+02  0.14293722654E+03  0.12509000000E+03 0.  0.
         25    1    3    3    0    0  0.36714501555E+01 -0.38533034077E+02 -0.10908688068E+03  0.17042807837E+03  0.12509000000E+03 0.  0.
<mgrwt>
<rscale>  2 0.45320919E+03</rscale>
<asrwt>0</asrwt>
<pdfrwt beam="1">  1       21 0.32386075E-01 0.45320919E+03</pdfrwt>
<pdfrwt beam="2">  1       21 0.34289510E-01 0.45320919E+03</pdfrwt>
<totfact> 0.69653571E+04</totfact>
</mgrwt>
</event>
<event>
 7    0  0.4709932E-002  0.4555997E+03  0.7546771E-02  0.1026065E+00
         21   -1    0    0  502  501  0.00000000000E+00  0.00000000000E+00  0.35505690897E+03  0.35505690897E+03  0.00000000000E+00 0.  1.
         21   -1    0    0  501  502 -0.00000000000E+00 -0.00000000000E+00 -0.14615337039E+03  0.14615337039E+03  0.00000000000E+00 0.  1.
      99926    2    1    2    0    0  0.00000000000E+00  0.00000000000E+00  0.20890353858E+03  0.50121027936E+03  0.45559966605E+03 0.  0.
      99925    2    3    3    0    0  0.11207132149E+02 -0.89679644176E+02  0.55615009708E+02  0.28369494755E+03  0.26310027664E+03 0.  0.
         25    1    4    4    0    0  0.13674945379E+02 -0.87043189470E+02  0.28155681721E+02  0.15557561338E+03  0.12509000000E+03 0.  0.
         25    1    3    3    0    0 -0.11207132149E+02  0.89679644176E+02  0.15328852887E+03  0.21751533181E+03  0.12509000000E+03 0.  0.
         25    1    4    4    0    0 -0.24678132301E+01 -0.26364547061E+01  0.27459327987E+02  0.12811933417E+03  0.12509000000E+03 0.  0.
<mgrwt>
<rscale>  2 0.45559967E+03</rscale>
<asrwt>0</asrwt>
<pdfrwt beam="1">  1       21 0.52214251E-01 0.45559967E+03</pdfrwt>
<pdfrwt beam="2">  1       21 0.21493143E-01 0.45559967E+03</pdfrwt>
<totfact> 0.64876351E+04</totfact>
</mgrwt>
</event>
<event>
 7    0  0.4709932E-002  0.4542804E+03  0.7546771E-02  0.1026453E+00
         21   -1    0    0  502  501  0.00000000000E+00  0.00000000000E+00  0.60212389035E+02  0.60212389035E+02  0.00000000000E+00 0.  1.
         21   -1    0    0  501  502 -0.00000000000E+00 -0.00000000000E+00 -0.85684481345E+03  0.85684481345E+03  0.00000000000E+00 0.  1.
      99926    2    1    2    0    0  0.00000000000E+00  0.00000000000E+00 -0.79663242441E+03  0.91705720248E+03  0.45428041230E+03 0.  0.
      99925    2    3    3    0    0  0.81517669293E+02 -0.25202247563E+02 -0.35320688365E+03  0.44849130318E+03  0.26288602603E+03 0.  0.
         25    1    4    4    0    0  0.30546964496E+02 -0.41120148245E+02 -0.13276930493E+03  0.18947078947E+03  0.12509000000E+03 0.  0.
         25    1    3    3    0    0 -0.81517669293E+02  0.25202247563E+02 -0.44342554076E+03  0.46856589930E+03  0.12509000000E+03 0.  0.
         25    1    4    4    0    0  0.50970704797E+02  0.15917900683E+02 -0.22043757872E+03  0.25902051371E+03  0.12509000000E+03 0.  0.
<mgrwt>
<rscale>  2 0.45428041E+03</rscale>
<asrwt>0</asrwt>
<pdfrwt beam="1">  1       21 0.88547637E-02 0.45428041E+03</pdfrwt>
<pdfrwt beam="2">  1       21 0.12600658E+00 0.45428041E+03</pdfrwt>
<totfact> 0.42744553E+04</totfact>
</mgrwt>
</event>
<event>
 7    0  0.4709932E-002  0.4550628E+03  0.7546771E-02  0.1026223E+00
         21   -1    0    0  502  501  0.00000000000E+00  0.00000000000E+00  0.28962973356E+02  0.28962973356E+02  0.00000000000E+00 0. -1.
         21   -1    0    0  501  502 -0.00000000000E+00 -0.00000000000E+00 -0.17874730767E+04  0.17874730767E+04  0.00000000000E+00 0. -1.
      99926    2    1    2    0    0  0.00000000000E+00  0.00000000000E+00 -0.17585101034E+04  0.18164360501E+04  0.45506278730E+03 0.  0.
      99925    2    3    3    0    0  0.10987695662E+03  0.34385336630E+01 -0.99882584564E+03  0.10387134462E+04  0.26303570899E+03 0.  0.
         25    1    4    4    0    0  0.21500561419E+02  0.28356554711E+01 -0.55041891016E+03  0.56487060452E+03  0.12509000000E+03 0.  0.
         25    1    3    3    0    0 -0.10987695662E+03 -0.34385336630E+01 -0.75968425773E+03  0.77772260392E+03  0.12509000000E+03 0.  0.
         25    1    4    4    0    0  0.88376395199E+02  0.60287819190E+00 -0.44840693547E+03  0.47384284164E+03  0.12509000000E+03 0.  0.
<mgrwt>
<rscale>  2 0.45506279E+03</rscale>
<asrwt>0</asrwt>
<pdfrwt beam="1">  1       21 0.42592623E-02 0.45506279E+03</pdfrwt>
<pdfrwt beam="2">  1       21 0.26286359E+00 0.45506279E+03</pdfrwt>
<totfact> 0.16937545E+04</totfact>
</mgrwt>
</event>
<event>
 7    0  0.4709932E-002  0.4422536E+03  0.7546771E-02  0.1030058E+00
         21   -1    0    0  502  501  0.00000000000E+00  0.00000000000E+00  0.76351657341E+03  0.76351657341E+03  0.00000000000E+00 0. -1.
         21   -1    0    0  501  502 -0.00000000000E+00 -0.00000000000E+00 -0.64041923619E+02  0.64041923619E+02  0.00000000000E+00 0. -1.
      99926    2    1    2    0    0  0.35527136788E-14  0.14210854715E-13  0.69947464979E+03  0.82755849703E+03  0.44225363798E+03 0.  0.
      99925    2    3    3    0    0 -0.19508004971E+02  0.86661320209E+02  0.53454099365E+03  0.60230005500E+03  0.26294587976E+03 0.  0.
         25    1    3    3    0    0  0.19508004971E+02 -0.86661320209E+02  0.16493365615E+03  0.22525844204E+03  0.12509000000E+03 0.  0.
         25    1    4    4    0    0 -0.43345768848E+02  0.48275236776E+02  0.22626556510E+03  0.26655762644E+03  0.12509000000E+03 0.  0.
         25    1    4    4    0    0  0.23837763876E+02  0.38386083433E+02  0.30827542855E+03  0.33574242856E+03  0.12509000000E+03 0.  0.
<mgrwt>
<rscale>  2 0.44225364E+03</rscale>
<asrwt>0</asrwt>
<pdfrwt beam="1">  1       21 0.11228184E+00 0.44225364E+03</pdfrwt>
<pdfrwt beam="2">  1       21 0.94179304E-02 0.44225364E+03</pdfrwt>
<totfact> 0.51412686E+04</totfact>
</mgrwt>
</event>
<event>
 6    0  0.4709932E-002  0.4532998E+03  0.7546771E-02  0.1026743E+00
         21   -1    0    0  502  501  0.00000000000E+00  0.00000000000E+00  0.80931109516E+03  0.80931109516E+03  0.00000000000E+00 0.  1.
         21   -1    0    0  501  502 -0.00000000000E+00 -0.00000000000E+00 -0.63473966119E+02  0.63473966119E+02  0.00000000000E+00 0.  1.
      99926    2    1    2    0    0  0.14210854715E-13  0.00000000000E+00  0.74583712904E+03  0.87278506128E+03  0.45329983469E+03 0.  0.
         25    1    3    3    0    0 -0.41627340264E+02  0.65419748980E+01  0.13228554845E+03  0.18687591424E+03  0.12509000000E+03 0.  0.
         25    1    3    3    0    0 -0.30396291902E+02 -0.71112739361E+02  0.26255496582E+03  0.30093782487E+03  0.12509000000E+03 0.  0.
         25    1    3    3    0    0  0.72023632166E+02  0.64570764463E+02  0.35099661477E+03  0.38497132217E+03  0.12509000000E+03 0.  0.
<mgrwt>
<rscale>  2 0.45329983E+03</rscale>
<asrwt>0</asrwt>
<pdfrwt beam="1">  1       21 0.11901633E+00 0.45329983E+03</pdfrwt>
<pdfrwt beam="2">  1       21 0.93344072E-02 0.45329983E+03</pdfrwt>
<totfact> 0.45027970E+04</totfact>
</mgrwt>
</event>
<event>
 7    0  0.4709932E-002  0.4637614E+03  0.7546771E-02  0.1023696E+00
         21   -1    0    0  502  501  0.00000000000E+00  0.00000000000E+00  0.80131088116E+02  0.80131088116E+02  0.00000000000E+00 0.  1.
         21   -1    0    0  501  502 -0.00000000000E+00 -0.00000000000E+00 -0.67100879096E+03  0.67100879096E+03  0.00000000000E+00 0.  1.
      99926    2    1    2    0    0  0.00000000000E+00 -0.14210854715E-13 -0.59087770284E+03  0.75113987907E+03  0.46376142382E+03 0.  0.
      99925    2    3    3    0    0 -0.34781388461E+02 -0.79583698305E+02 -0.50575051853E+03  0.57667654302E+03  0.26311392638E+03 0.  0.
         25    1    4    4    0    0 -0.18226178896E+02 -0.61196023367E+02 -0.33757724375E+03  0.36562692799E+03  0.12509000000E+03 0.  0.
         25    1    3    3    0    0  0.34781388461E+02  0.79583698305E+02 -0.85127184311E+02  0.17446333606E+03  0.12509000000E+03 0.  0.
         25    1    4    4    0    0 -0.16555209565E+02 -0.18387674938E+02 -0.16817327478E+03  0.21104961503E+03  0.12509000000E+03 0.  0.
<mgrwt>
<rscale>  2 0.46376142E+03</rscale>
<asrwt>0</asrwt>
<pdfrwt beam="1">  1       21 0.11783984E-01 0.46376142E+03</pdfrwt>
<pdfrwt beam="2">  1       21 0.98677757E-01 0.46376142E+03</pdfrwt>
<totfact> 0.46898960E+04</totfact>
</mgrwt>
</event>
<event>
 7    0  0.4709932E-002  0.4623708E+03  0.7546771E-02  0.1024096E+00
         21   -1    0    0  502  501  0.00000000000E+00  0.00000000000E+00  0.43422814284E+03  0.43422814284E+03  0.00000000000E+00 0.  1.
         21   -1    0    0  501  502 -0.00000000000E+00 -0.00000000000E+00 -0.12308434035E+03  0.12308434035E+03  0.00000000000E+00 0.  1.
      99926    2    1    2    0    0 -0.14210854715E-13  0.35527136788E-14  0.31114380249E+03  0.55731248319E+03  0.46237077989E+03 0.  0.
      99925    2    3    3    0    0 -0.92202797752E+02 -0.12273206966E+02  0.10325882218E+03  0.29747472485E+03  0.26301490461E+03 0.  0.
         25    1    4    4    0    0 -0.65507464250E+02  0.28736339651E+02  0.62840394025E+02  0.15720505180E+03  0.12509000000E+03 0.  0.
         25    1    3    3    0    0  0.92202797752E+02  0.12273206966E+02  0.20788498030E+03  0.25983775834E+03  0.12509000000E+03 0.  0.
         25    1    4    4    0    0 -0.26695333503E+02 -0.41009546617E+02  0.40418428158E+02  0.14026967306E+03  0.12509000000E+03 0.  0.
<mgrwt>
<rscale>  2 0.46237078E+03</rscale>
<asrwt>0</asrwt>
<pdfrwt beam="1">  1       21 0.63857079E-01 0.46237078E+03</pdfrwt>
<pdfrwt beam="2">  1       21 0.18100638E-01 0.46237078E+03</pdfrwt>
<totfact> 0.57933321E+04</totfact>
</mgrwt>
</event>
<event>
 7    0  0.4709932E-002  0.4544321E+03  0.7546771E-02  0.1026409E+00
         21   -1    0    0  502  501  0.00000000000E+00  0.00000000000E+00  0.94832671268E+03  0.94832671268E+03  0.00000000000E+00 0. -1.
         21   -1    0    0  501  502 -0.00000000000E+00 -0.00000000000E+00 -0.54440234335E+02  0.54440234335E+02  0.00000000000E+00 0. -1.
      99926    2    1    2    0    0  0.00000000000E+00 -0.35527136788E-14  0.89388647835E+03  0.10027669470E+04  0.45443207837E+03 0.  0.
      99925    2    3    3    0    0  0.90867429181E+02  0.18711832929E+02  0.42186337326E+03  0.50571529758E+03  0.26300614845E+03 0.  0.
         25    1    4    4    0    0  0.31975549603E+02 -0.26044862553E+02  0.17164122759E+03  0.21635385309E+03  0.12509000000E+03 0.  0.
         25    1    4    4    0    0  0.58891879578E+02  0.44756695482E+02  0.25022214567E+03  0.28936144449E+03  0.12509000000E+03 0.  0.
         25    1    3    3    0    0 -0.90867429181E+02 -0.18711832929E+02  0.47202310508E+03  0.49705164944E+03  0.12509000000E+03 0.  0.
<mgrwt>
<rscale>  2 0.45443208E+03</rscale>
<asrwt>0</asrwt>
<pdfrwt beam="1">  1       21 0.13945980E+00 0.45443208E+03</pdfrwt>
<pdfrwt beam="2">  1       21 0.80059174E-02 0.45443208E+03</pdfrwt>
<totfact> 0.39233066E+04</totfact>
</mgrwt>
</event>
<event>
 7    0  0.4709932E-002  0.4476992E+03  0.7546771E-02  0.1028410E+00
         21   -1    0    0  502  501  0.00000000000E+00  0.00000000000E+00  0.10010673199E+04  0.10010673199E+04  0.00000000000E+00 0. -1.
         21   -1    0    0  501  502 -0.00000000000E+00 -0.00000000000E+00 -0.50055227024E+02  0.50055227024E+02  0.00000000000E+00 0. -1.
      99926    2    1    2    0    0  0.00000000000E+00  0.00000000000E+00  0.95101209291E+03  0.10511225470E+04  0.44769923818E+03 0.  0.
      99925    2    3    3    0    0  0.10305765592E+03 -0.31999241821E+01  0.66181376443E+03  0.71958928882E+03  0.26302122696E+03 0.  0.
         25    1    4    4    0    0  0.35703571413E+02  0.47789927428E+00  0.41352662354E+03  0.43350519013E+03  0.12509000000E+03 0.  0.
         25    1    4    4    0    0  0.67354084511E+02 -0.36778234563E+01  0.24828714089E+03  0.28608409868E+03  0.12509000000E+03 0.  0.
         25    1    3    3    0    0 -0.10305765592E+03  0.31999241821E+01  0.28919832848E+03  0.33153325814E+03  0.12509000000E+03 0.  0.
<mgrwt>
<rscale>  2 0.44769924E+03</rscale>
<asrwt>0</asrwt>
<pdfrwt beam="1">  1       21 0.14721577E+00 0.44769924E+03</pdfrwt>
<pdfrwt beam="2">  1       21 0.73610634E-02 0.44769924E+03</pdfrwt>
<totfact> 0.39435939E+04</totfact>
</mgrwt>
</event>
<event>
 7    0  0.4709932E-002  0.4589392E+03  0.7546771E-02  0.1025089E+00
         21   -1    0    0  502  501  0.00000000000E+00  0.00000000000E+00  0.78951605442E+02  0.78951605442E+02  0.00000000000E+00 0. -1.
         21   -1    0    0  501  502 -0.00000000000E+00 -0.00000000000E+00 -0.66694397701E+03  0.66694397701E+03  0.00000000000E+00 0. -1.
      99926    2    1    2    0    0  0.00000000000E+00  0.14210854715E-13 -0.58799237157E+03  0.74589558245E+03  0.45893920175E+03 0.  0.
      99925    2    3    3    0    0 -0.15756189388E+02  0.62587070075E+02 -0.52697716930E+03  0.59248188733E+03  0.26299135157E+03 0.  0.
         25    1    3    3    0    0  0.15756189388E+02 -0.62587070075E+02 -0.61015202266E+02  0.15341369513E+03  0.12509000000E+03 0.  0.
         25    1    4    4    0    0 -0.28539193416E+02  0.61157638772E+02 -0.32249843625E+03  0.35243083268E+03  0.12509000000E+03 0.  0.
         25    1    4    4    0    0  0.12783004028E+02  0.14294313038E+01 -0.20447873305E+03  0.24005105464E+03  0.12509000000E+03 0.  0.
<mgrwt>
<rscale>  2 0.45893920E+03</rscale>
<asrwt>0</asrwt>
<pdfrwt beam="1">  1       21 0.11610531E-01 0.45893920E+03</pdfrwt>
<pdfrwt beam="2">  1       21 0.98079993E-01 0.45893920E+03</pdfrwt>
<totfact> 0.48947653E+04</totfact>
</mgrwt>
</event>
<event>
 7    0  0.4709932E-002  0.4394164E+03  0.7546771E-02  0.1030926E+00
         21   -1    0    0  502  501  0.00000000000E+00  0.00000000000E+00  0.68376224825E+03  0.68376224825E+03  0.00000000000E+00 0.  1.
         21   -1    0    0  501  502 -0.00000000000E+00 -0.00000000000E+00 -0.70597199141E+02  0.70597199141E+02  0.00000000000E+00 0.  1.
      99926    2    1    2    0    0  0.00000000000E+00  0.00000000000E+00  0.61316504911E+03  0.75435944739E+03  0.43941642939E+03 0.  0.
      99925    2    3    3    0    0 -0.56788722293E+02  0.41438989398E+02  0.27494073798E+03  0.38695593412E+03  0.26305956879E+03 0.  0.
         25    1    4    4    0    0 -0.80007870351E+01  0.55114267536E+02  0.14896580780E+03  0.20233614376E+03  0.12509000000E+03 0.  0.
         25    1    4    4    0    0 -0.48787935258E+02 -0.13675278138E+02  0.12597493018E+03  0.18461979036E+03  0.12509000000E+03 0.  0.
         25    1    3    3    0    0  0.56788722293E+02 -0.41438989398E+02  0.33822431113E+03  0.36740351327E+03  0.12509000000E+03 0.  0.
<mgrwt>
<rscale>  2 0.43941643E+03</rscale>
<asrwt>0</asrwt>
<pdfrwt beam="1">  1       21 0.10055327E+00 0.43941643E+03</pdfrwt>
<pdfrwt beam="2">  1       21 0.10381941E-01 0.43941643E+03</pdfrwt>
<totfact> 0.56673989E+04</totfact>
</mgrwt>
</event>
<event>
 7    0  0.4709932E-002  0.4673284E+03  0.7546771E-02  0.1022677E+00
         21   -1    0    0  502  501  0.00000000000E+00  0.00000000000E+00  0.40064228463E+03  0.40064228463E+03  0.00000000000E+00 0. -1.
         21   -1    0    0  501  502 -0.00000000000E+00 -0.00000000000E+00 -0.13627858586E+03  0.13627858586E+03  0.00000000000E+00 0. -1.
      99926    2    1    2    0    0  0.00000000000E+00 -0.35527136788E-14  0.26436369877E+03  0.53692087049E+03  0.46732842407E+03 0.  0.
      99925    2    3    3    0    0 -0.12023031487E+03  0.25094023390E+02  0.18720248023E+03  0.34538392792E+03  0.26298336532E+03 0.  0.
         25    1    4    4    0    0 -0.47491764249E+02 -0.81943810306E+00  0.45837840473E+02  0.14143816624E+03  0.12509000000E+03 0.  0.
         25    1    4    4    0    0 -0.72738550623E+02  0.25913461493E+02  0.14136463976E+03  0.20394576168E+03  0.12509000000E+03 0.  0.
         25    1    3    3    0    0  0.12023031487E+03 -0.25094023390E+02  0.77161218543E+02  0.19153694258E+03  0.12509000000E+03 0.  0.
<mgrwt>
<rscale>  2 0.46732842E+03</rscale>
<asrwt>0</asrwt>
<pdfrwt beam="1">  1       21 0.58917983E-01 0.46732842E+03</pdfrwt>
<pdfrwt beam="2">  1       21 0.20040969E-01 0.46732842E+03</pdfrwt>
<totfact> 0.56966948E+04</totfact>
</mgrwt>
</event>
<event>
 7    0  0.4709932E-002  0.4597394E+03  0.7546771E-02  0.1024857E+00
         21   -1    0    0  502  501  0.00000000000E+00  0.00000000000E+00  0.37645123340E+03  0.37645123340E+03  0.00000000000E+00 0.  1.
         21   -1    0    0  501  502 -0.00000000000E+00 -0.00000000000E+00 -0.14036366930E+03  0.14036366930E+03  0.00000000000E+00 0.  1.
      99926    2    1    2    0    0 -0.17763568394E-14  0.00000000000E+00  0.23608756410E+03  0.51681490270E+03  0.45973938892E+03 0.  0.
      99925    2    3    3    0    0 -0.15107751691E+02 -0.32263878397E+02  0.21954794749E+02  0.26627637668E+03  0.26296747661E+03 0.  0.
         25    1    4    4    0    0 -0.18175570448E+02 -0.10933994906E+02 -0.27895135600E+02  0.12990592864E+03  0.12509000000E+03 0.  0.
         25    1    4    4    0    0  0.30678187573E+01 -0.21329883491E+02  0.49849930350E+02  0.13637044804E+03  0.12509000000E+03 0.  0.
         25    1    3    3    0    0  0.15107751691E+02  0.32263878397E+02  0.21413276935E+03  0.25053852602E+03  0.12509000000E+03 0.  0.
<mgrwt>
<rscale>  2 0.45973939E+03</rscale>
<asrwt>0</asrwt>
<pdfrwt beam="1">  1       21 0.55360475E-01 0.45973939E+03</pdfrwt>
<pdfrwt beam="2">  1       21 0.20641716E-01 0.45973939E+03</pdfrwt>
<totfact> 0.61749597E+04</totfact>
</mgrwt>
</event>
<event>
 7    0  0.4709932E-002  0.4507053E+03  0.7546771E-02  0.1027512E+00
         21   -1    0    0  502  501  0.00000000000E+00  0.00000000000E+00  0.50475776636E+03  0.50475776636E+03  0.00000000000E+00 0.  1.
         21   -1    0    0  501  502 -0.00000000000E+00 -0.00000000000E+00 -0.10061027292E+03  0.10061027292E+03  0.00000000000E+00 0.  1.
      99926    2    1    2    0    0 -0.14210854715E-13  0.00000000000E+00  0.40414749343E+03  0.60536803928E+03  0.45070529898E+03 0.  0.
      99925    2    3    3    0    0  0.87653715027E+02 -0.42486128613E+02  0.19007181360E+03  0.33897706781E+03  0.26322977281E+03 0.  0.
         25    1    4    4    0    0  0.14895403781E+02 -0.15789976577E+02  0.52017337809E+02  0.13720243419E+03  0.12509000000E+03 0.  0.
         25    1    4    4    0    0  0.72758311246E+02 -0.26696152036E+02  0.13805447579E+03  0.20177463363E+03  0.12509000000E+03 0.  0.
         25    1    3    3    0    0 -0.87653715027E+02  0.42486128613E+02  0.21407567983E+03  0.26639097146E+03  0.12509000000E+03 0.  0.
<mgrwt>
<rscale>  2 0.45070530E+03</rscale>
<asrwt>0</asrwt>
<pdfrwt beam="1">  1       21 0.74229082E-01 0.45070530E+03</pdfrwt>
<pdfrwt beam="2">  1       21 0.14795629E-01 0.45070530E+03</pdfrwt>
<totfact> 0.60371385E+04</totfact>
</mgrwt>
</event>
<event>
 7    0  0.4709932E-002  0.4586075E+03  0.7546771E-02  0.1025186E+00
         21   -1    0    0  502  501  0.00000000000E+00  0.00000000000E+00  0.57547403290E+03  0.57547403290E+03  0.00000000000E+00 0. -1.
         21   -1    0    0  501  502 -0.00000000000E+00 -0.00000000000E+00 -0.91368524485E+02  0.91368524485E+02  0.00000000000E+00 0. -1.
      99926    2    1    2    0    0  0.00000000000E+00 -0.71054273576E-14  0.48410550841E+03  0.66684255738E+03  0.45860751527E+03 0.  0.
      99925    2    3    3    0    0  0.57671528258E+02 -0.61220590654E+02  0.18630293967E+03  0.33306442158E+03  0.26296227429E+03 0.  0.
         25    1    4    4    0    0  0.44337237084E+02 -0.69871603909E+02  0.10221861631E+03  0.18150478023E+03  0.12509000000E+03 0.  0.
         25    1    4    4    0    0  0.13334291173E+02  0.86510132545E+01  0.84084323361E+02  0.15155964135E+03  0.12509000000E+03 0.  0.
         25    1    3    3    0    0 -0.57671528258E+02  0.61220590654E+02  0.29780256874E+03  0.33377813580E+03  0.12509000000E+03 0.  0.
<mgrwt>
<rscale>  2 0.45860752E+03</rscale>
<asrwt>0</asrwt>
<pdfrwt beam="1">  1       21 0.84628533E-01 0.45860752E+03</pdfrwt>
<pdfrwt beam="2">  1       21 0.13436548E-01 0.45860752E+03</pdfrwt>
<totfact> 0.53210692E+04</totfact>
</mgrwt>
</event>
<event>
 7    0  0.4709932E-002  0.4564130E+03  0.7546771E-02  0.1025827E+00
         21   -1    0    0  502  501  0.00000000000E+00  0.00000000000E+00  0.60397199275E+03  0.60397199275E+03  0.00000000000E+00 0.  1.
         21   -1    0    0  501  502 -0.00000000000E+00 -0.00000000000E+00 -0.86226187080E+02  0.86226187080E+02  0.00000000000E+00 0.  1.
      99926    2    1    2    0    0  0.00000000000E+00  0.00000000000E+00  0.51774580567E+03  0.69019817983E+03  0.45641297983E+03 0.  0.
      99925    2    3    3    0    0  0.10273385495E+03 -0.33604079259E+02  0.38207171559E+03  0.47633269427E+03  0.26311700949E+03 0.  0.
         25    1    3    3    0    0 -0.10273385495E+03  0.33604079259E+02  0.13567409008E+03  0.21386548556E+03  0.12509000000E+03 0.  0.
         25    1    4    4    0    0  0.19693593675E+02 -0.27900424042E+02  0.21967378736E+03  0.25508891047E+03  0.12509000000E+03 0.  0.
         25    1    4    4    0    0  0.83040261273E+02 -0.57036552173E+01  0.16239792823E+03  0.22124378380E+03  0.12509000000E+03 0.  0.
<mgrwt>
<rscale>  2 0.45641298E+03</rscale>
<asrwt>0</asrwt>
<pdfrwt beam="1">  1       21 0.88819409E-01 0.45641298E+03</pdfrwt>
<pdfrwt beam="2">  1       21 0.12680322E-01 0.45641298E+03</pdfrwt>
<totfact> 0.52848187E+04</totfact>
</mgrwt>
</event>
<event>
 7    0  0.4709932E-002  0.4487831E+03  0.7546771E-02  0.1028086E+00
         21   -1    0    0  502  501  0.00000000000E+00  0.00000000000E+00  0.79092127096E+03  0.79092127096E+03  0.00000000000E+00 0.  1.
         21   -1    0    0  501  502 -0.00000000000E+00 -0.00000000000E+00 -0.63661930883E+02  0.63661930883E+02  0.00000000000E+00 0.  1.
      99926    2    1    2    0    0  0.71054273576E-14  0.00000000000E+00  0.72725934008E+03  0.85458320185E+03  0.44878313375E+03 0.  0.
      99925    2    3    3    0    0  0.39843568281E+02  0.97865712885E+02  0.49338809828E+03  0.56908631301E+03  0.26317714271E+03 0.  0.
         25    1    4    4    0    0  0.35660633070E+02  0.68312842379E+02  0.32945013379E+03  0.36072596793E+03  0.12509000000E+03 0.  0.
         25    1    4    4    0    0  0.41829352113E+01  0.29552870506E+02  0.16393796449E+03  0.20836034508E+03  0.12509000000E+03 0.  0.
         25    1    3    3    0    0 -0.39843568281E+02 -0.97865712885E+02  0.23387124180E+03  0.28549688884E+03  0.12509000000E+03 0.  0.
<mgrwt>
<rscale>  2 0.44878313E+03</rscale>
<asrwt>0</asrwt>
<pdfrwt beam="1">  1       21 0.11631195E+00 0.44878313E+03</pdfrwt>
<pdfrwt beam="2">  1       21 0.93620491E-02 0.44878313E+03</pdfrwt>
<totfact> 0.47509822E+04</totfact>
</mgrwt>
</event>
<event>
 7    0  0.4709932E-002  0.4531119E+03  0.7546771E-02  0.1026798E+00
         21   -1    0    0  502  501  0.00000000000E+00  0.00000000000E+00  0.87107900322E+03  0.87107900322E+03  0.00000000000E+00 0.  1.
         21   -1    0    0  501  502 -0.00000000000E+00 -0.00000000000E+00 -0.58924152422E+02  0.58924152422E+02  0.00000000000E+00 0.  1.
      99926    2    1    2    0    0 -0.17763568394E-14  0.00000000000E+00  0.81215485080E+03  0.93000315564E+03  0.45311187121E+03 0.  0.
      99925    2    3    3    0    0  0.13826674922E+02  0.77506303517E+01  0.28545761926E+03  0.38842330832E+03  0.26293604707E+03 0.  0.
         25    1    4    4    0    0  0.64540740257E+01  0.44543087860E+01  0.83082084095E+02  0.15037166201E+03  0.12509000000E+03 0.  0.
         25    1    4    4    0    0  0.73726008967E+01  0.32963215658E+01  0.20237553516E+03  0.23805164631E+03  0.12509000000E+03 0.  0.
         25    1    3    3    0    0 -0.13826674922E+02 -0.77506303517E+01  0.52669723154E+03  0.54157984732E+03  0.12509000000E+03 0.  0.
<mgrwt>
<rscale>  2 0.45311187E+03</rscale>
<asrwt>0</asrwt>
<pdfrwt beam="1">  1       21 0.12809985E+00 0.45311187E+03</pdfrwt>
<pdfrwt beam="2">  1       21 0.86653171E-02 0.45311187E+03</pdfrwt>
<totfact> 0.42586801E+04</totfact>
</mgrwt>
</event>
<event>
 7    0  0.4709932E-002  0.4514793E+03  0.7546771E-02  0.1027282E+00
         21   -1    0    0  502  501  0.00000000000E+00  0.00000000000E+00  0.23719513519E+02  0.23719513519E+02  0.00000000000E+00 0. -1.
         21   -1    0    0  501  502 -0.00000000000E+00 -0.00000000000E+00 -0.21483737850E+04  0.21483737850E+04  0.00000000000E+00 0. -1.
      99926    2    1    2    0    0  0.00000000000E+00 -0.35527136788E-14 -0.21246542715E+04  0.21720932985E+04  0.45147926215E+03 0.  0.
      99925    2    3    3    0    0  0.10547142177E+03  0.29897366428E+02 -0.13727557901E+04  0.14020173882E+04  0.26301373366E+03 0.  0.
         25    1    4    4    0    0  0.95408465642E+02  0.77753285243E+01 -0.75572443931E+03  0.77196513348E+03  0.12509000000E+03 0.  0.
         25    1    3    3    0    0 -0.10547142177E+03 -0.29897366428E+02 -0.75189848133E+03  0.77007591032E+03  0.12509000000E+03 0.  0.
         25    1    4    4    0    0  0.10062956124E+02  0.22122037904E+02 -0.61703135083E+03  0.63005225470E+03  0.12509000000E+03 0.  0.
<mgrwt>
<rscale>  2 0.45147926E+03</rscale>
<asrwt>0</asrwt>
<pdfrwt beam="1">  1       21 0.34881637E-02 0.45147926E+03</pdfrwt>
<pdfrwt beam="2">  1       21 0.31593733E+00 0.45147926E+03</pdfrwt>
<totfact> 0.11406858E+04</totfact>
</mgrwt>
</event>
<event>
 7    0  0.4709932E-002  0.4581488E+03  0.7546771E-02  0.1025319E+00
         21   -1    0    0  502  501  0.00000000000E+00  0.00000000000E+00  0.10468848557E+04  0.10468848557E+04  0.00000000000E+00 0. -1.
         21   -1    0    0  501  502 -0.00000000000E+00 -0.00000000000E+00 -0.50124987111E+02  0.50124987111E+02  0.00000000000E+00 0. -1.
      99926    2    1    2    0    0 -0.71054273576E-14  0.88817841970E-15  0.99675986862E+03  0.10970098428E+04  0.45814884001E+03 0.  0.
      99925    2    3    3    0    0 -0.54231936986E+02  0.79852411090E+01  0.87035817797E+03  0.91091910540E+03  0.26314519100E+03 0.  0.
         25    1    4    4    0    0 -0.61210574071E+01  0.69483446106E+01  0.54067470675E+03  0.55503368677E+03  0.12509000000E+03 0.  0.
         25    1    3    3    0    0  0.54231936986E+02 -0.79852411090E+01  0.12640169064E+03  0.18609073744E+03  0.12509000000E+03 0.  0.
         25    1    4    4    0    0 -0.48110879579E+02  0.10368964983E+01  0.32968347123E+03  0.35588541862E+03  0.12509000000E+03 0.  0.
<mgrwt>
<rscale>  2 0.45814884E+03</rscale>
<asrwt>0</asrwt>
<pdfrwt beam="1">  1       21 0.15395364E+00 0.45814884E+03</pdfrwt>
<pdfrwt beam="2">  1       21 0.73713223E-02 0.45814884E+03</pdfrwt>
<totfact> 0.34736924E+04</totfact>
</mgrwt>
</event>
<event>
 7    0  0.4709932E-002  0.4341311E+03  0.7546771E-02  0.1032563E+00
         21   -1    0    0  502  501  0.00000000000E+00  0.00000000000E+00  0.57143341905E+03  0.57143341905E+03  0.00000000000E+00 0. -1.
         21   -1    0    0  501  502 -0.00000000000E+00 -0.00000000000E+00 -0.82454848085E+02  0.82454848085E+02  0.00000000000E+00 0. -1.
      99926    2    1    2    0    0  0.00000000000E+00  0.00000000000E+00  0.48897857096E+03  0.65388826713E+03  0.43413111272E+03 0.  0.
      99925    2    3    3    0    0 -0.88680431208E+02 -0.89057495113E+01  0.27739362176E+03  0.39243228598E+03  0.26289227153E+03 0.  0.
         25    1    4    4    0    0 -0.14429169029E+02 -0.32921443695E+02  0.12953843639E+03  0.18362934672E+03  0.12509000000E+03 0.  0.
         25    1    4    4    0    0 -0.74251262179E+02  0.24015694183E+02  0.14785518537E+03  0.20880293926E+03  0.12509000000E+03 0.  0.
         25    1    3    3    0    0  0.88680431208E+02  0.89057495113E+01  0.21158494920E+03  0.26145598115E+03  0.12509000000E+03 0.  0.
<mgrwt>
<rscale>  2 0.43413111E+03</rscale>
<asrwt>0</asrwt>
<pdfrwt beam="1">  1       21 0.84034324E-01 0.43413111E+03</pdfrwt>
<pdfrwt beam="2">  1       21 0.12125713E-01 0.43413111E+03</pdfrwt>
<totfact> 0.65625481E+04</totfact>
</mgrwt>
</event>
<event>
 7    0  0.4709932E-002  0.4547348E+03  0.7546771E-02  0.1026319E+00
         21   -1    0    0  502  501  0.00000000000E+00  0.00000000000E+00  0.11369577794E+03  0.11369577794E+03  0.00000000000E+00 0.  1.
         21   -1    0    0  501  502 -0.00000000000E+00 -0.00000000000E+00 -0.45468650474E+03  0.45468650474E+03  0.00000000000E+00 0.  1.
      99926    2    1    2    0    0  0.00000000000E+00  0.00000000000E+00 -0.34099072680E+03  0.56838228268E+03  0.45473480569E+03 0.  0.
      99925    2    3    3    0    0  0.28880746522E+02 -0.21286139902E+02 -0.34858514244E+03  0.43802745722E+03  0.26281030132E+03 0.  0.
         25    1    4    4    0    0 -0.20873377653E+02 -0.27108852572E+02 -0.18813706766E+03  0.22850306805E+03  0.12509000000E+03 0.  0.
         25    1    4    4    0    0  0.49754124175E+02  0.58227126696E+01 -0.16044807478E+03  0.20952438917E+03  0.12509000000E+03 0.  0.
         25    1    3    3    0    0 -0.28880746522E+02  0.21286139902E+02  0.75944156412E+01  0.13035482546E+03  0.12509000000E+03 0.  0.
<mgrwt>
<rscale>  2 0.45473481E+03</rscale>
<asrwt>0</asrwt>
<pdfrwt beam="1">  1       21 0.16719967E-01 0.45473481E+03</pdfrwt>
<pdfrwt beam="2">  1       21 0.66865662E-01 0.45473481E+03</pdfrwt>
<totfact> 0.60795290E+04</totfact>
</mgrwt>
</event>
<event>
 7    0  0.4709932E-002  0.4566888E+03  0.7546771E-02  0.1025746E+00
         21   -1    0    0  502  501  0.00000000000E+00  0.00000000000E+00  0.51908096687E+03  0.51908096687E+03  0.00000000000E+00 0.  1.
         21   -1    0    0  501  502 -0.00000000000E+00 -0.00000000000E+00 -0.10044901410E+03  0.10044901410E+03  0.00000000000E+00 0.  1.
      99926    2    1    2    0    0 -0.14210854715E-13  0.00000000000E+00  0.41863195277E+03  0.61952998098E+03  0.45668882781E+03 0.  0.
      99925    2    3    3    0    0 -0.95561149461E+02  0.41392483543E+02  0.19745782348E+03  0.34491975803E+03  0.26293492816E+03 0.  0.
         25    1    4    4    0    0 -0.20795664971E+02  0.97813374114E+01  0.54583255486E+02  0.13840149610E+03  0.12509000000E+03 0.  0.
         25    1    3    3    0    0  0.95561149461E+02 -0.41392483543E+02  0.22117412929E+03  0.27461022295E+03  0.12509000000E+03 0.  0.
         25    1    4    4    0    0 -0.74765484491E+02  0.31611146131E+02  0.14287456800E+03  0.20651826193E+03  0.12509000000E+03 0.  0.
<mgrwt>
<rscale>  2 0.45668883E+03</rscale>
<asrwt>0</asrwt>
<pdfrwt beam="1">  1       21 0.76335435E-01 0.45668883E+03</pdfrwt>
<pdfrwt beam="2">  1       21 0.14771914E-01 0.45668883E+03</pdfrwt>
<totfact> 0.56731590E+04</totfact>
</mgrwt>
</event>
<event>
 7    0  0.4709932E-002  0.4583794E+03  0.7546771E-02  0.1025252E+00
         21   -1    0    0  502  501  0.00000000000E+00  0.00000000000E+00  0.27489042270E+03  0.27489042270E+03  0.00000000000E+00 0.  1.
         21   -1    0    0  501  502 -0.00000000000E+00 -0.00000000000E+00 -0.19108679156E+03  0.19108679156E+03  0.00000000000E+00 0.  1.
      99926    2    1    2    0    0  0.00000000000E+00  0.00000000000E+00  0.83803631139E+02  0.46597721426E+03  0.45837944502E+03 0.  0.
      99925    2    3    3    0    0  0.24288110428E+02  0.95807579078E+02 -0.97058311244E+01  0.28115153382E+03  0.26302657146E+03 0.  0.
         25    1    4    4    0    0  0.16053567402E+02  0.90314695797E+02 -0.12667296962E+02  0.15563556732E+03  0.12509000000E+03 0.  0.
         25    1    4    4    0    0  0.82345430260E+01  0.54928832807E+01  0.29614658372E+01  0.12551596650E+03  0.12509000000E+03 0.  0.
         25    1    3    3    0    0 -0.24288110428E+02 -0.95807579078E+02  0.93509462263E+02  0.18482568044E+03  0.12509000000E+03 0.  0.
<mgrwt>
<rscale>  2 0.45837945E+03</rscale>
<asrwt>0</asrwt>
<pdfrwt beam="1">  1       21 0.40425062E-01 0.45837945E+03</pdfrwt>
<pdfrwt beam="2">  1       21 0.28100999E-01 0.45837945E+03</pdfrwt>
<totfact> 0.65948131E+04</totfact>
</mgrwt>
</event>
<event>
 7    0  0.4709932E-002  0.4484248E+03  0.7546771E-02  0.1028193E+00
         21   -1    0    0  502  501  0.00000000000E+00  0.00000000000E+00  0.75794837632E+02  0.75794837632E+02  0.00000000000E+00 0. -1.
         21   -1    0    0  501  502 -0.00000000000E+00 -0.00000000000E+00 -0.66325365297E+03  0.66325365297E+03  0.00000000000E+00 0. -1.
      99926    2    1    2    0    0  0.35527136788E-14  0.71054273576E-14 -0.58745881534E+03  0.73904849061E+03  0.44842481170E+03 0.  0.
      99925    2    3    3    0    0  0.29671677685E+02  0.46040787466E+02 -0.22054946759E+03  0.34755118521E+03  0.26296310790E+03 0.  0.
         25    1    3    3    0    0 -0.29671677685E+02 -0.46040787466E+02 -0.36690934775E+03  0.39149730540E+03  0.12509000000E+03 0.  0.
         25    1    4    4    0    0 -0.80809299096E+01  0.10412565255E+02 -0.65962209421E+02  0.14202902561E+03  0.12509000000E+03 0.  0.
         25    1    4    4    0    0  0.37752607594E+02  0.35628222211E+02 -0.15458725817E+03  0.20552215960E+03  0.12509000000E+03 0.  0.
<mgrwt>
<rscale>  2 0.44842481E+03</rscale>
<asrwt>0</asrwt>
<pdfrwt beam="1">  1       21 0.11146300E-01 0.44842481E+03</pdfrwt>
<pdfrwt beam="2">  1       21 0.97537299E-01 0.44842481E+03</pdfrwt>
<totfact> 0.53548416E+04</totfact>
</mgrwt>
</event>
<event>
 7    0  0.4709932E-002  0.4553411E+03  0.7546771E-02  0.1026141E+00
         21   -1    0    0  502  501  0.00000000000E+00  0.00000000000E+00  0.37224321793E+03  0.37224321793E+03  0.00000000000E+00 0.  1.
         21   -1    0    0  501  502 -0.00000000000E+00 -0.00000000000E+00 -0.13924737396E+03  0.13924737396E+03  0.00000000000E+00 0.  1.
      99926    2    1    2    0    0  0.00000000000E+00  0.00000000000E+00  0.23299584397E+03  0.51149059188E+03  0.45534114934E+03 0.  0.
      99925    2    3    3    0    0 -0.55124968601E+02 -0.14650441757E+02  0.25751268286E+03  0.37184109816E+03  0.26210612896E+03 0.  0.
         25    1    4    4    0    0  0.75704356273E+01 -0.25268424265E+02  0.11837027757E+03  0.17422639143E+03  0.12509000000E+03 0.  0.
         25    1    4    4    0    0 -0.62695404228E+02  0.10617982509E+02  0.13914240530E+03  0.19761470673E+03  0.12509000000E+03 0.  0.
         25    1    3    3    0    0  0.55124968601E+02  0.14650441757E+02 -0.24516838898E+02  0.13964949372E+03  0.12509000000E+03 0.  0.
<mgrwt>
<rscale>  2 0.45534115E+03</rscale>
<asrwt>0</asrwt>
<pdfrwt beam="1">  1       21 0.54741650E-01 0.45534115E+03</pdfrwt>
<pdfrwt beam="2">  1       21 0.20477555E-01 0.45534115E+03</pdfrwt>
<totfact> 0.64296468E+04</totfact>
</mgrwt>
</event>
<event>
 7    0  0.4709932E-002  0.4537841E+03  0.7546771E-02  0.1026600E+00
         21   -1    0    0  502  501  0.00000000000E+00  0.00000000000E+00  0.16885353655E+03  0.16885353655E+03  0.00000000000E+00 0. -1.
         21   -1    0    0  501  502 -0.00000000000E+00 -0.00000000000E+00 -0.30487966277E+03  0.30487966277E+03  0.00000000000E+00 0. -1.
      99926    2    1    2    0    0  0.00000000000E+00  0.00000000000E+00 -0.13602612622E+03  0.47373319932E+03  0.45378413054E+03 0.  0.
      99925    2    3    3    0    0 -0.55685967805E+02  0.43968726127E+02 -0.17617315024E+03  0.32442322804E+03  0.26301953565E+03 0.  0.
         25    1    4    4    0    0 -0.63972633443E+02  0.35149137849E+02 -0.75067846583E+02  0.16312770890E+03  0.12509000000E+03 0.  0.
         25    1    3    3    0    0  0.55685967805E+02 -0.43968726127E+02  0.40147024025E+02  0.14930997129E+03  0.12509000000E+03 0.  0.
         25    1    4    4    0    0  0.82866656376E+01  0.88195882782E+01 -0.10110530366E+03  0.16129551913E+03  0.12509000000E+03 0.  0.
<mgrwt>
<rscale>  2 0.45378413E+03</rscale>
<asrwt>0</asrwt>
<pdfrwt beam="1">  1       21 0.24831403E-01 0.45378413E+03</pdfrwt>
<pdfrwt beam="2">  1       21 0.44835244E-01 0.45378413E+03</pdfrwt>
<totfact> 0.67811124E+04</totfact>
</mgrwt>
</event>
<event>
 7    0  0.4709932E-002  0.4569222E+03  0.7546771E-02  0.1025678E+00
         21   -1    0    0  502  501  0.00000000000E+00  0.00000000000E+00  0.42818896319E+03  0.42818896319E+03  0.00000000000E+00 0.  1.
         21   -1    0    0  501  502 -0.00000000000E+00 -0.00000000000E+00 -0.12189589108E+03  0.12189589108E+03  0.00000000000E+00 0.  1.
      99926    2    1    2    0    0 -0.71054273576E-14 -0.14210854715E-13  0.30629307212E+03  0.55008485427E+03  0.45692220440E+03 0.  0.
      99925    2    3    3    0    0  0.40938316010E+02 -0.10665731228E+03  0.20805677417E+03  0.35425429916E+03  0.26297672751E+03 0.  0.
         25    1    3    3    0    0 -0.40938316010E+02  0.10665731228E+03  0.98236297952E+02  0.19583055511E+03  0.12509000000E+03 0.  0.
         25    1    4    4    0    0  0.50040306055E+02 -0.45800256469E+02  0.72078454434E+02  0.15951334557E+03  0.12509000000E+03 0.  0.
         25    1    4    4    0    0 -0.91019900449E+01 -0.60857055813E+02  0.13597831973E+03  0.19474095358E+03  0.12509000000E+03 0.  0.
<mgrwt>
<rscale>  2 0.45692220E+03</rscale>
<asrwt>0</asrwt>
<pdfrwt beam="1">  1       21 0.62968965E-01 0.45692220E+03</pdfrwt>
<pdfrwt beam="2">  1       21 0.17925866E-01 0.45692220E+03</pdfrwt>
<totfact> 0.60928977E+04</totfact>
</mgrwt>
</event>
<event>
 7    0  0.4709932E-002  0.4629888E+03  0.7546771E-02  0.1023918E+00
         21   -1    0    0  502  501  0.00000000000E+00  0.00000000000E+00  0.91001054937E+03  0.91001054937E+03  0.00000000000E+00 0. -1.
         21   -1    0    0  501  502 -0.00000000000E+00 -0.00000000000E+00 -0.58889054316E+02  0.58889054316E+02  0.00000000000E+00 0. -1.
      99926    2    1    2    0    0  0.00000000000E+00  0.00000000000E+00  0.85112149505E+03  0.96889960369E+03  0.46298881485E+03 0.  0.
      99925    2    3    3    0    0  0.40658239203E+02  0.31645450295E+02  0.75981697656E+03  0.80568639914E+03  0.26297187864E+03 0.  0.
         25    1    4    4    0    0  0.10939329886E+02 -0.10373458621E+02  0.45664437382E+03  0.47370757839E+03  0.12509000000E+03 0.  0.
         25    1    3    3    0    0 -0.40658239203E+02 -0.31645450295E+02  0.91304518496E+02  0.16321320454E+03  0.12509000000E+03 0.  0.
         25    1    4    4    0    0  0.29718909317E+02  0.42018908916E+02  0.30317260273E+03  0.33197882075E+03  0.12509000000E+03 0.  0.
<mgrwt>
<rscale>  2 0.46298881E+03</rscale>
<asrwt>0</asrwt>
<pdfrwt beam="1">  1       21 0.13382507E+00 0.46298881E+03</pdfrwt>
<pdfrwt beam="2">  1       21 0.86601556E-02 0.46298881E+03</pdfrwt>
<totfact> 0.37958024E+04</totfact>
</mgrwt>
</event>
<event>
 7    0  0.4709932E-002  0.4503289E+03  0.7546771E-02  0.1027624E+00
         21   -1    0    0  502  501  0.00000000000E+00  0.00000000000E+00  0.48892177267E+03  0.48892177267E+03  0.00000000000E+00 0. -1.
         21   -1    0    0  501  502 -0.00000000000E+00 -0.00000000000E+00 -0.10369559485E+03  0.10369559485E+03  0.00000000000E+00 0. -1.
      99926    2    1    2    0    0  0.00000000000E+00  0.00000000000E+00  0.38522617782E+03  0.59261736752E+03  0.45032892002E+03 0.  0.
      99925    2    3    3    0    0  0.35130549173E+02  0.56635735613E+02  0.35639187588E+03  0.44797751443E+03  0.26311009522E+03 0.  0.
         25    1    3    3    0    0 -0.35130549173E+02 -0.56635735613E+02  0.28834301936E+02  0.14463985309E+03  0.12509000000E+03 0.  0.
         25    1    4    4    0    0 -0.21413795069E+02  0.40005202381E+02  0.18000699779E+03  0.22385038349E+03  0.12509000000E+03 0.  0.
         25    1    4    4    0    0  0.56544344243E+02  0.16630533233E+02  0.17638487810E+03  0.22412713094E+03  0.12509000000E+03 0.  0.
<mgrwt>
<rscale>  2 0.45032892E+03</rscale>
<asrwt>0</asrwt>
<pdfrwt beam="1">  1       21 0.71900260E-01 0.45032892E+03</pdfrwt>
<pdfrwt beam="2">  1       21 0.15249352E-01 0.45032892E+03</pdfrwt>
<totfact> 0.61369237E+04</totfact>
</mgrwt>
</event>
<event>
 7    0  0.4709932E-002  0.4502126E+03  0.7546771E-02  0.1027659E+00
         21   -1    0    0  502  501  0.00000000000E+00  0.00000000000E+00  0.57513490557E+02  0.57513490557E+02  0.00000000000E+00 0. -1.
         21   -1    0    0  501  502 -0.00000000000E+00 -0.00000000000E+00 -0.88106005570E+03  0.88106005570E+03  0.00000000000E+00 0. -1.
      99926    2    1    2    0    0  0.35527136788E-14  0.00000000000E+00 -0.82354656514E+03  0.93857354625E+03  0.45021256843E+03 0.  0.
      99925    2    3    3    0    0 -0.20738383342E+02  0.25838511796E+02 -0.73617083937E+03  0.78243343357E+03  0.26297692673E+03 0.  0.
         25    1    4    4    0    0 -0.36950301143E+02  0.19721762408E+02 -0.28732202252E+03  0.31615775397E+03  0.12509000000E+03 0.  0.
         25    1    3    3    0    0  0.20738383342E+02 -0.25838511796E+02 -0.87375725769E+02  0.15614011268E+03  0.12509000000E+03 0.  0.
         25    1    4    4    0    0  0.16211917801E+02  0.61167493888E+01 -0.44884881685E+03  0.46627567960E+03  0.12509000000E+03 0.  0.
<mgrwt>
<rscale>  2 0.45021257E+03</rscale>
<asrwt>0</asrwt>
<pdfrwt beam="1">  1       21 0.84578667E-02 0.45021257E+03</pdfrwt>
<pdfrwt beam="2">  1       21 0.12956765E+00 0.45021257E+03</pdfrwt>
<totfact> 0.43201979E+04</totfact>
</mgrwt>
</event>
<event>
 7    0  0.4709932E-002  0.4096381E+03  0.7546771E-02  0.1040493E+00
         21   -1    0    0  502  501  0.00000000000E+00  0.00000000000E+00  0.11803342247E+03  0.11803342247E+03  0.00000000000E+00 0.  1.
         21   -1    0    0  501  502 -0.00000000000E+00 -0.00000000000E+00 -0.35541495934E+03  0.35541495934E+03  0.00000000000E+00 0.  1.
      99926    2    1    2    0    0  0.00000000000E+00  0.26645352591E-14 -0.23738153687E+03  0.47344838181E+03  0.40963810393E+03 0.  0.
      99925    2    3    3    0    0 -0.58284963034E+02 -0.72261275184E+01 -0.13493633793E+03  0.30142547427E+03  0.26305920894E+03 0.  0.
         25    1    4    4    0    0 -0.43518697019E+02 -0.33261707120E+02 -0.96402511181E+02  0.16715612586E+03  0.12509000000E+03 0.  0.
         25    1    3    3    0    0  0.58284963034E+02  0.72261275184E+01 -0.10244519894E+03  0.17202290754E+03  0.12509000000E+03 0.  0.
         25    1    4    4    0    0 -0.14766266016E+02  0.26035579602E+02 -0.38533826749E+02  0.13426934841E+03  0.12509000000E+03 0.  0.
<mgrwt>
<rscale>  2 0.40963810E+03</rscale>
<asrwt>0</asrwt>
<pdfrwt beam="1">  1       21 0.17357856E-01 0.40963810E+03</pdfrwt>
<pdfrwt beam="2">  1       21 0.52266906E-01 0.40963810E+03</pdfrwt>
<totfact> 0.97975415E+04</totfact>
</mgrwt>
</event>
<event>
 7    0  0.4709932E-002  0.4496950E+03  0.7546771E-02  0.1027813E+00
         21   -1    0    0  502  501  0.00000000000E+00  0.00000000000E+00  0.90168229572E+02  0.90168229572E+02  0.00000000000E+00 0. -1.
         21   -1    0    0  501  502 -0.00000000000E+00 -0.00000000000E+00 -0.56068977453E+03  0.56068977453E+03  0.00000000000E+00 0. -1.
      99926    2    1    2    0    0  0.00000000000E+00  0.17763568394E-14 -0.47052154496E+03  0.65085800411E+03  0.44969502692E+03 0.  0.
      99925    2    3    3    0    0  0.29965229815E+02 -0.88068513726E+01 -0.44736741323E+03  0.51986526559E+03  0.26295782231E+03 0.  0.
         25    1    4    4    0    0 -0.11261991990E+02  0.13887546055E+02 -0.26686204801E+03  0.29526692528E+03  0.12509000000E+03 0.  0.
         25    1    4    4    0    0  0.41227221805E+02 -0.22694397428E+02 -0.18050536523E+03  0.22459834030E+03  0.12509000000E+03 0.  0.
         25    1    3    3    0    0 -0.29965229815E+02  0.88068513726E+01 -0.23154131731E+02  0.13099273852E+03  0.12509000000E+03 0.  0.
<mgrwt>
<rscale>  2 0.44969503E+03</rscale>
<asrwt>0</asrwt>
<pdfrwt beam="1">  1       21 0.13260034E-01 0.44969503E+03</pdfrwt>
<pdfrwt beam="2">  1       21 0.82454377E-01 0.44969503E+03</pdfrwt>
<totfact> 0.58043187E+04</totfact>
</mgrwt>
</event>
<event>
 7    0  0.4709932E-002  0.4633256E+03  0.7546771E-02  0.1023821E+00
         21   -1    0    0  502  501  0.00000000000E+00  0.00000000000E+00  0.39104007168E+03  0.39104007168E+03  0.00000000000E+00 0.  1.
         21   -1    0    0  501  502 -0.00000000000E+00 -0.00000000000E+00 -0.13724336880E+03  0.13724336880E+03  0.00000000000E+00 0.  1.
      99926    2    1    2    0    0  0.00000000000E+00  0.00000000000E+00  0.25379670289E+03  0.52828344048E+03  0.46332561670E+03 0.  0.
      99925    2    3    3    0    0 -0.40905337864E+02  0.71855334524E+02  0.25894691614E+03  0.37824854933E+03  0.26302475915E+03 0.  0.
         25    1    3    3    0    0  0.40905337864E+02 -0.71855334524E+02 -0.51502132547E+01  0.15003489115E+03  0.12509000000E+03 0.  0.
         25    1    4    4    0    0 -0.44991716567E+02  0.53092901298E+02  0.17630769770E+03  0.22710134983E+03  0.12509000000E+03 0.  0.
         25    1    4    4    0    0  0.40863787033E+01  0.18762433225E+02  0.82639218441E+02  0.15114719950E+03  0.12509000000E+03 0.  0.
<mgrwt>
<rscale>  2 0.46332562E+03</rscale>
<asrwt>0</asrwt>
<pdfrwt beam="1">  1       21 0.57505892E-01 0.46332562E+03</pdfrwt>
<pdfrwt beam="2">  1       21 0.20182849E-01 0.46332562E+03</pdfrwt>
<totfact> 0.59310484E+04</totfact>
</mgrwt>
</event>
<event>
 7    0  0.4709932E-002  0.4593110E+03  0.7546771E-02  0.1024981E+00
         21   -1    0    0  502  501  0.00000000000E+00  0.00000000000E+00  0.14511899364E+04  0.14511899364E+04  0.00000000000E+00 0.  1.
         21   -1    0    0  501  502 -0.00000000000E+00 -0.00000000000E+00 -0.36343724976E+02  0.36343724976E+02  0.00000000000E+00 0.  1.
      99926    2    1    2    0    0  0.35527136788E-14  0.00000000000E+00  0.14148462114E+04  0.14875336614E+04  0.45931099676E+03 0.  0.
      99925    2    3    3    0    0  0.22167191385E+02  0.11479561886E+03  0.91166040388E+03  0.95601425111E+03  0.26300026203E+03 0.  0.
         25    1    4    4    0    0  0.27527592060E+02  0.71576167674E+02  0.36167586284E+03  0.39030482186E+03  0.12509000000E+03 0.  0.
         25    1    3    3    0    0 -0.22167191385E+02 -0.11479561886E+03  0.50318580755E+03  0.53151941028E+03  0.12509000000E+03 0.  0.
         25    1    4    4    0    0 -0.53604006750E+01  0.43219451184E+02  0.54998454104E+03  0.56570942925E+03  0.12509000000E+03 0.  0.
<mgrwt>
<rscale>  2 0.45931100E+03</rscale>
<asrwt>0</asrwt>
<pdfrwt beam="1">  1       21 0.21341025E+00 0.45931100E+03</pdfrwt>
<pdfrwt beam="2">  1       21 0.53446664E-02 0.45931100E+03</pdfrwt>
<totfact> 0.23296400E+04</totfact>
</mgrwt>
</event>
<event>
 7    0  0.4709932E-002  0.4499976E+03  0.7546771E-02  0.1027723E+00
         21   -1    0    0  502  501  0.00000000000E+00  0.00000000000E+00  0.60125653316E+03  0.60125653316E+03  0.00000000000E+00 0. -1.
         21   -1    0    0  501  502 -0.00000000000E+00 -0.00000000000E+00 -0.84197782846E+02  0.84197782846E+02  0.00000000000E+00 0. -1.
      99926    2    1    2    0    0  0.00000000000E+00  0.14210854715E-13  0.51705875032E+03  0.68545431601E+03  0.44999763117E+03 0.  0.
      99925    2    3    3    0    0 -0.43107411342E+02  0.75861571227E+02  0.42482509246E+03  0.50721912688E+03  0.26302406086E+03 0.  0.
         25    1    3    3    0    0  0.43107411342E+02 -0.75861571227E+02  0.92233657861E+02  0.17823518913E+03  0.12509000000E+03 0.  0.
         25    1    4    4    0    0 -0.36304496077E+02  0.64869828982E+02  0.17552735696E+03  0.22799884273E+03  0.12509000000E+03 0.  0.
         25    1    4    4    0    0 -0.68029152648E+01  0.10991742245E+02  0.24929773550E+03  0.27922028415E+03  0.12509000000E+03 0.  0.
<mgrwt>
<rscale>  2 0.44999763E+03</rscale>
<asrwt>0</asrwt>
<pdfrwt beam="1">  1       21 0.88420077E-01 0.44999763E+03</pdfrwt>
<pdfrwt beam="2">  1       21 0.12382027E-01 0.44999763E+03</pdfrwt>
<totfact> 0.55867992E+04</totfact>
</mgrwt>
</event>
<event>
 7    0  0.4709932E-002  0.4568441E+03  0.7546771E-02  0.1025700E+00
         21   -1    0    0  502  501  0.00000000000E+00  0.00000000000E+00  0.49845620647E+02  0.49845620647E+02  0.00000000000E+00 0.  1.
         21   -1    0    0  501  502 -0.00000000000E+00 -0.00000000000E+00 -0.10467648268E+04  0.10467648268E+04  0.00000000000E+00 0.  1.
      99926    2    1    2    0    0 -0.14210854715E-13  0.18873791419E-14 -0.99691920618E+03  0.10966104475E+04  0.45684414176E+03 0.  0.
      99925    2    3    3    0    0  0.96477335362E+02 -0.26218148624E+00 -0.77597474044E+03  0.82500059858E+03  0.26302327819E+03 0.  0.
         25    1    3    3    0    0 -0.96477335362E+02  0.26218148624E+00 -0.22094446573E+03  0.27160984889E+03  0.12509000000E+03 0.  0.
         25    1    4    4    0    0  0.16998566394E+02  0.21949348542E+02 -0.30708631569E+03  0.33274650794E+03  0.12509000000E+03 0.  0.
         25    1    4    4    0    0  0.79478768969E+02 -0.22211530029E+02 -0.46888842476E+03  0.49225409064E+03  0.12509000000E+03 0.  0.
<mgrwt>
<rscale>  2 0.45684414E+03</rscale>
<asrwt>0</asrwt>
<pdfrwt beam="1">  1       21 0.73302383E-02 0.45684414E+03</pdfrwt>
<pdfrwt beam="2">  1       21 0.15393600E+00 0.45684414E+03</pdfrwt>
<totfact> 0.35104251E+04</totfact>
</mgrwt>
</event>
<event>
 7    0  0.4709932E-002  0.4489752E+03  0.7546771E-02  0.1028028E+00
         21   -1    0    0  502  501  0.00000000000E+00  0.00000000000E+00  0.70902274415E+03  0.70902274415E+03  0.00000000000E+00 0.  1.
         21   -1    0    0  501  502 -0.00000000000E+00 -0.00000000000E+00 -0.71076261361E+02  0.71076261361E+02  0.00000000000E+00 0.  1.
      99926    2    1    2    0    0  0.00000000000E+00  0.88817841970E-15  0.63794648279E+03  0.78009900551E+03  0.44897521479E+03 0.  0.
      99925    2    3    3    0    0 -0.85034947554E+02 -0.70540177520E+01  0.51704051825E+03  0.58632991140E+03  0.26300411787E+03 0.  0.
         25    1    3    3    0    0  0.85034947554E+02  0.70540177520E+01  0.12090596454E+03  0.19376909411E+03  0.12509000000E+03 0.  0.
         25    1    4    4    0    0 -0.27088876676E+02 -0.42648008189E+00  0.32943321688E+03  0.35342289345E+03  0.12509000000E+03 0.  0.
         25    1    4    4    0    0 -0.57946070878E+02 -0.66275376701E+01  0.18760730137E+03  0.23290701795E+03  0.12509000000E+03 0.  0.
<mgrwt>
<rscale>  2 0.44897521E+03</rscale>
<asrwt>0</asrwt>
<pdfrwt beam="1">  1       21 0.10426805E+00 0.44897521E+03</pdfrwt>
<pdfrwt beam="2">  1       21 0.10452392E-01 0.44897521E+03</pdfrwt>
<totfact> 0.51117316E+04</totfact>
</mgrwt>
</event>
<event>
 7    0  0.4709932E-002  0.4567992E+03  0.7546771E-02  0.1025714E+00
         21   -1    0    0  502  501  0.00000000000E+00  0.00000000000E+00  0.89951428424E+03  0.89951428424E+03  0.00000000000E+00 0. -1.
         21   -1    0    0  501  502 -0.00000000000E+00 -0.00000000000E+00 -0.57993952458E+02  0.57993952458E+02  0.00000000000E+00 0. -1.
      99926    2    1    2    0    0  0.00000000000E+00  0.00000000000E+00  0.84152033178E+03  0.95750823670E+03  0.45679924972E+03 0.  0.
      99925    2    3    3    0    0  0.10310709188E+03 -0.37144268831E+02  0.45730486391E+03  0.53884392851E+03  0.26308605366E+03 0.  0.
         25    1    4    4    0    0  0.46137262758E+02  0.18993704285E+02  0.24828648940E+03  0.28245901780E+03  0.12509000000E+03 0.  0.
         25    1    4    4    0    0  0.56969829121E+02 -0.56137973116E+02  0.20901837451E+03  0.25638491071E+03  0.12509000000E+03 0.  0.
         25    1    3    3    0    0 -0.10310709188E+03  0.37144268831E+02  0.38421546787E+03  0.41866430819E+03  0.12509000000E+03 0.  0.
<mgrwt>
<rscale>  2 0.45679925E+03</rscale>
<asrwt>0</asrwt>
<pdfrwt beam="1">  1       21 0.13228150E+00 0.45679925E+03</pdfrwt>
<pdfrwt beam="2">  1       21 0.85285230E-02 0.45679925E+03</pdfrwt>
<totfact> 0.40268768E+04</totfact>
</mgrwt>
</event>
<event>
 7    0  0.4709932E-002  0.4590329E+03  0.7546771E-02  0.1025062E+00
         21   -1    0    0  502  501  0.00000000000E+00  0.00000000000E+00  0.69894620831E+03  0.69894620831E+03  0.00000000000E+00 0.  1.
         21   -1    0    0  501  502 -0.00000000000E+00 -0.00000000000E+00 -0.75367474639E+02  0.75367474639E+02  0.00000000000E+00 0.  1.
      99926    2    1    2    0    0 -0.17763568394E-14  0.00000000000E+00  0.62357873367E+03  0.77431368295E+03  0.45903294274E+03 0.  0.
      99925    2    3    3    0    0  0.13387235878E+02  0.11608816605E+03  0.39609926750E+03  0.48962069741E+03  0.26301733259E+03 0.  0.
         25    1    4    4    0    0 -0.18405458930E+02  0.78879799779E+02  0.16513008822E+03  0.22243254678E+03  0.12509000000E+03 0.  0.
         25    1    3    3    0    0 -0.13387235878E+02 -0.11608816605E+03  0.22747946618E+03  0.28469298554E+03  0.12509000000E+03 0.  0.
         25    1    4    4    0    0  0.31792694808E+02  0.37208366273E+02  0.23096917928E+03  0.26718815064E+03  0.12509000000E+03 0.  0.
<mgrwt>
<rscale>  2 0.45903294E+03</rscale>
<asrwt>0</asrwt>
<pdfrwt beam="1">  1       21 0.10278620E+00 0.45903294E+03</pdfrwt>
<pdfrwt beam="2">  1       21 0.11083453E-01 0.45903294E+03</pdfrwt>
<totfact> 0.47510336E+04</totfact>
</mgrwt>
</event>
<event>
 7    0  0.4709932E-002  0.4674074E+03  0.7546771E-02  0.1022655E+00
         21   -1    0    0  502  501  0.00000000000E+00  0.00000000000E+00  0.38248118715E+03  0.38248118715E+03  0.00000000000E+00 0. -1.
         21   -1    0    0  501  502 -0.00000000000E+00 -0.00000000000E+00 -0.14279765156E+03  0.14279765156E+03  0.00000000000E+00 0. -1.
      99926    2    1    2    0    0 -0.17763568394E-14  0.00000000000E+00  0.23968353559E+03  0.52527883870E+03  0.46740738244E+03 0.  0.
      99925    2    3    3    0    0 -0.15376444204E+02  0.10689676449E+03  0.79421886001E+02  0.29507315302E+03  0.26286303727E+03 0.  0.
         25    1    4    4    0    0 -0.35369253841E+02  0.26739964703E+02  0.21912729401E+02  0.13451277129E+03  0.12509000000E+03 0.  0.
         25    1    3    3    0    0  0.15376444204E+02 -0.10689676449E+03  0.16026164959E+03  0.23020568569E+03  0.12509000000E+03 0.  0.
         25    1    4    4    0    0  0.19992809638E+02  0.80156799784E+02  0.57509156600E+02  0.16056038173E+03  0.12509000000E+03 0.  0.
<mgrwt>
<rscale>  2 0.46740738E+03</rscale>
<asrwt>0</asrwt>
<pdfrwt beam="1">  1       21 0.56247234E-01 0.46740738E+03</pdfrwt>
<pdfrwt beam="2">  1       21 0.20999655E-01 0.46740738E+03</pdfrwt>
<totfact> 0.57642008E+04</totfact>
</mgrwt>
</event>
<event>
 7    0  0.4709932E-002  0.4528536E+03  0.7546771E-02  0.1026874E+00
         21   -1    0    0  502  501  0.00000000000E+00  0.00000000000E+00  0.10224522569E+03  0.10224522569E+03  0.00000000000E+00 0. -1.
         21   -1    0    0  501  502 -0.00000000000E+00 -0.00000000000E+00 -0.50143273364E+03  0.50143273364E+03  0.00000000000E+00 0. -1.
      99926    2    1    2    0    0  0.00000000000E+00  0.00000000000E+00 -0.39918750794E+03  0.60367795933E+03  0.45285363207E+03 0.  0.
      99925    2    3    3    0    0 -0.99491542412E+02 -0.49294751360E+02 -0.25534265007E+03  0.38307109008E+03  0.26308753598E+03 0.  0.
         25    1    4    4    0    0 -0.16161900470E+02 -0.43237446174E+02 -0.14149551894E+03  0.19442009608E+03  0.12509000000E+03 0.  0.
         25    1    3    3    0    0  0.99491542412E+02  0.49294751360E+02 -0.14384485788E+03  0.22060686925E+03  0.12509000000E+03 0.  0.
         25    1    4    4    0    0 -0.83329641942E+02 -0.60573051868E+01 -0.11384713113E+03  0.18865099400E+03  0.12509000000E+03 0.  0.
<mgrwt>
<rscale>  2 0.45285363E+03</rscale>
<asrwt>0</asrwt>
<pdfrwt beam="1">  1       21 0.15036063E-01 0.45285363E+03</pdfrwt>
<pdfrwt beam="2">  1       21 0.73740106E-01 0.45285363E+03</pdfrwt>
<totfact> 0.59454220E+04</totfact>
</mgrwt>
</event>
<event>
 7    0  0.4709932E-002  0.4528954E+03  0.7546771E-02  0.1026862E+00
         21   -1    0    0  502  501  0.00000000000E+00  0.00000000000E+00  0.25706119096E+03  0.25706119096E+03  0.00000000000E+00 0. -1.
         21   -1    0    0  501  502 -0.00000000000E+00 -0.00000000000E+00 -0.19948000141E+03  0.19948000141E+03  0.00000000000E+00 0. -1.
      99926    2    1    2    0    0  0.35527136788E-14  0.00000000000E+00  0.57581189552E+02  0.45654119237E+03  0.45289542605E+03 0.  0.
      99925    2    3    3    0    0  0.18201301912E+02  0.10405297895E+03  0.71284598733E+02  0.29224389677E+03  0.26299561092E+03 0.  0.
         25    1    4    4    0    0  0.37151046069E+02  0.63723830345E+02  0.65558724021E+02  0.15933104272E+03  0.12509000000E+03 0.  0.
         25    1    4    4    0    0 -0.18949744157E+02  0.40329148603E+02  0.57258747119E+01  0.13291285405E+03  0.12509000000E+03 0.  0.
         25    1    3    3    0    0 -0.18201301912E+02 -0.10405297895E+03 -0.13703409181E+02  0.16429729560E+03  0.12509000000E+03 0.  0.
<mgrwt>
<rscale>  2 0.45289543E+03</rscale>
<asrwt>0</asrwt>
<pdfrwt beam="1">  1       21 0.37803117E-01 0.45289543E+03</pdfrwt>
<pdfrwt beam="2">  1       21 0.29335294E-01 0.45289543E+03</pdfrwt>
<totfact> 0.69594083E+04</totfact>
</mgrwt>
</event>
<event>
 7    0  0.4709932E-002  0.4531966E+03  0.7546771E-02  0.1026773E+00
         21   -1    0    0  502  501  0.00000000000E+00  0.00000000000E+00  0.48791794311E+03  0.48791794311E+03  0.00000000000E+00 0. -1.
         21   -1    0    0  501  502 -0.00000000000E+00 -0.00000000000E+00 -0.10523653441E+03  0.10523653441E+03  0.00000000000E+00 0. -1.
      99926    2    1    2    0    0  0.26645352591E-14  0.14210854715E-13  0.38268140870E+03  0.59315447753E+03  0.45319661699E+03 0.  0.
      99925    2    3    3    0    0  0.43965766302E+01 -0.73460469746E+02  0.13199290041E+03  0.30348568944E+03  0.26318371423E+03 0.  0.
         25    1    4    4    0    0 -0.25401888604E+02 -0.68088473448E+01  0.51726027193E+02  0.13789382269E+03  0.12509000000E+03 0.  0.
         25    1    3    3    0    0 -0.43965766302E+01  0.73460469746E+02  0.25068850829E+03  0.28966878808E+03  0.12509000000E+03 0.  0.
         25    1    4    4    0    0  0.29798465234E+02 -0.66651622401E+02  0.80266873213E+02  0.16559186675E+03  0.12509000000E+03 0.  0.
<mgrwt>
<rscale>  2 0.45319662E+03</rscale>
<asrwt>0</asrwt>
<pdfrwt beam="1">  1       21 0.71752638E-01 0.45319662E+03</pdfrwt>
<pdfrwt beam="2">  1       21 0.15475961E-01 0.45319662E+03</pdfrwt>
<totfact> 0.59951469E+04</totfact>
</mgrwt>
</event>
<event>
 7    0  0.4709932E-002  0.4668968E+03  0.7546771E-02  0.1022800E+00
         21   -1    0    0  502  501  0.00000000000E+00  0.00000000000E+00  0.94383603461E+02  0.94383603461E+02  0.00000000000E+00 0. -1.
         21   -1    0    0  501  502 -0.00000000000E+00 -0.00000000000E+00 -0.57741122653E+03  0.57741122653E+03  0.00000000000E+00 0. -1.
      99926    2    1    2    0    0  0.00000000000E+00  0.00000000000E+00 -0.48302762307E+03  0.67179482999E+03  0.46689678619E+03 0.  0.
      99925    2    3    3    0    0  0.48959014823E+02 -0.11357699000E+03 -0.31401763065E+03  0.42785097696E+03  0.26296894939E+03 0.  0.
         25    1    4    4    0    0  0.34351872653E+02 -0.44351582934E+02 -0.98490222292E+02  0.16880446099E+03  0.12509000000E+03 0.  0.
         25    1    3    3    0    0 -0.48959014823E+02  0.11357699000E+03 -0.16900999242E+03  0.24394385303E+03  0.12509000000E+03 0.  0.
         25    1    4    4    0    0  0.14607142170E+02 -0.69225407068E+02 -0.21552740835E+03  0.25904651597E+03  0.12509000000E+03 0.  0.
<mgrwt>
<rscale>  2 0.46689679E+03</rscale>
<asrwt>0</asrwt>
<pdfrwt beam="1">  1       21 0.13879941E-01 0.46689679E+03</pdfrwt>
<pdfrwt beam="2">  1       21 0.84913418E-01 0.46689679E+03</pdfrwt>
<totfact> 0.49639456E+04</totfact>
</mgrwt>
</event>
<event>
 7    0  0.4709932E-002  0.4453910E+03  0.7546771E-02  0.1029105E+00
         21   -1    0    0  502  501  0.00000000000E+00  0.00000000000E+00  0.93689918641E+02  0.93689918641E+02  0.00000000000E+00 0.  1.
         21   -1    0    0  501  502 -0.00000000000E+00 -0.00000000000E+00 -0.52933418610E+03  0.52933418610E+03  0.00000000000E+00 0.  1.
      99926    2    1    2    0    0  0.00000000000E+00  0.14210854715E-13 -0.43564426745E+03  0.62302410474E+03  0.44539096007E+03 0.  0.
      99925    2    3    3    0    0  0.13588993895E+02  0.82434888157E+02 -0.19025513819E+03  0.33519862914E+03  0.26302268311E+03 0.  0.
         25    1    4    4    0    0  0.20127153548E+02  0.31854363193E+02 -0.13888499155E+03  0.19067341645E+03  0.12509000000E+03 0.  0.
         25    1    4    4    0    0 -0.65381596525E+01  0.50580524964E+02 -0.51370146647E+02  0.14452521269E+03  0.12509000000E+03 0.  0.
         25    1    3    3    0    0 -0.13588993895E+02 -0.82434888157E+02 -0.24538912926E+03  0.28782547559E+03  0.12509000000E+03 0.  0.
<mgrwt>
<rscale>  2 0.44539096E+03</rscale>
<asrwt>0</asrwt>
<pdfrwt beam="1">  1       21 0.13777930E-01 0.44539096E+03</pdfrwt>
<pdfrwt beam="2">  1       21 0.77843260E-01 0.44539096E+03</pdfrwt>
<totfact> 0.61842915E+04</totfact>
</mgrwt>
</event>
<event>
 7    0  0.4709932E-002  0.4277836E+03  0.7546771E-02  0.1034562E+00
         21   -1    0    0  502  501  0.00000000000E+00  0.00000000000E+00  0.86933163911E+03  0.86933163911E+03  0.00000000000E+00 0.  1.
         21   -1    0    0  501  502 -0.00000000000E+00 -0.00000000000E+00 -0.52626297563E+02  0.52626297563E+02  0.00000000000E+00 0.  1.
      99926    2    1    2    0    0  0.35527136788E-14  0.00000000000E+00  0.81670534155E+03  0.92195793667E+03  0.42778361596E+03 0.  0.
      99925    2    3    3    0    0  0.19383732270E+02 -0.10133269125E+02  0.35044938832E+03  0.43871831264E+03  0.26302199879E+03 0.  0.
         25    1    4    4    0    0  0.17679873674E+01 -0.18043338197E+02  0.11255316297E+03  0.16924659650E+03  0.12509000000E+03 0.  0.
         25    1    4    4    0    0  0.17615744903E+02  0.79100690715E+01  0.23789622535E+03  0.26947171614E+03  0.12509000000E+03 0.  0.
         25    1    3    3    0    0 -0.19383732270E+02  0.10133269125E+02  0.46625595322E+03  0.48323962403E+03  0.12509000000E+03 0.  0.
<mgrwt>
<rscale>  2 0.42778362E+03</rscale>
<asrwt>0</asrwt>
<pdfrwt beam="1">  1       21 0.12784288E+00 0.42778362E+03</pdfrwt>
<pdfrwt beam="2">  1       21 0.77391619E-02 0.42778362E+03</pdfrwt>
<totfact> 0.52642699E+04</totfact>
</mgrwt>
</event>
<event>
 7    0  0.4709932E-002  0.4558040E+03  0.7546771E-02  0.1026005E+00
         21   -1    0    0  502  501  0.00000000000E+00  0.00000000000E+00  0.41448684759E+02  0.41448684759E+02  0.00000000000E+00 0.  1.
         21   -1    0    0  501  502 -0.00000000000E+00 -0.00000000000E+00 -0.12530993777E+04  0.12530993777E+04  0.00000000000E+00 0.  1.
      99926    2    1    2    0    0  0.00000000000E+00 -0.71054273576E-14 -0.12116506930E+04  0.12945480625E+04  0.45580399770E+03 0.  0.
      99925    2    3    3    0    0  0.59635586833E+02  0.62798295780E+02 -0.97217728878E+03  0.10108315692E+04  0.26296720562E+03 0.  0.
         25    1    3    3    0    0 -0.59635586833E+02 -0.62798295780E+02 -0.23947340419E+03  0.28371649332E+03  0.12509000000E+03 0.  0.
         25    1    4    4    0    0  0.28052416038E+02  0.68094951223E+02 -0.44530347052E+03  0.46836582858E+03  0.12509000000E+03 0.  0.
         25    1    4    4    0    0  0.31583170795E+02 -0.52966554434E+01 -0.52687381827E+03  0.54246574059E+03  0.12509000000E+03 0.  0.
<mgrwt>
<rscale>  2 0.45580400E+03</rscale>
<asrwt>0</asrwt>
<pdfrwt beam="1">  1       21 0.60953942E-02 0.45580400E+03</pdfrwt>
<pdfrwt beam="2">  1       21 0.18427934E+00 0.45580400E+03</pdfrwt>
<totfact> 0.29091118E+04</totfact>
</mgrwt>
</event>
<event>
 6    0  0.4709932E-002  0.4520821E+03  0.7546771E-02  0.1027103E+00
         21   -1    0    0  502  501  0.00000000000E+00  0.00000000000E+00  0.18100837529E+04  0.18100837529E+04  0.00000000000E+00 0.  1.
         21   -1    0    0  501  502 -0.00000000000E+00 -0.00000000000E+00 -0.28227732969E+02  0.28227732969E+02  0.00000000000E+00 0.  1.
      99926    2    1    2    0    0  0.00000000000E+00  0.00000000000E+00  0.17818560199E+04  0.18383114858E+04  0.45208212010E+03 0.  0.
         25    1    3    3    0    0 -0.73136440166E+02  0.55074386486E+02  0.63418659756E+03  0.65285701004E+03  0.12509000000E+03 0.  0.
         25    1    3    3    0    0  0.86567334469E+01  0.14239800389E+02  0.33938798050E+03  0.36209034833E+03  0.12509000000E+03 0.  0.
         25    1    3    3    0    0  0.64479706720E+02 -0.69314186874E+02  0.80828144184E+03  0.82336412747E+03  0.12509000000E+03 0.  0.
<mgrwt>
<rscale>  2 0.45208212E+03</rscale>
<asrwt>0</asrwt>
<pdfrwt beam="1">  1       21 0.26618871E+00 0.45208212E+03</pdfrwt>
<pdfrwt beam="2">  1       21 0.41511384E-02 0.45208212E+03</pdfrwt>
<totfact> 0.16914309E+04</totfact>
</mgrwt>
</event>
<event>
 7    0  0.4709932E-002  0.4563337E+03  0.7546771E-02  0.1025850E+00
         21   -1    0    0  502  501  0.00000000000E+00  0.00000000000E+00  0.29795324544E+02  0.29795324544E+02  0.00000000000E+00 0.  1.
         21   -1    0    0  501  502 -0.00000000000E+00 -0.00000000000E+00 -0.17472577867E+04  0.17472577867E+04  0.00000000000E+00 0.  1.
      99926    2    1    2    0    0  0.00000000000E+00  0.00000000000E+00 -0.17174624622E+04  0.17770531113E+04  0.45633370604E+03 0.  0.
      99925    2    3    3    0    0 -0.25229306453E+02  0.95449210536E+02 -0.13046610173E+04  0.13345606134E+04  0.26299161776E+03 0.  0.
         25    1    4    4    0    0 -0.17598014770E+02  0.81952791874E+02 -0.82412434154E+03  0.83776750274E+03  0.12509000000E+03 0.  0.
         25    1    3    3    0    0  0.25229306453E+02 -0.95449210536E+02 -0.41280144487E+03  0.44249249788E+03  0.12509000000E+03 0.  0.
         25    1    4    4    0    0 -0.76312916836E+01  0.13496418662E+02 -0.48053667577E+03  0.49679311065E+03  0.12509000000E+03 0.  0.
<mgrwt>
<rscale>  2 0.45633371E+03</rscale>
<asrwt>0</asrwt>
<pdfrwt beam="1">  1       21 0.43816648E-02 0.45633371E+03</pdfrwt>
<pdfrwt beam="2">  1       21 0.25694971E+00 0.45633371E+03</pdfrwt>
<totfact> 0.17522417E+04</totfact>
</mgrwt>
</event>
<event>
 7    0  0.4709932E-002  0.4685487E+03  0.7546771E-02  0.1022331E+00
         21   -1    0    0  502  501  0.00000000000E+00  0.00000000000E+00  0.83136126775E+03  0.83136126775E+03  0.00000000000E+00 0. -1.
         21   -1    0    0  501  502 -0.00000000000E+00 -0.00000000000E+00 -0.66017587526E+02  0.66017587526E+02  0.00000000000E+00 0. -1.
      99926    2    1    2    0    0 -0.71054273576E-14  0.00000000000E+00  0.76534368023E+03  0.89737885528E+03  0.46854867521E+03 0.  0.
      99925    2    3    3    0    0 -0.62448998231E+02 -0.92133058208E+02  0.58662773062E+03  0.65248035275E+03  0.26307819865E+03 0.  0.
         25    1    4    4    0    0  0.55487379844E+01 -0.63160818276E+02  0.27873106952E+03  0.31202338802E+03  0.12509000000E+03 0.  0.
         25    1    3    3    0    0  0.62448998231E+02  0.92133058208E+02  0.17871594961E+03  0.24489850252E+03  0.12509000000E+03 0.  0.
         25    1    4    4    0    0 -0.67997736215E+02 -0.28972239932E+02  0.30789666110E+03  0.34045696473E+03  0.12509000000E+03 0.  0.
<mgrwt>
<rscale>  2 0.46854868E+03</rscale>
<asrwt>0</asrwt>
<pdfrwt beam="1">  1       21 0.12225900E+00 0.46854868E+03</pdfrwt>
<pdfrwt beam="2">  1       21 0.97084692E-02 0.46854868E+03</pdfrwt>
<totfact> 0.39038120E+04</totfact>
</mgrwt>
</event>
<event>
 7    0  0.4709932E-002  0.4575350E+03  0.7546771E-02  0.1025499E+00
         21   -1    0    0  502  501  0.00000000000E+00  0.00000000000E+00  0.23354754569E+03  0.23354754569E+03  0.00000000000E+00 0.  1.
         21   -1    0    0  501  502 -0.00000000000E+00 -0.00000000000E+00 -0.22408532945E+03  0.22408532945E+03  0.00000000000E+00 0.  1.
      99926    2    1    2    0    0  0.00000000000E+00  0.00000000000E+00  0.94622162458E+01  0.45763287514E+03  0.45753504224E+03 0.  0.
      99925    2    3    3    0    0  0.43289355947E+02  0.80731219890E+02  0.76367696984E+02  0.28876798934E+03  0.26298940725E+03 0.  0.
         25    1    4    4    0    0  0.22667183701E+02  0.71096609562E+02  0.11708435636E+02  0.14612708398E+03  0.12509000000E+03 0.  0.
         25    1    4    4    0    0  0.20622172247E+02  0.96346103272E+01  0.64659261347E+02  0.14264090536E+03  0.12509000000E+03 0.  0.
         25    1    3    3    0    0 -0.43289355947E+02 -0.80731219890E+02 -0.66905480738E+02  0.16886488580E+03  0.12509000000E+03 0.  0.
<mgrwt>
<rscale>  2 0.45753504E+03</rscale>
<asrwt>0</asrwt>
<pdfrwt beam="1">  1       21 0.34345228E-01 0.45753504E+03</pdfrwt>
<pdfrwt beam="2">  1       21 0.32953725E-01 0.45753504E+03</pdfrwt>
<totfact> 0.66988089E+04</totfact>
</mgrwt>
</event>
<event>
 7    0  0.4709932E-002  0.4504678E+03  0.7546771E-02  0.1027583E+00
         21   -1    0    0  502  501  0.00000000000E+00  0.00000000000E+00  0.13640423556E+03  0.13640423556E+03  0.00000000000E+00 0. -1.
         21   -1    0    0  501  502 -0.00000000000E+00 -0.00000000000E+00 -0.37191154297E+03  0.37191154297E+03  0.00000000000E+00 0. -1.
      99926    2    1    2    0    0  0.00000000000E+00  0.00000000000E+00 -0.23550730741E+03  0.50831577854E+03  0.45046780003E+03 0.  0.
      99925    2    3    3    0    0 -0.81553882063E+02 -0.36502906659E+02 -0.78253668248E+02  0.28840735895E+03  0.26281489728E+03 0.  0.
         25    1    3    3    0    0  0.81553882063E+02  0.36502906659E+02 -0.15725363916E+03  0.21990841958E+03  0.12509000000E+03 0.  0.
         25    1    4    4    0    0 -0.47201140661E+01 -0.18869830925E+02 -0.57718979998E+02  0.13913065352E+03  0.12509000000E+03 0.  0.
         25    1    4    4    0    0 -0.76833767997E+02 -0.17633075735E+02 -0.20534688250E+02  0.14927670544E+03  0.12509000000E+03 0.  0.
<mgrwt>
<rscale>  2 0.45046780E+03</rscale>
<asrwt>0</asrwt>
<pdfrwt beam="1">  1       21 0.20059446E-01 0.45046780E+03</pdfrwt>
<pdfrwt beam="2">  1       21 0.54692874E-01 0.45046780E+03</pdfrwt>
<totfact> 0.67070421E+04</totfact>
</mgrwt>
</event>
<event>
 7    0  0.4709932E-002  0.4543675E+03  0.7546771E-02  0.1026428E+00
         21   -1    0    0  502  501  0.00000000000E+00  0.00000000000E+00  0.28674807267E+03  0.28674807267E+03  0.00000000000E+00 0. -1.
         21   -1    0    0  501  502 -0.00000000000E+00 -0.00000000000E+00 -0.17999230102E+03  0.17999230102E+03  0.00000000000E+00 0. -1.
      99926    2    1    2    0    0  0.00000000000E+00  0.00000000000E+00  0.10675577165E+03  0.46674037369E+03  0.45436745224E+03 0.  0.
      99925    2    3    3    0    0  0.72581814731E+02  0.81934533125E+02  0.38569518419E+02  0.28707885645E+03  0.26257432190E+03 0.  0.
         25    1    4    4    0    0  0.28243030145E+02  0.79185043668E+02  0.32592545511E+02  0.15420026594E+03  0.12509000000E+03 0.  0.
         25    1    3    3    0    0 -0.72581814731E+02 -0.81934533125E+02  0.68186253236E+02  0.17966151724E+03  0.12509000000E+03 0.  0.
         25    1    4    4    0    0  0.44338784586E+02  0.27494894571E+01  0.59769729082E+01  0.13287859051E+03  0.12509000000E+03 0.  0.
<mgrwt>
<rscale>  2 0.45436745E+03</rscale>
<asrwt>0</asrwt>
<pdfrwt beam="1">  1       21 0.42168834E-01 0.45436745E+03</pdfrwt>
<pdfrwt beam="2">  1       21 0.26469456E-01 0.45436745E+03</pdfrwt>
<totfact> 0.68019778E+04</totfact>
</mgrwt>
</event>
<event>
 7    0  0.4709932E-002  0.4466806E+03  0.7546771E-02  0.1028717E+00
         21   -1    0    0  502  501  0.00000000000E+00  0.00000000000E+00  0.10406709308E+04  0.10406709308E+04  0.00000000000E+00 0.  1.
         21   -1    0    0  501  502 -0.00000000000E+00 -0.00000000000E+00 -0.47931475360E+02  0.47931475360E+02  0.00000000000E+00 0.  1.
      99926    2    1    2    0    0  0.00000000000E+00  0.00000000000E+00  0.99273945543E+03  0.10886024061E+04  0.44668061555E+03 0.  0.
      99925    2    3    3    0    0  0.42997803516E+02  0.32788060072E+02  0.84922711960E+03  0.89069544157E+03  0.26311176521E+03 0.  0.
         25    1    4    4    0    0 -0.70643160228E+01  0.45107083892E+02  0.40630452734E+03  0.42756921149E+03  0.12509000000E+03 0.  0.
         25    1    3    3    0    0 -0.42997803516E+02 -0.32788060072E+02  0.14351233583E+03  0.19790696457E+03  0.12509000000E+03 0.  0.
         25    1    4    4    0    0  0.50062119539E+02 -0.12319023821E+02  0.44292259225E+03  0.46312623008E+03  0.12509000000E+03 0.  0.
<mgrwt>
<rscale>  2 0.44668062E+03</rscale>
<asrwt>0</asrwt>
<pdfrwt beam="1">  1       21 0.15303983E+00 0.44668062E+03</pdfrwt>
<pdfrwt beam="2">  1       21 0.70487470E-02 0.44668062E+03</pdfrwt>
<totfact> 0.38319429E+04</totfact>
</mgrwt>
</event>
<event>
 7    0  0.4709932E-002  0.4371006E+03  0.7546771E-02  0.1031640E+00
         21   -1    0    0  502  501  0.00000000000E+00  0.00000000000E+00  0.22655120186E+02  0.22655120186E+02  0.00000000000E+00 0. -1.
         21   -1    0    0  501  502 -0.00000000000E+00 -0.00000000000E+00 -0.21083194735E+04  0.21083194735E+04  0.00000000000E+00 0. -1.
      99926    2    1    2    0    0 -0.71054273576E-14 -0.35527136788E-14 -0.20856643533E+04  0.21309745936E+04  0.43710058825E+03 0.  0.
      99925    2    3    3    0    0 -0.60429367386E+02  0.22712969735E+02 -0.16781059673E+04  0.16997914151E+04  0.26283764896E+03 0.  0.
         25    1    3    3    0    0  0.60429367386E+02 -0.22712969735E+02 -0.40755838595E+03  0.43118317858E+03  0.12509000000E+03 0.  0.
         25    1    4    4    0    0 -0.31493095577E+01 -0.15044109835E+02 -0.68617505562E+03  0.69765317920E+03  0.12509000000E+03 0.  0.
         25    1    4    4    0    0 -0.57280057828E+02  0.37757079570E+02 -0.99193091170E+03  0.10021382359E+04  0.12509000000E+03 0.  0.
<mgrwt>
<rscale>  2 0.43710059E+03</rscale>
<asrwt>0</asrwt>
<pdfrwt beam="1">  1       21 0.33316377E-02 0.43710059E+03</pdfrwt>
<pdfrwt beam="2">  1       21 0.31004676E+00 0.43710059E+03</pdfrwt>
<totfact> 0.13463306E+04</totfact>
</mgrwt>
</event>
<event>
 7    0  0.4709932E-002  0.4525466E+03  0.7546771E-02  0.1026965E+00
         21   -1    0    0  502  501  0.00000000000E+00  0.00000000000E+00  0.45778860384E+03  0.45778860384E+03  0.00000000000E+00 0. -1.
         21   -1    0    0  501  502 -0.00000000000E+00 -0.00000000000E+00 -0.11184114623E+03  0.11184114623E+03  0.00000000000E+00 0. -1.
      99926    2    1    2    0    0  0.00000000000E+00 -0.14210854715E-13  0.34594745761E+03  0.56962975007E+03  0.45254658184E+03 0.  0.
      99925    2    3    3    0    0  0.33220325131E+02 -0.82823791524E+02  0.30074446572E+03  0.40946049890E+03  0.26314880971E+03 0.  0.
         25    1    4    4    0    0  0.11408390351E+02 -0.63163662821E+01  0.17224977190E+03  0.21327808109E+03  0.12509000000E+03 0.  0.
         25    1    4    4    0    0  0.21811934780E+02 -0.76507425242E+02  0.12849469382E+03  0.19618241781E+03  0.12509000000E+03 0.  0.
         25    1    3    3    0    0 -0.33220325131E+02  0.82823791524E+02  0.45202991887E+02  0.16016925117E+03  0.12509000000E+03 0.  0.
<mgrwt>
<rscale>  2 0.45254658E+03</rscale>
<asrwt>0</asrwt>
<pdfrwt beam="1">  1       21 0.67321853E-01 0.45254658E+03</pdfrwt>
<pdfrwt beam="2">  1       21 0.16447228E-01 0.45254658E+03</pdfrwt>
<totfact> 0.61777563E+04</totfact>
</mgrwt>
</event>
<event>
 7    0  0.4709932E-002  0.4584346E+03  0.7546771E-02  0.1025236E+00
         21   -1    0    0  502  501  0.00000000000E+00  0.00000000000E+00  0.10758191408E+03  0.10758191408E+03  0.00000000000E+00 0. -1.
         21   -1    0    0  501  502 -0.00000000000E+00 -0.00000000000E+00 -0.48837732206E+03  0.48837732206E+03  0.00000000000E+00 0. -1.
      99926    2    1    2    0    0 -0.17763568394E-14  0.00000000000E+00 -0.38079540798E+03  0.59595923614E+03  0.45843458465E+03 0.  0.
      99925    2    3    3    0    0  0.51158247642E+01  0.66258495071E+01 -0.39018870187E+03  0.47023805410E+03  0.26230999012E+03 0.  0.
         25    1    3    3    0    0 -0.51158247642E+01 -0.66258495071E+01  0.93932938845E+01  0.12572118204E+03  0.12509000000E+03 0.  0.
         25    1    4    4    0    0 -0.27843589126E+02  0.12184538181E+02 -0.23661674645E+03  0.26936726087E+03  0.12509000000E+03 0.  0.
         25    1    4    4    0    0  0.32959413890E+02 -0.55586886734E+01 -0.15357195542E+03  0.20087079323E+03  0.12509000000E+03 0.  0.
<mgrwt>
<rscale>  2 0.45843458E+03</rscale>
<asrwt>0</asrwt>
<pdfrwt beam="1">  1       21 0.15820870E-01 0.45843458E+03</pdfrwt>
<pdfrwt beam="2">  1       21 0.71820194E-01 0.45843458E+03</pdfrwt>
<totfact> 0.57355073E+04</totfact>
</mgrwt>
</event>
<event>
 7    0  0.4709932E-002  0.4546295E+03  0.7546771E-02  0.1026350E+00
         21   -1    0    0  502  501  0.00000000000E+00  0.00000000000E+00  0.25579679562E+03  0.25579679562E+03  0.00000000000E+00 0. -1.
         21   -1    0    0  501  502 -0.00000000000E+00 -0.00000000000E+00 -0.20200409611E+03  0.20200409611E+03  0.00000000000E+00 0. -1.
      99926    2    1    2    0    0  0.71054273576E-14 -0.14210854715E-13  0.53792699508E+02  0.45780089173E+03  0.45462952164E+03 0.  0.
      99925    2    3    3    0    0 -0.51028592087E+02  0.92852721270E+02  0.72544458972E+02  0.29280185646E+03  0.26314384576E+03 0.  0.
         25    1    4    4    0    0 -0.47365742771E+01  0.25136012400E+02  0.64384184753E+02  0.14299330614E+03  0.12509000000E+03 0.  0.
         25    1    4    4    0    0 -0.46292017810E+02  0.67716708870E+02  0.81602742187E+01  0.14980855032E+03  0.12509000000E+03 0.  0.
         25    1    3    3    0    0  0.51028592087E+02 -0.92852721270E+02 -0.18751759464E+02  0.16499903527E+03  0.12509000000E+03 0.  0.
<mgrwt>
<rscale>  2 0.45462952E+03</rscale>
<asrwt>0</asrwt>
<pdfrwt beam="1">  1       21 0.37617176E-01 0.45462952E+03</pdfrwt>
<pdfrwt beam="2">  1       21 0.29706485E-01 0.45462952E+03</pdfrwt>
<totfact> 0.68543359E+04</totfact>
</mgrwt>
</event>
<event>
 7    0  0.4709932E-002  0.4553458E+03  0.7546771E-02  0.1026140E+00
         21   -1    0    0  502  501  0.00000000000E+00  0.00000000000E+00  0.10175940065E+03  0.10175940065E+03  0.00000000000E+00 0. -1.
         21   -1    0    0  501  502 -0.00000000000E+00 -0.00000000000E+00 -0.50938740328E+03  0.50938740328E+03  0.00000000000E+00 0. -1.
      99926    2    1    2    0    0 -0.14210854715E-13  0.71054273576E-14 -0.40762800263E+03  0.61114680393E+03  0.45534583277E+03 0.  0.
      99925    2    3    3    0    0  0.90622361636E+02 -0.44358310397E+02 -0.32602193017E+03  0.43090493507E+03  0.26307544921E+03 0.  0.
         25    1    3    3    0    0 -0.90622361636E+02  0.44358310397E+02 -0.81606072460E+02  0.18024186887E+03  0.12509000000E+03 0.  0.
         25    1    4    4    0    0  0.71018239051E+02 -0.42442302862E+02 -0.13538968448E+03  0.20204656422E+03  0.12509000000E+03 0.  0.
         25    1    4    4    0    0  0.19604122586E+02 -0.19160075358E+01 -0.19063224569E+03  0.22885837084E+03  0.12509000000E+03 0.  0.
<mgrwt>
<rscale>  2 0.45534583E+03</rscale>
<asrwt>0</asrwt>
<pdfrwt beam="1">  1       21 0.14964618E-01 0.45534583E+03</pdfrwt>
<pdfrwt beam="2">  1       21 0.74909912E-01 0.45534583E+03</pdfrwt>
<totfact> 0.57839191E+04</totfact>
</mgrwt>
</event>
<event>
 7    0  0.4709932E-002  0.4447846E+03  0.7546771E-02  0.1029289E+00
         21   -1    0    0  502  501  0.00000000000E+00  0.00000000000E+00  0.52862602952E+02  0.52862602952E+02  0.00000000000E+00 0.  1.
         21   -1    0    0  501  502 -0.00000000000E+00 -0.00000000000E+00 -0.93560178468E+03  0.93560178468E+03  0.00000000000E+00 0.  1.
      99926    2    1    2    0    0 -0.35527136788E-14  0.00000000000E+00 -0.88273918173E+03  0.98846438764E+03  0.44478464751E+03 0.  0.
      99925    2    3    3    0    0 -0.22451216517E+02 -0.10068459759E+03 -0.54706094489E+03  0.61567915174E+03  0.26295188751E+03 0.  0.
         25    1    3    3    0    0  0.22451216517E+02  0.10068459759E+03 -0.33567823684E+03  0.37278523590E+03  0.12509000000E+03 0.  0.
         25    1    4    4    0    0 -0.32862820856E+02 -0.73660819731E+02 -0.23418363068E+03  0.27748038190E+03  0.12509000000E+03 0.  0.
         25    1    4    4    0    0  0.10411604339E+02 -0.27023777863E+02 -0.31287731421E+03  0.33819876984E+03  0.12509000000E+03 0.  0.
<mgrwt>
<rscale>  2 0.44478465E+03</rscale>
<asrwt>0</asrwt>
<pdfrwt beam="1">  1       21 0.77739120E-02 0.44478465E+03</pdfrwt>
<pdfrwt beam="2">  1       21 0.13758850E+00 0.44478465E+03</pdfrwt>
<totfact> 0.42944010E+04</totfact>
</mgrwt>
</event>
<event>
 7    0  0.4709932E-002  0.4625257E+03  0.7546771E-02  0.1024051E+00
         21   -1    0    0  502  501  0.00000000000E+00  0.00000000000E+00  0.85587324169E+02  0.85587324169E+02  0.00000000000E+00 0.  1.
         21   -1    0    0  501  502 -0.00000000000E+00 -0.00000000000E+00 -0.62488804964E+03  0.62488804964E+03  0.00000000000E+00 0.  1.
      99926    2    1    2    0    0  0.00000000000E+00  0.00000000000E+00 -0.53930072547E+03  0.71047537380E+03  0.46252565798E+03 0.  0.
      99925    2    3    3    0    0  0.23704071046E+02 -0.10677843082E+03 -0.26093785535E+03  0.38628883517E+03  0.26299616641E+03 0.  0.
         25    1    4    4    0    0  0.16459249607E+02 -0.96533991476E+02 -0.15373939507E+03  0.22107244990E+03  0.12509000000E+03 0.  0.
         25    1    4    4    0    0  0.72448214388E+01 -0.10244439346E+02 -0.10719846028E+03  0.16521638527E+03  0.12509000000E+03 0.  0.
         25    1    3    3    0    0 -0.23704071046E+02  0.10677843082E+03 -0.27836287012E+03  0.32418653864E+03  0.12509000000E+03 0.  0.
<mgrwt>
<rscale>  2 0.46252566E+03</rscale>
<asrwt>0</asrwt>
<pdfrwt beam="1">  1       21 0.12586372E-01 0.46252566E+03</pdfrwt>
<pdfrwt beam="2">  1       21 0.91895297E-01 0.46252566E+03</pdfrwt>
<totfact> 0.49350321E+04</totfact>
</mgrwt>
</event>
<event>
 7    0  0.4709932E-002  0.4578917E+03  0.7546771E-02  0.1025394E+00
         21   -1    0    0  502  501  0.00000000000E+00  0.00000000000E+00  0.10595101180E+03  0.10595101180E+03  0.00000000000E+00 0.  1.
         21   -1    0    0  501  502 -0.00000000000E+00 -0.00000000000E+00 -0.49472105657E+03  0.49472105657E+03  0.00000000000E+00 0.  1.
      99926    2    1    2    0    0  0.71054273576E-14  0.00000000000E+00 -0.38877004477E+03  0.60067206837E+03  0.45789167498E+03 0.  0.
      99925    2    3    3    0    0  0.44461379049E+02 -0.25670598753E+02 -0.38026978080E+03  0.46518938884E+03  0.26298339763E+03 0.  0.
         25    1    4    4    0    0  0.62814631901E+02 -0.84038310675E+01 -0.19221565427E+03  0.23792996492E+03  0.12509000000E+03 0.  0.
         25    1    4    4    0    0 -0.18353252852E+02 -0.17266767686E+02 -0.18805412653E+03  0.22725942392E+03  0.12509000000E+03 0.  0.
         25    1    3    3    0    0 -0.44461379049E+02  0.25670598753E+02 -0.85002639687E+01  0.13548267954E+03  0.12509000000E+03 0.  0.
<mgrwt>
<rscale>  2 0.45789167E+03</rscale>
<asrwt>0</asrwt>
<pdfrwt beam="1">  1       21 0.15581031E-01 0.45789167E+03</pdfrwt>
<pdfrwt beam="2">  1       21 0.72753097E-01 0.45789167E+03</pdfrwt>
<totfact> 0.57316106E+04</totfact>
</mgrwt>
</event>
<event>
 7    0  0.4709932E-002  0.4566005E+03  0.7546771E-02  0.1025772E+00
         21   -1    0    0  502  501  0.00000000000E+00  0.00000000000E+00  0.46731152568E+02  0.46731152568E+02  0.00000000000E+00 0.  1.
         21   -1    0    0  501  502 -0.00000000000E+00 -0.00000000000E+00 -0.11153376040E+04  0.11153376040E+04  0.00000000000E+00 0.  1.
      99926    2    1    2    0    0 -0.14210854715E-13  0.00000000000E+00 -0.10686064514E+04  0.11620687566E+04  0.45660053324E+03 0.  0.
      99925    2    3    3    0    0 -0.71600420956E+02 -0.26088840801E+02 -0.88963979155E+03  0.93080306230E+03  0.26292229687E+03 0.  0.
         25    1    4    4    0    0 -0.26361434601E+02  0.14563161327E+02 -0.33151591188E+03  0.35560837846E+03  0.12509000000E+03 0.  0.
         25    1    4    4    0    0 -0.45238986355E+02 -0.40652002128E+02 -0.55812387967E+03  0.57519468384E+03  0.12509000000E+03 0.  0.
         25    1    3    3    0    0  0.71600420956E+02  0.26088840801E+02 -0.17896665989E+03  0.23126569428E+03  0.12509000000E+03 0.  0.
<mgrwt>
<rscale>  2 0.45660053E+03</rscale>
<asrwt>0</asrwt>
<pdfrwt beam="1">  1       21 0.68722289E-02 0.45660053E+03</pdfrwt>
<pdfrwt beam="2">  1       21 0.16402022E+00 0.45660053E+03</pdfrwt>
<totfact> 0.32968836E+04</totfact>
</mgrwt>
</event>
<event>
 7    0  0.4709932E-002  0.4648221E+03  0.7546771E-02  0.1023392E+00
         21   -1    0    0  502  501  0.00000000000E+00  0.00000000000E+00  0.65258971791E+02  0.65258971791E+02  0.00000000000E+00 0. -1.
         21   -1    0    0  501  502 -0.00000000000E+00 -0.00000000000E+00 -0.82770060930E+03  0.82770060930E+03  0.00000000000E+00 0. -1.
      99926    2    1    2    0    0  0.00000000000E+00  0.00000000000E+00 -0.76244163751E+03  0.89295958109E+03  0.46482207656E+03 0.  0.
      99925    2    3    3    0    0  0.11445360854E+03  0.32808435095E+02 -0.42194051817E+03  0.51116835242E+03  0.26283694892E+03 0.  0.
         25    1    3    3    0    0 -0.11445360854E+03 -0.32808435095E+02 -0.34050111934E+03  0.38179122867E+03  0.12509000000E+03 0.  0.
         25    1    4    4    0    0  0.88498624862E+02  0.42331770961E+02 -0.20781931910E+03  0.26164931287E+03  0.12509000000E+03 0.  0.
         25    1    4    4    0    0  0.25954983682E+02 -0.95233358653E+01 -0.21412119908E+03  0.24951903955E+03  0.12509000000E+03 0.  0.
<mgrwt>
<rscale>  2 0.46482208E+03</rscale>
<asrwt>0</asrwt>
<pdfrwt beam="1">  1       21 0.95969071E-02 0.46482208E+03</pdfrwt>
<pdfrwt beam="2">  1       21 0.12172068E+00 0.46482208E+03</pdfrwt>
<totfact> 0.40345798E+04</totfact>
</mgrwt>
</event>
<event>
 7    0  0.4709932E-002  0.4487121E+03  0.7546771E-02  0.1028107E+00
         21   -1    0    0  502  501  0.00000000000E+00  0.00000000000E+00  0.41869433956E+03  0.41869433956E+03  0.00000000000E+00 0. -1.
         21   -1    0    0  501  502 -0.00000000000E+00 -0.00000000000E+00 -0.12022048525E+03  0.12022048525E+03  0.00000000000E+00 0. -1.
      99926    2    1    2    0    0  0.00000000000E+00  0.00000000000E+00  0.29847385431E+03  0.53891482481E+03  0.44871209778E+03 0.  0.
      99925    2    3    3    0    0  0.83326087571E+02 -0.66804568230E+02  0.20170660582E+03  0.34808113888E+03  0.26280950745E+03 0.  0.
         25    1    4    4    0    0  0.97804160237E+01 -0.56008892005E+02  0.11075920824E+03  0.17648728801E+03  0.12509000000E+03 0.  0.
         25    1    3    3    0    0 -0.83326087571E+02  0.66804568230E+02  0.96767248486E+02  0.19083368593E+03  0.12509000000E+03 0.  0.
         25    1    4    4    0    0  0.73545671548E+02 -0.10795676225E+02  0.90947397587E+02  0.17159385087E+03  0.12509000000E+03 0.  0.
<mgrwt>
<rscale>  2 0.44871210E+03</rscale>
<asrwt>0</asrwt>
<pdfrwt beam="1">  1       21 0.61572696E-01 0.44871210E+03</pdfrwt>
<pdfrwt beam="2">  1       21 0.17679483E-01 0.44871210E+03</pdfrwt>
<totfact> 0.65819758E+04</totfact>
</mgrwt>
</event>
<event>
 7    0  0.4709932E-002  0.4620085E+03  0.7546771E-02  0.1024200E+00
         21   -1    0    0  502  501  0.00000000000E+00  0.00000000000E+00  0.47261774914E+02  0.47261774914E+02  0.00000000000E+00 0.  1.
         21   -1    0    0  501  502 -0.00000000000E+00 -0.00000000000E+00 -0.11290934520E+04  0.11290934520E+04  0.00000000000E+00 0.  1.
      99926    2    1    2    0    0  0.14210854715E-13  0.00000000000E+00 -0.10818316771E+04  0.11763552270E+04  0.46200848731E+03 0.  0.
      99925    2    3    3    0    0  0.11389138213E+03  0.33035552319E+02 -0.63786115604E+03  0.70009907074E+03  0.26307652846E+03 0.  0.
         25    1    3    3    0    0 -0.11389138213E+03 -0.33035552319E+02 -0.44397052109E+03  0.47625615622E+03  0.12509000000E+03 0.  0.
         25    1    4    4    0    0  0.35481430742E+02  0.32720397224E+01 -0.37798828510E+03  0.39974027811E+03  0.12509000000E+03 0.  0.
         25    1    4    4    0    0  0.78409951384E+02  0.29763512597E+02 -0.25987287094E+03  0.30035879263E+03  0.12509000000E+03 0.  0.
<mgrwt>
<rscale>  2 0.46200849E+03</rscale>
<asrwt>0</asrwt>
<pdfrwt beam="1">  1       21 0.69502623E-02 0.46200849E+03</pdfrwt>
<pdfrwt beam="2">  1       21 0.16604313E+00 0.46200849E+03</pdfrwt>
<totfact> 0.31176882E+04</totfact>
</mgrwt>
</event>
<event>
 7    0  0.4709932E-002  0.4240174E+03  0.7546771E-02  0.1035767E+00
         21   -1    0    0  502  501  0.00000000000E+00  0.00000000000E+00  0.24229697917E+03  0.24229697917E+03  0.00000000000E+00 0. -1.
         21   -1    0    0  501  502 -0.00000000000E+00 -0.00000000000E+00 -0.18550664064E+03  0.18550664064E+03  0.00000000000E+00 0. -1.
      99926    2    1    2    0    0  0.00000000000E+00  0.71054273576E-14  0.56790338530E+02  0.42780361981E+03  0.42401744608E+03 0.  0.
      99925    2    3    3    0    0  0.33201439974E+01  0.42507022968E+02  0.10605850229E+03  0.28676202872E+03  0.26299464795E+03 0.  0.
         25    1    4    4    0    0  0.86605467899E+01  0.57985672785E+02  0.73444206030E+02  0.15645735144E+03  0.12509000000E+03 0.  0.
         25    1    4    4    0    0 -0.53404027925E+01 -0.15478649817E+02  0.32614296259E+02  0.13030467729E+03  0.12509000000E+03 0.  0.
         25    1    3    3    0    0 -0.33201439974E+01 -0.42507022968E+02 -0.49268163759E+02  0.14104159109E+03  0.12509000000E+03 0.  0.
<mgrwt>
<rscale>  2 0.42401745E+03</rscale>
<asrwt>0</asrwt>
<pdfrwt beam="1">  1       21 0.35631909E-01 0.42401745E+03</pdfrwt>
<pdfrwt beam="2">  1       21 0.27280388E-01 0.42401745E+03</pdfrwt>
<totfact> 0.91107962E+04</totfact>
</mgrwt>
</event>
<event>
 7    0  0.4709932E-002  0.4457443E+03  0.7546771E-02  0.1028999E+00
         21   -1    0    0  502  501  0.00000000000E+00  0.00000000000E+00  0.15601378831E+03  0.15601378831E+03  0.00000000000E+00 0. -1.
         21   -1    0    0  501  502 -0.00000000000E+00 -0.00000000000E+00 -0.31838214960E+03  0.31838214960E+03  0.00000000000E+00 0. -1.
      99926    2    1    2    0    0  0.71054273576E-14  0.17763568394E-14 -0.16236836128E+03  0.47439593791E+03  0.44574434507E+03 0.  0.
      99925    2    3    3    0    0 -0.22992985693E+02 -0.15364506451E+02 -0.20995106722E+03  0.33773443106E+03  0.26309760517E+03 0.  0.
         25    1    4    4    0    0  0.13534075604E+02  0.16985928739E+02 -0.75468447083E+02  0.14769796066E+03  0.12509000000E+03 0.  0.
         25    1    4    4    0    0 -0.36527061297E+02 -0.32350435190E+02 -0.13448262014E+03  0.19003647041E+03  0.12509000000E+03 0.  0.
         25    1    3    3    0    0  0.22992985693E+02  0.15364506451E+02  0.47582705942E+02  0.13666150685E+03  0.12509000000E+03 0.  0.
<mgrwt>
<rscale>  2 0.44574435E+03</rscale>
<asrwt>0</asrwt>
<pdfrwt beam="1">  1       21 0.22943204E-01 0.44574435E+03</pdfrwt>
<pdfrwt beam="2">  1       21 0.46820904E-01 0.44574435E+03</pdfrwt>
<totfact> 0.72275936E+04</totfact>
</mgrwt>
</event>
<event>
 7    0  0.4709932E-002  0.4574229E+03  0.7546771E-02  0.1025531E+00
         21   -1    0    0  502  501  0.00000000000E+00  0.00000000000E+00  0.29523254625E+03  0.29523254625E+03  0.00000000000E+00 0. -1.
         21   -1    0    0  501  502 -0.00000000000E+00 -0.00000000000E+00 -0.17717871584E+03  0.17717871584E+03  0.00000000000E+00 0. -1.
      99926    2    1    2    0    0  0.00000000000E+00  0.00000000000E+00  0.11805383041E+03  0.47241126209E+03  0.45742288276E+03 0.  0.
      99925    2    3    3    0    0  0.64417143534E+02 -0.69571048457E+02  0.60758446134E+01  0.27959975681E+03  0.26296275203E+03 0.  0.
         25    1    4    4    0    0  0.38127084229E+02 -0.71662313085E+02 -0.15606660326E+02  0.14993411091E+03  0.12509000000E+03 0.  0.
         25    1    4    4    0    0  0.26290059304E+02  0.20912646280E+01  0.21682504940E+02  0.12966564590E+03  0.12509000000E+03 0.  0.
         25    1    3    3    0    0 -0.64417143534E+02  0.69571048457E+02  0.11197798580E+03  0.19281150528E+03  0.12509000000E+03 0.  0.
<mgrwt>
<rscale>  2 0.45742288E+03</rscale>
<asrwt>0</asrwt>
<pdfrwt beam="1">  1       21 0.43416551E-01 0.45742288E+03</pdfrwt>
<pdfrwt beam="2">  1       21 0.26055693E-01 0.45742288E+03</pdfrwt>
<totfact> 0.65979438E+04</totfact>
</mgrwt>
</event>
<event>
 7    0  0.4709932E-002  0.4500157E+03  0.7546771E-02  0.1027717E+00
         21   -1    0    0  502  501  0.00000000000E+00  0.00000000000E+00  0.12628559834E+04  0.12628559834E+04  0.00000000000E+00 0.  1.
         21   -1    0    0  501  502 -0.00000000000E+00 -0.00000000000E+00 -0.40090495003E+02  0.40090495003E+02  0.00000000000E+00 0.  1.
      99926    2    1    2    0    0 -0.71054273576E-14 -0.14210854715E-13  0.12227654884E+04  0.13029464784E+04  0.45001565080E+03 0.  0.
      99925    2    3    3    0    0  0.40977997518E+02  0.10043904604E+03  0.77578785947E+03  0.82628757823E+03  0.26293946221E+03 0.  0.
         25    1    4    4    0    0  0.25344748379E+01  0.78428575592E+02  0.47754821671E+03  0.49985725204E+03  0.12509000000E+03 0.  0.
         25    1    3    3    0    0 -0.40977997518E+02 -0.10043904604E+03  0.44697762892E+03  0.47665890017E+03  0.12509000000E+03 0.  0.
         25    1    4    4    0    0  0.38443522680E+02  0.22010470452E+02  0.29823964276E+03  0.32643032619E+03  0.12509000000E+03 0.  0.
<mgrwt>
<rscale>  2 0.45001565E+03</rscale>
<asrwt>0</asrwt>
<pdfrwt beam="1">  1       21 0.18571409E+00 0.45001565E+03</pdfrwt>
<pdfrwt beam="2">  1       21 0.58956618E-02 0.45001565E+03</pdfrwt>
<totfact> 0.30182340E+04</totfact>
</mgrwt>
</event>
<event>
 7    0  0.4709932E-002  0.4597418E+03  0.7546771E-02  0.1024856E+00
         21   -1    0    0  502  501  0.00000000000E+00  0.00000000000E+00  0.87099966432E+02  0.87099966432E+02  0.00000000000E+00 0.  1.
         21   -1    0    0  501  502 -0.00000000000E+00 -0.00000000000E+00 -0.60666645172E+03  0.60666645172E+03  0.00000000000E+00 0.  1.
      99926    2    1    2    0    0 -0.14210854715E-13  0.00000000000E+00 -0.51956648529E+03  0.69376641816E+03  0.45974178657E+03 0.  0.
      99925    2    3    3    0    0 -0.10740302865E+03 -0.48468041941E+02 -0.32383118161E+03  0.43329688278E+03  0.26266897949E+03 0.  0.
         25    1    4    4    0    0 -0.93211632539E+02 -0.10415839970E+02 -0.17312470759E+03  0.23327359611E+03  0.12509000000E+03 0.  0.
         25    1    4    4    0    0 -0.14191396112E+02 -0.38052201971E+02 -0.15070647402E+03  0.20002328667E+03  0.12509000000E+03 0.  0.
         25    1    3    3    0    0  0.10740302865E+03  0.48468041941E+02 -0.19573530368E+03  0.26046953538E+03  0.12509000000E+03 0.  0.
<mgrwt>
<rscale>  2 0.45974179E+03</rscale>
<asrwt>0</asrwt>
<pdfrwt beam="1">  1       21 0.12808819E-01 0.45974179E+03</pdfrwt>
<pdfrwt beam="2">  1       21 0.89215652E-01 0.45974179E+03</pdfrwt>
<totfact> 0.51301016E+04</totfact>
</mgrwt>
</event>
<event>
 7    0  0.4709932E-002  0.4661050E+03  0.7546771E-02  0.1023025E+00
         21   -1    0    0  502  501  0.00000000000E+00  0.00000000000E+00  0.29861659622E+03  0.29861659622E+03  0.00000000000E+00 0.  1.
         21   -1    0    0  501  502 -0.00000000000E+00 -0.00000000000E+00 -0.18188359066E+03  0.18188359066E+03  0.00000000000E+00 0.  1.
      99926    2    1    2    0    0  0.00000000000E+00  0.00000000000E+00  0.11673300555E+03  0.48050018688E+03  0.46610496136E+03 0.  0.
      99925    2    3    3    0    0 -0.96173995360E+02  0.56226716230E+02  0.18541955974E+02  0.28633563986E+03  0.26312243067E+03 0.  0.
         25    1    3    3    0    0  0.96173995360E+02 -0.56226716230E+02  0.98191049580E+02  0.19416454702E+03  0.12509000000E+03 0.  0.
         25    1    4    4    0    0 -0.19261691759E+02  0.57194275544E+02  0.93045045677E+01  0.13919870628E+03  0.12509000000E+03 0.  0.
         25    1    4    4    0    0 -0.76912303600E+02 -0.96755931415E+00  0.92374514068E+01  0.14713693358E+03  0.12509000000E+03 0.  0.
<mgrwt>
<rscale>  2 0.46610496E+03</rscale>
<asrwt>0</asrwt>
<pdfrwt beam="1">  1       21 0.43914205E-01 0.46610496E+03</pdfrwt>
<pdfrwt beam="2">  1       21 0.26747587E-01 0.46610496E+03</pdfrwt>
<totfact> 0.61099482E+04</totfact>
</mgrwt>
</event>
<event>
 7    0  0.4709932E-002  0.4586603E+03  0.7546771E-02  0.1025170E+00
         21   -1    0    0  502  501  0.00000000000E+00  0.00000000000E+00  0.52900326580E+03  0.52900326580E+03  0.00000000000E+00 0.  1.
         21   -1    0    0  501  502 -0.00000000000E+00 -0.00000000000E+00 -0.99417777552E+02  0.99417777552E+02  0.00000000000E+00 0.  1.
      99926    2    1    2    0    0  0.00000000000E+00  0.00000000000E+00  0.42958548825E+03  0.62842104335E+03  0.45866034929E+03 0.  0.
      99925    2    3    3    0    0 -0.76570907339E+02  0.50335813324E+02  0.36661378366E+03  0.46105993188E+03  0.26414730070E+03 0.  0.
         25    1    4    4    0    0 -0.58007541560E+02  0.17683041267E+01  0.23324913162E+03  0.27096248316E+03  0.12509000000E+03 0.  0.
         25    1    3    3    0    0  0.76570907339E+02 -0.50335813324E+02  0.62971704593E+02  0.16736111147E+03  0.12509000000E+03 0.  0.
         25    1    4    4    0    0 -0.18563365779E+02  0.48567509197E+02  0.13336465204E+03  0.19009744873E+03  0.12509000000E+03 0.  0.
<mgrwt>
<rscale>  2 0.45866035E+03</rscale>
<asrwt>0</asrwt>
<pdfrwt beam="1">  1       21 0.77794597E-01 0.45866035E+03</pdfrwt>
<pdfrwt beam="2">  1       21 0.14620262E-01 0.45866035E+03</pdfrwt>
<totfact> 0.55345360E+04</totfact>
</mgrwt>
</event>
<event>
 7    0  0.4709932E-002  0.4554709E+03  0.7546771E-02  0.1026103E+00
         21   -1    0    0  502  501  0.00000000000E+00  0.00000000000E+00  0.14279090991E+03  0.14279090991E+03  0.00000000000E+00 0. -1.
         21   -1    0    0  501  502 -0.00000000000E+00 -0.00000000000E+00 -0.36321251708E+03  0.36321251708E+03  0.00000000000E+00 0. -1.
      99926    2    1    2    0    0 -0.71054273576E-14  0.00000000000E+00 -0.22042160717E+03  0.50600342699E+03  0.45547094662E+03 0.  0.
      99925    2    3    3    0    0 -0.41655328161E+02  0.84312461110E+02 -0.20945930844E+03  0.34912309821E+03  0.26300185998E+03 0.  0.
         25    1    4    4    0    0  0.16884454958E+02  0.56507493275E+02 -0.98385308325E+02  0.16972141471E+03  0.12509000000E+03 0.  0.
         25    1    3    3    0    0  0.41655328161E+02 -0.84312461110E+02 -0.10962298726E+02  0.15688032877E+03  0.12509000000E+03 0.  0.
         25    1    4    4    0    0 -0.58539783118E+02  0.27804967835E+02 -0.11107400012E+03  0.17940168351E+03  0.12509000000E+03 0.  0.
<mgrwt>
<rscale>  2 0.45547095E+03</rscale>
<asrwt>0</asrwt>
<pdfrwt beam="1">  1       21 0.20998664E-01 0.45547095E+03</pdfrwt>
<pdfrwt beam="2">  1       21 0.53413605E-01 0.45547095E+03</pdfrwt>
<totfact> 0.64609083E+04</totfact>
</mgrwt>
</event>
<event>
 7    0  0.4709932E-002  0.4615445E+03  0.7546771E-02  0.1024334E+00
         21   -1    0    0  502  501  0.00000000000E+00  0.00000000000E+00  0.14313851472E+03  0.14313851472E+03  0.00000000000E+00 0. -1.
         21   -1    0    0  501  502 -0.00000000000E+00 -0.00000000000E+00 -0.37205795417E+03  0.37205795417E+03  0.00000000000E+00 0. -1.
      99926    2    1    2    0    0  0.71054273576E-14  0.00000000000E+00 -0.22891943945E+03  0.51519646889E+03  0.46154446351E+03 0.  0.
      99925    2    3    3    0    0  0.41194324215E+02  0.69472779541E+02 -0.24112408040E+03  0.36579800570E+03  0.26295231388E+03 0.  0.
         25    1    4    4    0    0  0.21117857752E+02  0.75952489645E+02 -0.12040660009E+03  0.19068298835E+03  0.12509000000E+03 0.  0.
         25    1    4    4    0    0  0.20076466462E+02 -0.64797101037E+01 -0.12071748031E+03  0.17511501735E+03  0.12509000000E+03 0.  0.
         25    1    3    3    0    0 -0.41194324215E+02 -0.69472779541E+02  0.12204640949E+02  0.14939846320E+03  0.12509000000E+03 0.  0.
<mgrwt>
<rscale>  2 0.46154446E+03</rscale>
<asrwt>0</asrwt>
<pdfrwt beam="1">  1       21 0.21049782E-01 0.46154446E+03</pdfrwt>
<pdfrwt beam="2">  1       21 0.54714404E-01 0.46154446E+03</pdfrwt>
<totfact> 0.60986219E+04</totfact>
</mgrwt>
</event>
<event>
 7    0  0.4709932E-002  0.4612037E+03  0.7546771E-02  0.1024433E+00
         21   -1    0    0  502  501  0.00000000000E+00  0.00000000000E+00  0.13682212347E+03  0.13682212347E+03  0.00000000000E+00 0.  1.
         21   -1    0    0  501  502 -0.00000000000E+00 -0.00000000000E+00 -0.38865954263E+03  0.38865954263E+03  0.00000000000E+00 0.  1.
      99926    2    1    2    0    0 -0.71054273576E-14  0.00000000000E+00 -0.25183741916E+03  0.52548166610E+03  0.46120374642E+03 0.  0.
      99925    2    3    3    0    0 -0.53829814244E+02 -0.13916655752E+02 -0.37835438291E+02  0.27144293259E+03  0.26297989096E+03 0.  0.
         25    1    4    4    0    0 -0.33173242439E+02  0.17946658514E+02 -0.50569293883E+02  0.14009749516E+03  0.12509000000E+03 0.  0.
         25    1    3    3    0    0  0.53829814244E+02  0.13916655752E+02 -0.21400198087E+03  0.25403873351E+03  0.12509000000E+03 0.  0.
         25    1    4    4    0    0 -0.20656571805E+02 -0.31863314266E+02  0.12733855592E+02  0.13134543743E+03  0.12509000000E+03 0.  0.
<mgrwt>
<rscale>  2 0.46120375E+03</rscale>
<asrwt>0</asrwt>
<pdfrwt beam="1">  1       21 0.20120901E-01 0.46120375E+03</pdfrwt>
<pdfrwt beam="2">  1       21 0.57155814E-01 0.46120375E+03</pdfrwt>
<totfact> 0.60483244E+04</totfact>
</mgrwt>
</event>
<event>
 7    0  0.4709932E-002  0.4576278E+03  0.7546771E-02  0.1025471E+00
         21   -1    0    0  502  501  0.00000000000E+00  0.00000000000E+00  0.47766522384E+03  0.47766522384E+03  0.00000000000E+00 0. -1.
         21   -1    0    0  501  502 -0.00000000000E+00 -0.00000000000E+00 -0.10960774300E+03  0.10960774300E+03  0.00000000000E+00 0. -1.
      99926    2    1    2    0    0  0.00000000000E+00  0.00000000000E+00  0.36805748084E+03  0.58727296683E+03  0.45762782735E+03 0.  0.
      99925    2    3    3    0    0  0.51646817246E+02  0.28059239094E+02  0.10325011506E+03  0.28856715219E+03  0.26297471443E+03 0.  0.
         25    1    4    4    0    0  0.85274657638E+01 -0.23203502824E+02  0.51838679623E+02  0.13764402283E+03  0.12509000000E+03 0.  0.
         25    1    3    3    0    0 -0.51646817246E+02 -0.28059239094E+02  0.26480736579E+03  0.29870581465E+03  0.12509000000E+03 0.  0.
         25    1    4    4    0    0  0.43119351482E+02  0.51262741918E+02  0.51411435435E+02  0.15092312936E+03  0.12509000000E+03 0.  0.
<mgrwt>
<rscale>  2 0.45762783E+03</rscale>
<asrwt>0</asrwt>
<pdfrwt beam="1">  1       21 0.70244885E-01 0.45762783E+03</pdfrwt>
<pdfrwt beam="2">  1       21 0.16118786E-01 0.45762783E+03</pdfrwt>
<totfact> 0.58249218E+04</totfact>
</mgrwt>
</event>
<event>
 7    0  0.4709932E-002  0.4600303E+03  0.7546771E-02  0.1024772E+00
         21   -1    0    0  502  501  0.00000000000E+00  0.00000000000E+00  0.29787731427E+02  0.29787731427E+02  0.00000000000E+00 0. -1.
         21   -1    0    0  501  502 -0.00000000000E+00 -0.00000000000E+00 -0.17761330926E+04  0.17761330926E+04  0.00000000000E+00 0. -1.
      99926    2    1    2    0    0 -0.71054273576E-14  0.14210854715E-13 -0.17463453612E+04  0.18059208240E+04  0.46003032744E+03 0.  0.
      99925    2    3    3    0    0  0.55360457708E+02  0.10400325418E+03 -0.11030624606E+04  0.11400816126E+04  0.26297877162E+03 0.  0.
         25    1    3    3    0    0 -0.55360457708E+02 -0.10400325418E+03 -0.64328290062E+03  0.66583921144E+03  0.12509000000E+03 0.  0.
         25    1    4    4    0    0  0.68680149607E+02  0.61331350886E+02 -0.59687153195E+03  0.61675086648E+03  0.12509000000E+03 0.  0.
         25    1    4    4    0    0 -0.13319691899E+02  0.42671903297E+02 -0.50619092861E+03  0.52333074611E+03  0.12509000000E+03 0.  0.
<mgrwt>
<rscale>  2 0.46003033E+03</rscale>
<asrwt>0</asrwt>
<pdfrwt beam="1">  1       21 0.43805486E-02 0.46003033E+03</pdfrwt>
<pdfrwt beam="2">  1       21 0.26119605E+00 0.46003033E+03</pdfrwt>
<totfact> 0.16492423E+04</totfact>
</mgrwt>
</event>
<event>
 7    0  0.4709932E-002  0.4531471E+03  0.7546771E-02  0.1026788E+00
         21   -1    0    0  502  501  0.00000000000E+00  0.00000000000E+00  0.14532850674E+04  0.14532850674E+04  0.00000000000E+00 0. -1.
         21   -1    0    0  501  502 -0.00000000000E+00 -0.00000000000E+00 -0.35323822876E+02  0.35323822876E+02  0.00000000000E+00 0. -1.
      99926    2    1    2    0    0 -0.14210854715E-13  0.14210854715E-13  0.14179612446E+04  0.14886088903E+04  0.45314714745E+03 0.  0.
      99925    2    3    3    0    0  0.76157186400E+02 -0.67680319602E+02  0.74603686521E+03  0.79758760094E+03  0.26304834958E+03 0.  0.
         25    1    4    4    0    0  0.78599195751E+02 -0.45152959208E+02  0.43237948076E+03  0.45914719511E+03  0.12509000000E+03 0.  0.
         25    1    4    4    0    0 -0.24420093508E+01 -0.22527360394E+02  0.31365738445E+03  0.33844040583E+03  0.12509000000E+03 0.  0.
         25    1    3    3    0    0 -0.76157186400E+02  0.67680319602E+02  0.67192437934E+03  0.69102128937E+03  0.12509000000E+03 0.  0.
<mgrwt>
<rscale>  2 0.45314715E+03</rscale>
<asrwt>0</asrwt>
<pdfrwt beam="1">  1       21 0.21371835E+00 0.45314715E+03</pdfrwt>
<pdfrwt beam="2">  1       21 0.51946808E-02 0.45314715E+03</pdfrwt>
<totfact> 0.24409111E+04</totfact>
</mgrwt>
</event>
<event>
 7    0  0.4709932E-002  0.4260607E+03  0.7546771E-02  0.1035112E+00
         21   -1    0    0  502  501  0.00000000000E+00  0.00000000000E+00  0.40623020449E+02  0.40623020449E+02  0.00000000000E+00 0.  1.
         21   -1    0    0  501  502 -0.00000000000E+00 -0.00000000000E+00 -0.11171481398E+04  0.11171481398E+04  0.00000000000E+00 0.  1.
      99926    2    1    2    0    0  0.00000000000E+00 -0.71054273576E-14 -0.10765251194E+04  0.11577711603E+04  0.42606070801E+03 0.  0.
      99925    2    3    3    0    0 -0.56449647586E+02 -0.36093421697E+02 -0.56335465312E+03  0.62534207266E+03  0.26304932017E+03 0.  0.
         25    1    3    3    0    0  0.56449647586E+02  0.36093421697E+02 -0.51317046624E+03  0.53242908760E+03  0.12509000000E+03 0.  0.
         25    1    4    4    0    0 -0.49026143802E+02 -0.53579770932E+02 -0.28628808269E+03  0.32075337725E+03  0.12509000000E+03 0.  0.
         25    1    4    4    0    0 -0.74235037838E+01  0.17486349235E+02 -0.27706657043E+03  0.30458869541E+03  0.12509000000E+03 0.  0.
<mgrwt>
<rscale>  2 0.42606071E+03</rscale>
<asrwt>0</asrwt>
<pdfrwt beam="1">  1       21 0.59739742E-02 0.42606071E+03</pdfrwt>
<pdfrwt beam="2">  1       21 0.16428648E+00 0.42606071E+03</pdfrwt>
<totfact> 0.42284441E+04</totfact>
</mgrwt>
</event>
<event>
 7    0  0.4709932E-002  0.4653051E+03  0.7546771E-02  0.1023254E+00
         21   -1    0    0  502  501  0.00000000000E+00  0.00000000000E+00  0.73395116384E+03  0.73395116384E+03  0.00000000000E+00 0.  1.
         21   -1    0    0  501  502 -0.00000000000E+00 -0.00000000000E+00 -0.73747712784E+02  0.73747712784E+02  0.00000000000E+00 0.  1.
      99926    2    1    2    0    0  0.00000000000E+00 -0.35527136788E-14  0.66020345106E+03  0.80769887662E+03  0.46530514559E+03 0.  0.
      99925    2    3    3    0    0 -0.11869125625E+03  0.30445490055E+02  0.42132158819E+03  0.51151212020E+03  0.26290345426E+03 0.  0.
         25    1    3    3    0    0  0.11869125625E+03 -0.30445490055E+02  0.23888186286E+03  0.29618675642E+03  0.12509000000E+03 0.  0.
         25    1    4    4    0    0 -0.79888461408E+02  0.24201458146E+02  0.28575582704E+03  0.32291140833E+03  0.12509000000E+03 0.  0.
         25    1    4    4    0    0 -0.38802794840E+02  0.62440319089E+01  0.13556576115E+03  0.18860071187E+03  0.12509000000E+03 0.  0.
<mgrwt>
<rscale>  2 0.46530515E+03</rscale>
<asrwt>0</asrwt>
<pdfrwt beam="1">  1       21 0.10793399E+00 0.46530515E+03</pdfrwt>
<pdfrwt beam="2">  1       21 0.10845252E-01 0.46530515E+03</pdfrwt>
<totfact> 0.43748104E+04</totfact>
</mgrwt>
</event>
<event>
 7    0  0.4709932E-002  0.4462021E+03  0.7546771E-02  0.1028861E+00
         21   -1    0    0  502  501  0.00000000000E+00  0.00000000000E+00  0.37336939037E+03  0.37336939037E+03  0.00000000000E+00 0. -1.
         21   -1    0    0  501  502 -0.00000000000E+00 -0.00000000000E+00 -0.13331056745E+03  0.13331056745E+03  0.00000000000E+00 0. -1.
      99926    2    1    2    0    0  0.00000000000E+00  0.71054273576E-14  0.24005882292E+03  0.50667995782E+03  0.44620213043E+03 0.  0.
      99925    2    3    3    0    0  0.72566336973E+02  0.54810772502E+02  0.93334191817E+02  0.29349994113E+03  0.26298450532E+03 0.  0.
         25    1    4    4    0    0  0.11065824091E+01  0.47781540783E+02  0.40619810020E+02  0.13993490355E+03  0.12509000000E+03 0.  0.
         25    1    4    4    0    0  0.71459754564E+02  0.70292317192E+01  0.52714381798E+02  0.15356503759E+03  0.12509000000E+03 0.  0.
         25    1    3    3    0    0 -0.72566336973E+02 -0.54810772502E+02  0.14672463110E+03  0.21318001669E+03  0.12509000000E+03 0.  0.
<mgrwt>
<rscale>  2 0.44620213E+03</rscale>
<asrwt>0</asrwt>
<pdfrwt beam="1">  1       21 0.54907263E-01 0.44620213E+03</pdfrwt>
<pdfrwt beam="2">  1       21 0.19604495E-01 0.44620213E+03</pdfrwt>
<totfact> 0.69533243E+04</totfact>
</mgrwt>
</event>
<event>
 7    0  0.4709932E-002  0.4498859E+03  0.7546771E-02  0.1027756E+00
         21   -1    0    0  502  501  0.00000000000E+00  0.00000000000E+00  0.66144452387E+02  0.66144452387E+02  0.00000000000E+00 0. -1.
         21   -1    0    0  501  502 -0.00000000000E+00 -0.00000000000E+00 -0.76498211669E+03  0.76498211669E+03  0.00000000000E+00 0. -1.
      99926    2    1    2    0    0  0.00000000000E+00 -0.14210854715E-13 -0.69883766430E+03  0.83112656908E+03  0.44988586639E+03 0.  0.
      99925    2    3    3    0    0  0.10415631615E+02  0.10110948752E+03 -0.37242426556E+03  0.46708697119E+03  0.26294256261E+03 0.  0.
         25    1    4    4    0    0  0.20285638613E+02  0.36334860223E+02 -0.23827926200E+03  0.27231644093E+03  0.12509000000E+03 0.  0.
         25    1    4    4    0    0 -0.98700069982E+01  0.64774627294E+02 -0.13414500356E+03  0.19477053026E+03  0.12509000000E+03 0.  0.
         25    1    3    3    0    0 -0.10415631615E+02 -0.10110948752E+03 -0.32641339875E+03  0.36403959789E+03  0.12509000000E+03 0.  0.
<mgrwt>
<rscale>  2 0.44988587E+03</rscale>
<asrwt>0</asrwt>
<pdfrwt beam="1">  1       21 0.97271252E-02 0.44988587E+03</pdfrwt>
<pdfrwt beam="2">  1       21 0.11249737E+00 0.44988587E+03</pdfrwt>
<totfact> 0.48200979E+04</totfact>
</mgrwt>
</event>
<event>
 7    0  0.4709932E-002  0.4414016E+03  0.7546771E-02  0.1030318E+00
         21   -1    0    0  502  501  0.00000000000E+00  0.00000000000E+00  0.16683594908E+03  0.16683594908E+03  0.00000000000E+00 0.  1.
         21   -1    0    0  501  502 -0.00000000000E+00 -0.00000000000E+00 -0.29195653977E+03  0.29195653977E+03  0.00000000000E+00 0.  1.
      99926    2    1    2    0    0  0.00000000000E+00  0.17763568394E-14 -0.12512059069E+03  0.45879248885E+03  0.44140161487E+03 0.  0.
      99925    2    3    3    0    0  0.55644064665E+02  0.11382016847E+02  0.56573670225E+01  0.26911857244E+03  0.26299617486E+03 0.  0.
         25    1    3    3    0    0 -0.55644064665E+02 -0.11382016847E+02 -0.13077795772E+03  0.18967391641E+03  0.12509000000E+03 0.  0.
         25    1    4    4    0    0 -0.84440544187E+01  0.24972786471E+02  0.13074303197E+01  0.12784427869E+03  0.12509000000E+03 0.  0.
         25    1    4    4    0    0  0.64088119084E+02 -0.13590769624E+02  0.43499367028E+01  0.14127429376E+03  0.12509000000E+03 0.  0.
<mgrwt>
<rscale>  2 0.44140161E+03</rscale>
<asrwt>0</asrwt>
<pdfrwt beam="1">  1       21 0.24534699E-01 0.44140161E+03</pdfrwt>
<pdfrwt beam="2">  1       21 0.42934785E-01 0.44140161E+03</pdfrwt>
<totfact> 0.76169442E+04</totfact>
</mgrwt>
</event>
<event>
 7    0  0.4709932E-002  0.4285193E+03  0.7546771E-02  0.1034329E+00
         21   -1    0    0  502  501  0.00000000000E+00  0.00000000000E+00  0.35857232037E+02  0.35857232037E+02  0.00000000000E+00 0. -1.
         21   -1    0    0  501  502 -0.00000000000E+00 -0.00000000000E+00 -0.12802769709E+04  0.12802769709E+04  0.00000000000E+00 0. -1.
      99926    2    1    2    0    0  0.00000000000E+00  0.00000000000E+00 -0.12444197389E+04  0.13161342029E+04  0.42851925706E+03 0.  0.
      99925    2    3    3    0    0  0.72970794717E+02 -0.36316975226E+02 -0.88759202381E+03  0.92933039492E+03  0.26304319533E+03 0.  0.
         25    1    3    3    0    0 -0.72970794717E+02  0.36316975226E+02 -0.35682771505E+03  0.38680380802E+03  0.12509000000E+03 0.  0.
         25    1    4    4    0    0  0.19374410477E+02 -0.28011078744E+02 -0.31305736740E+03  0.33883980241E+03  0.12509000000E+03 0.  0.
         25    1    4    4    0    0  0.53596384239E+02 -0.83058964824E+01 -0.57453465642E+03  0.59049059251E+03  0.12509000000E+03 0.  0.
<mgrwt>
<rscale>  2 0.42851926E+03</rscale>
<asrwt>0</asrwt>
<pdfrwt beam="1">  1       21 0.52731222E-02 0.42851926E+03</pdfrwt>
<pdfrwt beam="2">  1       21 0.18827603E+00 0.42851926E+03</pdfrwt>
<totfact> 0.35396655E+04</totfact>
</mgrwt>
</event>
<event>
 7    0  0.4709932E-002  0.4211734E+03  0.7546771E-02  0.1036685E+00
         21   -1    0    0  502  501  0.00000000000E+00  0.00000000000E+00  0.15855154934E+04  0.15855154934E+04  0.00000000000E+00 0. -1.
         21   -1    0    0  501  502 -0.00000000000E+00 -0.00000000000E+00 -0.27969931931E+02  0.27969931931E+02  0.00000000000E+00 0. -1.
      99926    2    1    2    0    0  0.00000000000E+00  0.00000000000E+00  0.15575455615E+04  0.16134854254E+04  0.42117341049E+03 0.  0.
      99925    2    3    3    0    0  0.26771110408E+02 -0.56572653664E+02  0.84722086496E+03  0.88952006700E+03  0.26371499403E+03 0.  0.
         25    1    3    3    0    0 -0.26771110408E+02  0.56572653664E+02  0.71032469653E+03  0.72396535836E+03  0.12509000000E+03 0.  0.
         25    1    4    4    0    0 -0.13226364206E+02 -0.54038997256E+02  0.49575287576E+03  0.51430882926E+03  0.12509000000E+03 0.  0.
         25    1    4    4    0    0  0.39997474613E+02 -0.25336564085E+01  0.35146798921E+03  0.37521123774E+03  0.12509000000E+03 0.  0.
<mgrwt>
<rscale>  2 0.42117341E+03</rscale>
<asrwt>0</asrwt>
<pdfrwt beam="1">  1       21 0.23316398E+00 0.42117341E+03</pdfrwt>
<pdfrwt beam="2">  1       21 0.41132263E-02 0.42117341E+03</pdfrwt>
<totfact> 0.27724791E+04</totfact>
</mgrwt>
</event>
<event>
 7    0  0.4709932E-002  0.4505783E+03  0.7546771E-02  0.1027550E+00
         21   -1    0    0  502  501  0.00000000000E+00  0.00000000000E+00  0.10403981511E+03  0.10403981511E+03  0.00000000000E+00 0.  1.
         21   -1    0    0  501  502 -0.00000000000E+00 -0.00000000000E+00 -0.48784393088E+03  0.48784393088E+03  0.00000000000E+00 0.  1.
      99926    2    1    2    0    0  0.00000000000E+00  0.00000000000E+00 -0.38380411577E+03  0.59188374600E+03  0.45057826123E+03 0.  0.
      99925    2    3    3    0    0 -0.35960231910E+02  0.20272820405E+02 -0.37487879241E+03  0.45985611623E+03  0.26311482874E+03 0.  0.
         25    1    4    4    0    0 -0.34664348236E+02  0.44154638294E+02 -0.16708124335E+03  0.21613629751E+03  0.12509000000E+03 0.  0.
         25    1    3    3    0    0  0.35960231910E+02 -0.20272820405E+02 -0.89253233591E+01  0.13202762977E+03  0.12509000000E+03 0.  0.
         25    1    4    4    0    0 -0.12958836745E+01 -0.23881817889E+02 -0.20779754906E+03  0.24371981872E+03  0.12509000000E+03 0.  0.
<mgrwt>
<rscale>  2 0.45057826E+03</rscale>
<asrwt>0</asrwt>
<pdfrwt beam="1">  1       21 0.15299973E-01 0.45057826E+03</pdfrwt>
<pdfrwt beam="2">  1       21 0.71741755E-01 0.45057826E+03</pdfrwt>
<totfact> 0.61294655E+04</totfact>
</mgrwt>
</event>
<event>
 7    0  0.4709932E-002  0.4677981E+03  0.7546771E-02  0.1022544E+00
         21   -1    0    0  502  501  0.00000000000E+00  0.00000000000E+00  0.87581563731E+03  0.87581563731E+03  0.00000000000E+00 0.  1.
         21   -1    0    0  501  502 -0.00000000000E+00 -0.00000000000E+00 -0.62466077563E+02  0.62466077563E+02  0.00000000000E+00 0.  1.
      99926    2    1    2    0    0  0.00000000000E+00  0.71054273576E-14  0.81334955975E+03  0.93828171487E+03  0.46779810829E+03 0.  0.
      99925    2    3    3    0    0 -0.45441768867E+02 -0.37576330761E+02  0.28568721692E+03  0.39279845103E+03  0.26305228041E+03 0.  0.
         25    1    3    3    0    0  0.45441768867E+02  0.37576330761E+02  0.52766234282E+03  0.54548326384E+03  0.12509000000E+03 0.  0.
         25    1    4    4    0    0  0.17874272122E+01 -0.50881592709E+02  0.13651494791E+03  0.19203117058E+03  0.12509000000E+03 0.  0.
         25    1    4    4    0    0 -0.47229196079E+02  0.13305261948E+02  0.14917226901E+03  0.20076728045E+03  0.12509000000E+03 0.  0.
<mgrwt>
<rscale>  2 0.46779811E+03</rscale>
<asrwt>0</asrwt>
<pdfrwt beam="1">  1       21 0.12879641E+00 0.46779811E+03</pdfrwt>
<pdfrwt beam="2">  1       21 0.91861884E-02 0.46779811E+03</pdfrwt>
<totfact> 0.37700109E+04</totfact>
</mgrwt>
</event>
<event>
 7    0  0.4709932E-002  0.4545745E+03  0.7546771E-02  0.1026367E+00
         21   -1    0    0  502  501  0.00000000000E+00  0.00000000000E+00  0.13635377670E+03  0.13635377670E+03  0.00000000000E+00 0. -1.
         21   -1    0    0  501  502 -0.00000000000E+00 -0.00000000000E+00 -0.37886365648E+03  0.37886365648E+03  0.00000000000E+00 0. -1.
      99926    2    1    2    0    0  0.00000000000E+00 -0.35527136788E-14 -0.24250987978E+03  0.51521743318E+03  0.45457448417E+03 0.  0.
      99925    2    3    3    0    0  0.30508629320E+02 -0.18930779655E+02 -0.31424938511E+02  0.26723858043E+03  0.26294444514E+03 0.  0.
         25    1    4    4    0    0 -0.10587205565E+02 -0.10452714625E+01  0.15112569786E+02  0.12644793150E+03  0.12509000000E+03 0.  0.
         25    1    3    3    0    0 -0.30508629320E+02  0.18930779655E+02 -0.21108494127E+03  0.24797885275E+03  0.12509000000E+03 0.  0.
         25    1    4    4    0    0  0.41095834886E+02 -0.17885508192E+02 -0.46537508297E+02  0.14079064893E+03  0.12509000000E+03 0.  0.
<mgrwt>
<rscale>  2 0.45457448E+03</rscale>
<asrwt>0</asrwt>
<pdfrwt beam="1">  1       21 0.20052027E-01 0.45457448E+03</pdfrwt>
<pdfrwt beam="2">  1       21 0.55715241E-01 0.45457448E+03</pdfrwt>
<totfact> 0.64431557E+04</totfact>
</mgrwt>
</event>
<event>
 7    0  0.4709932E-002  0.4551249E+03  0.7546771E-02  0.1026205E+00
         21   -1    0    0  502  501  0.00000000000E+00  0.00000000000E+00  0.88601878887E+03  0.88601878887E+03  0.00000000000E+00 0.  1.
         21   -1    0    0  501  502 -0.00000000000E+00 -0.00000000000E+00 -0.58446460637E+02  0.58446460637E+02  0.00000000000E+00 0.  1.
      99926    2    1    2    0    0  0.00000000000E+00  0.35527136788E-14  0.82757232823E+03  0.94446524951E+03  0.45512487195E+03 0.  0.
      99925    2    3    3    0    0  0.43426486840E+02 -0.16473506553E+02  0.30598498579E+03  0.40608053569E+03  0.26290179489E+03 0.  0.
         25    1    3    3    0    0 -0.43426486840E+02  0.16473506553E+02  0.52158734244E+03  0.53838471382E+03  0.12509000000E+03 0.  0.
         25    1    4    4    0    0  0.13944017628E+02  0.31573363081E+02  0.14769224054E+03  0.19660065844E+03  0.12509000000E+03 0.  0.
         25    1    4    4    0    0  0.29482469212E+02 -0.48046869633E+02  0.15829274525E+03  0.20947987725E+03  0.12509000000E+03 0.  0.
<mgrwt>
<rscale>  2 0.45512487E+03</rscale>
<asrwt>0</asrwt>
<pdfrwt beam="1">  1       21 0.13029687E+00 0.45512487E+03</pdfrwt>
<pdfrwt beam="2">  1       21 0.85950683E-02 0.45512487E+03</pdfrwt>
<totfact> 0.41325364E+04</totfact>
</mgrwt>
</event>
<event>
 7    0  0.4709932E-002  0.4565342E+03  0.7546771E-02  0.1025791E+00
         21   -1    0    0  502  501  0.00000000000E+00  0.00000000000E+00  0.86629048816E+02  0.86629048816E+02  0.00000000000E+00 0. -1.
         21   -1    0    0  501  502 -0.00000000000E+00 -0.00000000000E+00 -0.60148252746E+03  0.60148252746E+03  0.00000000000E+00 0. -1.
      99926    2    1    2    0    0 -0.17763568394E-14  0.00000000000E+00 -0.51485347864E+03  0.68811157628E+03  0.45653415747E+03 0.  0.
      99925    2    3    3    0    0  0.15968456852E+02  0.11213785248E+03 -0.34886003565E+03  0.45140242818E+03  0.26311772673E+03 0.  0.
         25    1    3    3    0    0 -0.15968456852E+02 -0.11213785248E+03 -0.16599344299E+03  0.23670914809E+03  0.12509000000E+03 0.  0.
         25    1    4    4    0    0 -0.10054967598E+02  0.93968340129E+02 -0.17634634489E+03  0.23595909132E+03  0.12509000000E+03 0.  0.
         25    1    4    4    0    0  0.26023424451E+02  0.18169512356E+02 -0.17251369076E+03  0.21544333686E+03  0.12509000000E+03 0.  0.
<mgrwt>
<rscale>  2 0.45653416E+03</rscale>
<asrwt>0</asrwt>
<pdfrwt beam="1">  1       21 0.12739566E-01 0.45653416E+03</pdfrwt>
<pdfrwt beam="2">  1       21 0.88453315E-01 0.45653416E+03</pdfrwt>
<totfact> 0.52911390E+04</totfact>
</mgrwt>
</event>
<event>
 7    0  0.4709932E-002  0.4563187E+03  0.7546771E-02  0.1025854E+00
         21   -1    0    0  502  501  0.00000000000E+00  0.00000000000E+00  0.74414438106E+02  0.74414438106E+02  0.00000000000E+00 0. -1.
         21   -1    0    0  501  502 -0.00000000000E+00 -0.00000000000E+00 -0.69955078062E+03  0.69955078062E+03  0.00000000000E+00 0. -1.
      99926    2    1    2    0    0 -0.14210854715E-13  0.00000000000E+00 -0.62513634251E+03  0.77396521872E+03  0.45631865299E+03 0.  0.
      99925    2    3    3    0    0  0.10098437979E+03  0.39999380409E+02 -0.33187051762E+03  0.43714160384E+03  0.26297708255E+03 0.  0.
         25    1    4    4    0    0  0.49711497562E+02  0.15291776394E+02 -0.10300477529E+03  0.17018391007E+03  0.12509000000E+03 0.  0.
         25    1    3    3    0    0 -0.10098437979E+03 -0.39999380409E+02 -0.29326582489E+03  0.33682361488E+03  0.12509000000E+03 0.  0.
         25    1    4    4    0    0  0.51272882227E+02  0.24707604015E+02 -0.22886574234E+03  0.26695769377E+03  0.12509000000E+03 0.  0.
<mgrwt>
<rscale>  2 0.45631865E+03</rscale>
<asrwt>0</asrwt>
<pdfrwt beam="1">  1       21 0.10943300E-01 0.45631865E+03</pdfrwt>
<pdfrwt beam="2">  1       21 0.10287511E+00 0.45631865E+03</pdfrwt>
<totfact> 0.48545417E+04</totfact>
</mgrwt>
</event>
<event>
 6    0  0.4709932E-002  0.4565076E+03  0.7546771E-02  0.1025799E+00
         21   -1    0    0  502  501  0.00000000000E+00  0.00000000000E+00  0.18074902910E+04  0.18074902910E+04  0.00000000000E+00 0.  1.
         21   -1    0    0  501  502 -0.00000000000E+00 -0.00000000000E+00 -0.28824383247E+02  0.28824383247E+02  0.00000000000E+00 0.  1.
      99926    2    1    2    0    0  0.00000000000E+00  0.00000000000E+00  0.17786659078E+04  0.18363146743E+04  0.45650758094E+03 0.  0.
         25    1    3    3    0    0  0.12952267579E+02 -0.47743641521E+02  0.68759697967E+03  0.70063138032E+03  0.12509000000E+03 0.  0.
         25    1    3    3    0    0 -0.21830210377E+02  0.32743823217E+02  0.22477169240E+03  0.26022785756E+03  0.12509000000E+03 0.  0.
         25    1    3    3    0    0  0.88779427980E+01  0.14999818304E+02  0.86629723572E+03  0.87545543640E+03  0.12509000000E+03 0.  0.
<mgrwt>
<rscale>  2 0.45650758E+03</rscale>
<asrwt>0</asrwt>
<pdfrwt beam="1">  1       21 0.26580732E+00 0.45650758E+03</pdfrwt>
<pdfrwt beam="2">  1       21 0.42388811E-02 0.45650758E+03</pdfrwt>
<totfact> 0.16379382E+04</totfact>
</mgrwt>
</event>
<event>
 7    0  0.4709932E-002  0.4516162E+03  0.7546771E-02  0.1027241E+00
         21   -1    0    0  502  501  0.00000000000E+00  0.00000000000E+00  0.21114008328E+02  0.21114008328E+02  0.00000000000E+00 0. -1.
         21   -1    0    0  501  502 -0.00000000000E+00 -0.00000000000E+00 -0.24149511158E+04  0.24149511158E+04  0.00000000000E+00 0. -1.
      99926    2    1    2    0    0  0.00000000000E+00 -0.35527136788E-14 -0.23938371074E+04  0.24360651241E+04  0.45161619976E+03 0.  0.
      99925    2    3    3    0    0 -0.10658910884E+03  0.27369645088E+02 -0.14474327999E+04  0.14751078113E+04  0.26224227180E+03 0.  0.
         25    1    4    4    0    0 -0.45996662704E+02 -0.18855591838E+02 -0.80600819621E+03  0.81717069623E+03  0.12509000000E+03 0.  0.
         25    1    3    3    0    0  0.10658910884E+03 -0.27369645088E+02 -0.94640430754E+03  0.96095731280E+03  0.12509000000E+03 0.  0.
         25    1    4    4    0    0 -0.60592446139E+02  0.46225236926E+02 -0.64142460369E+03  0.65793711507E+03  0.12509000000E+03 0.  0.
<mgrwt>
<rscale>  2 0.45161620E+03</rscale>
<asrwt>0</asrwt>
<pdfrwt beam="1">  1       21 0.31050008E-02 0.45161620E+03</pdfrwt>
<pdfrwt beam="2">  1       21 0.35513992E+00 0.45161620E+03</pdfrwt>
<totfact> 0.80170853E+03</totfact>
</mgrwt>
</event>
<event>
 7    0  0.4709932E-002  0.4493642E+03  0.7546771E-02  0.1027912E+00
         21   -1    0    0  502  501  0.00000000000E+00  0.00000000000E+00  0.17187760773E+03  0.17187760773E+03  0.00000000000E+00 0.  1.
         21   -1    0    0  501  502 -0.00000000000E+00 -0.00000000000E+00 -0.29370926226E+03  0.29370926226E+03  0.00000000000E+00 0.  1.
      99926    2    1    2    0    0 -0.35527136788E-14  0.00000000000E+00 -0.12183165454E+03  0.46558686999E+03  0.44936419690E+03 0.  0.
      99925    2    3    3    0    0 -0.18564306241E+02  0.10215942029E+03 -0.10701764409E+03  0.30234427866E+03  0.26301731135E+03 0.  0.
         25    1    4    4    0    0 -0.37561636881E+02  0.20563688273E+02 -0.50406697646E+02  0.14149941734E+03  0.12509000000E+03 0.  0.
         25    1    4    4    0    0  0.18997330641E+02  0.81595732013E+02 -0.56610946441E+02  0.16084486131E+03  0.12509000000E+03 0.  0.
         25    1    3    3    0    0  0.18564306241E+02 -0.10215942029E+03 -0.14814010449E+02  0.16324259133E+03  0.12509000000E+03 0.  0.
<mgrwt>
<rscale>  2 0.44936420E+03</rscale>
<asrwt>0</asrwt>
<pdfrwt beam="1">  1       21 0.25276119E-01 0.44936420E+03</pdfrwt>
<pdfrwt beam="2">  1       21 0.43192538E-01 0.44936420E+03</pdfrwt>
<totfact> 0.70881771E+04</totfact>
</mgrwt>
</event>
<event>
 7    0  0.4709932E-002  0.4556991E+03  0.7546771E-02  0.1026036E+00
         21   -1    0    0  502  501  0.00000000000E+00  0.00000000000E+00  0.10400982441E+03  0.10400982441E+03  0.00000000000E+00 0.  1.
         21   -1    0    0  501  502 -0.00000000000E+00 -0.00000000000E+00 -0.49913961449E+03  0.49913961449E+03  0.00000000000E+00 0.  1.
      99926    2    1    2    0    0 -0.35527136788E-14  0.00000000000E+00 -0.39512979007E+03  0.60314943890E+03  0.45569912732E+03 0.  0.
      99925    2    3    3    0    0  0.20730233840E+02 -0.43190441373E+02 -0.11184352099E+03  0.28979057885E+03  0.26301036022E+03 0.  0.
         25    1    4    4    0    0  0.28198249355E+02 -0.21483033120E+02 -0.16961634742E+02  0.13111776055E+03  0.12509000000E+03 0.  0.
         25    1    3    3    0    0 -0.20730233840E+02  0.43190441373E+02 -0.28328626908E+03  0.31335886005E+03  0.12509000000E+03 0.  0.
         25    1    4    4    0    0 -0.74680155153E+01 -0.21707408252E+02 -0.94881886251E+02  0.15867281830E+03  0.12509000000E+03 0.  0.
<mgrwt>
<rscale>  2 0.45569913E+03</rscale>
<asrwt>0</asrwt>
<pdfrwt beam="1">  1       21 0.15295563E-01 0.45569913E+03</pdfrwt>
<pdfrwt beam="2">  1       21 0.73402882E-01 0.45569913E+03</pdfrwt>
<totfact> 0.58162901E+04</totfact>
</mgrwt>
</event>
<event>
 6    0  0.4709932E-002  0.4562989E+03  0.7546771E-02  0.1025860E+00
         21   -1    0    0  502  501  0.00000000000E+00  0.00000000000E+00  0.51430637593E+03  0.51430637593E+03  0.00000000000E+00 0. -1.
         21   -1    0    0  501  502 -0.00000000000E+00 -0.00000000000E+00 -0.10120850703E+03  0.10120850703E+03  0.00000000000E+00 0. -1.
      99926    2    1    2    0    0  0.00000000000E+00  0.14210854715E-13  0.41309786889E+03  0.61551488296E+03  0.45629893914E+03 0.  0.
         25    1    3    3    0    0 -0.47950872407E+02  0.84087912239E+02  0.64399844793E+02  0.17077737338E+03  0.12509000000E+03 0.  0.
         25    1    3    3    0    0  0.46077548669E+02 -0.37669738007E+02  0.13942715630E+03  0.19654411634E+03  0.12509000000E+03 0.  0.
         25    1    3    3    0    0  0.18733237381E+01 -0.46418174232E+02  0.20927086780E+03  0.24819339324E+03  0.12509000000E+03 0.  0.
<mgrwt>
<rscale>  2 0.45629894E+03</rscale>
<asrwt>0</asrwt>
<pdfrwt beam="1">  1       21 0.75633289E-01 0.45629894E+03</pdfrwt>
<pdfrwt beam="2">  1       21 0.14883604E-01 0.45629894E+03</pdfrwt>
<totfact> 0.57144823E+04</totfact>
</mgrwt>
</event>
<event>
 7    0  0.4709932E-002  0.4560094E+03  0.7546771E-02  0.1025945E+00
         21   -1    0    0  502  501  0.00000000000E+00  0.00000000000E+00  0.16038405205E+02  0.16038405205E+02  0.00000000000E+00 0. -1.
         21   -1    0    0  501  502 -0.00000000000E+00 -0.00000000000E+00 -0.32413541727E+04  0.32413541727E+04  0.00000000000E+00 0. -1.
      99926    2    1    2    0    0  0.00000000000E+00  0.00000000000E+00 -0.32253157675E+04  0.32573925779E+04  0.45600943689E+03 0.  0.
      99925    2    3    3    0    0 -0.49674883312E+02  0.62170701906E+02 -0.14427472190E+04  0.14686693102E+04  0.26293956456E+03 0.  0.
         25    1    3    3    0    0  0.49674883312E+02 -0.62170701906E+02 -0.17825685485E+04  0.17887232677E+04  0.12509000000E+03 0.  0.
         25    1    4    4    0    0 -0.21390944425E+02  0.64645672795E+02 -0.63292674101E+03  0.64875295999E+03  0.12509000000E+03 0.  0.
         25    1    4    4    0    0 -0.28283938887E+02 -0.24749708891E+01 -0.80982047796E+03  0.81991635019E+03  0.12509000000E+03 0.  0.
<mgrwt>
<rscale>  2 0.45600944E+03</rscale>
<asrwt>0</asrwt>
<pdfrwt beam="1">  1       21 0.23585890E-02 0.45600944E+03</pdfrwt>
<pdfrwt beam="2">  1       21 0.47666974E+00 0.45600944E+03</pdfrwt>
<totfact> 0.20352331E+03</totfact>
</mgrwt>
</event>
<event>
 7    0  0.4709932E-002  0.4546471E+03  0.7546771E-02  0.1026345E+00
         21   -1    0    0  502  501  0.00000000000E+00  0.00000000000E+00  0.35487619659E+03  0.35487619659E+03  0.00000000000E+00 0. -1.
         21   -1    0    0  501  502 -0.00000000000E+00 -0.00000000000E+00 -0.14561694968E+03  0.14561694968E+03  0.00000000000E+00 0. -1.
      99926    2    1    2    0    0  0.00000000000E+00  0.00000000000E+00  0.20925924691E+03  0.50049314628E+03  0.45464706867E+03 0.  0.
      99925    2    3    3    0    0  0.40846440603E+02  0.26932284419E+02  0.24337999449E+03  0.36190918916E+03  0.26334513443E+03 0.  0.
         25    1    4    4    0    0  0.52075589420E+02  0.30873158708E+02  0.99695709566E+02  0.17103146362E+03  0.12509000000E+03 0.  0.
         25    1    4    4    0    0 -0.11229148817E+02 -0.39408742885E+01  0.14368428493E+03  0.19087772554E+03  0.12509000000E+03 0.  0.
         25    1    3    3    0    0 -0.40846440603E+02 -0.26932284419E+02 -0.34120747580E+02  0.13858395711E+03  0.12509000000E+03 0.  0.
<mgrwt>
<rscale>  2 0.45464707E+03</rscale>
<asrwt>0</asrwt>
<pdfrwt beam="1">  1       21 0.52187676E-01 0.45464707E+03</pdfrwt>
<pdfrwt beam="2">  1       21 0.21414257E-01 0.45464707E+03</pdfrwt>
<totfact> 0.65419114E+04</totfact>
</mgrwt>
</event>
<event>
 7    0  0.4709932E-002  0.4571298E+03  0.7546771E-02  0.1025617E+00
         21   -1    0    0  502  501  0.00000000000E+00  0.00000000000E+00  0.70813407630E+02  0.70813407630E+02  0.00000000000E+00 0. -1.
         21   -1    0    0  501  502 -0.00000000000E+00 -0.00000000000E+00 -0.73774036642E+03  0.73774036642E+03  0.00000000000E+00 0. -1.
      99926    2    1    2    0    0 -0.14210854715E-13  0.00000000000E+00 -0.66692695879E+03  0.80855377405E+03  0.45712978154E+03 0.  0.
      99925    2    3    3    0    0  0.95702472354E+02  0.58530706028E+02 -0.46371037753E+03  0.54486969459E+03  0.26319358482E+03 0.  0.
         25    1    4    4    0    0  0.87028393368E+02  0.17493253425E+02 -0.22910998555E+03  0.27571515872E+03  0.12509000000E+03 0.  0.
         25    1    4    4    0    0  0.86740789865E+01  0.41037452604E+02 -0.23460039198E+03  0.26915453587E+03  0.12509000000E+03 0.  0.
         25    1    3    3    0    0 -0.95702472354E+02 -0.58530706028E+02 -0.20321658125E+03  0.26368407946E+03  0.12509000000E+03 0.  0.
<mgrwt>
<rscale>  2 0.45712978E+03</rscale>
<asrwt>0</asrwt>
<pdfrwt beam="1">  1       21 0.10413737E-01 0.45712978E+03</pdfrwt>
<pdfrwt beam="2">  1       21 0.10849123E+00 0.45712978E+03</pdfrwt>
<totfact> 0.46570625E+04</totfact>
</mgrwt>
</event>
<event>
 7    0  0.4709932E-002  0.4519238E+03  0.7546771E-02  0.1027150E+00
         21   -1    0    0  502  501  0.00000000000E+00  0.00000000000E+00  0.15887855471E+03  0.15887855471E+03  0.00000000000E+00 0. -1.
         21   -1    0    0  501  502 -0.00000000000E+00 -0.00000000000E+00 -0.32136984454E+03  0.32136984454E+03  0.00000000000E+00 0. -1.
      99926    2    1    2    0    0  0.00000000000E+00  0.00000000000E+00 -0.16249128983E+03  0.48024839924E+03  0.45192378307E+03 0.  0.
      99925    2    3    3    0    0  0.86622488205E+02 -0.60829876435E+02 -0.13502933822E+03  0.31409968208E+03  0.26310066281E+03 0.  0.
         25    1    4    4    0    0  0.76803580104E+02 -0.33735377444E+02 -0.10085239126E+03  0.18126107837E+03  0.12509000000E+03 0.  0.
         25    1    3    3    0    0 -0.86622488205E+02  0.60829876435E+02 -0.27461951616E+02  0.16614871717E+03  0.12509000000E+03 0.  0.
         25    1    4    4    0    0  0.98189081014E+01 -0.27094498990E+02 -0.34176946954E+02  0.13283860371E+03  0.12509000000E+03 0.  0.
<mgrwt>
<rscale>  2 0.45192378E+03</rscale>
<asrwt>0</asrwt>
<pdfrwt beam="1">  1       21 0.23364494E-01 0.45192378E+03</pdfrwt>
<pdfrwt beam="2">  1       21 0.47260271E-01 0.45192378E+03</pdfrwt>
<totfact> 0.68335502E+04</totfact>
</mgrwt>
</event>
<event>
 7    0  0.4709932E-002  0.4557036E+03  0.7546771E-02  0.1026035E+00
         21   -1    0    0  502  501  0.00000000000E+00  0.00000000000E+00  0.76834992206E+03  0.76834992206E+03  0.00000000000E+00 0. -1.
         21   -1    0    0  501  502 -0.00000000000E+00 -0.00000000000E+00 -0.67568748489E+02  0.67568748489E+02  0.00000000000E+00 0. -1.
      99926    2    1    2    0    0  0.00000000000E+00 -0.26645352591E-14  0.70078117357E+03  0.83591867055E+03  0.45570359944E+03 0.  0.
      99925    2    3    3    0    0 -0.32724177296E+02 -0.69190247955E+01  0.64034363887E+03  0.69302378476E+03  0.26291300029E+03 0.  0.
         25    1    3    3    0    0  0.32724177296E+02  0.69190247955E+01  0.60437534700E+02  0.14289488579E+03  0.12509000000E+03 0.  0.
         25    1    4    4    0    0 -0.23196858395E+02  0.23981778336E+02  0.24498395471E+03  0.27708819191E+03  0.12509000000E+03 0.  0.
         25    1    4    4    0    0 -0.95273189013E+01 -0.30900803131E+02  0.39535968416E+03  0.41593559285E+03  0.12509000000E+03 0.  0.
<mgrwt>
<rscale>  2 0.45570360E+03</rscale>
<asrwt>0</asrwt>
<pdfrwt beam="1">  1       21 0.11299263E+00 0.45570360E+03</pdfrwt>
<pdfrwt beam="2">  1       21 0.99365811E-02 0.45570360E+03</pdfrwt>
<totfact> 0.45822531E+04</totfact>
</mgrwt>
</event>
<event>
 7    0  0.4709932E-002  0.4560059E+03  0.7546771E-02  0.1025946E+00
         21   -1    0    0  502  501  0.00000000000E+00  0.00000000000E+00  0.36277862929E+03  0.36277862929E+03  0.00000000000E+00 0. -1.
         21   -1    0    0  501  502 -0.00000000000E+00 -0.00000000000E+00 -0.14329767919E+03  0.14329767919E+03  0.00000000000E+00 0. -1.
      99926    2    1    2    0    0  0.17763568394E-14 -0.14210854715E-13  0.21948095010E+03  0.50607630848E+03  0.45600585802E+03 0.  0.
      99925    2    3    3    0    0 -0.12482355718E+02 -0.99168438701E+02  0.76984609475E+02  0.29173335052E+03  0.26304282782E+03 0.  0.
         25    1    4    4    0    0  0.13870399094E+02 -0.85136029317E+02  0.52908772944E+02  0.16089554939E+03  0.12509000000E+03 0.  0.
         25    1    4    4    0    0 -0.26352754813E+02 -0.14032409384E+02  0.24075836532E+02  0.13083780113E+03  0.12509000000E+03 0.  0.
         25    1    3    3    0    0  0.12482355718E+02  0.99168438701E+02  0.14249634062E+03  0.21434295796E+03  0.12509000000E+03 0.  0.
<mgrwt>
<rscale>  2 0.45600586E+03</rscale>
<asrwt>0</asrwt>
<pdfrwt beam="1">  1       21 0.53349798E-01 0.45600586E+03</pdfrwt>
<pdfrwt beam="2">  1       21 0.21073188E-01 0.45600586E+03</pdfrwt>
<totfact> 0.64330724E+04</totfact>
</mgrwt>
</event>
<event>
 7    0  0.4709932E-002  0.4507813E+03  0.7546771E-02  0.1027489E+00
         21   -1    0    0  502  501  0.00000000000E+00  0.00000000000E+00  0.33589262617E+03  0.33589262617E+03  0.00000000000E+00 0.  1.
         21   -1    0    0  501  502 -0.00000000000E+00 -0.00000000000E+00 -0.15124162873E+03  0.15124162873E+03  0.00000000000E+00 0.  1.
      99926    2    1    2    0    0  0.14210854715E-13 -0.71054273576E-14  0.18465099744E+03  0.48713425491E+03  0.45078131222E+03 0.  0.
      99925    2    3    3    0    0 -0.91587533321E+02  0.58980046224E+02  0.12642051847E+03  0.31133545260E+03  0.26283206509E+03 0.  0.
         25    1    4    4    0    0 -0.55136439495E+02  0.51025095160E+02  0.10327327443E+03  0.17876371166E+03  0.12509000000E+03 0.  0.
         25    1    4    4    0    0 -0.36451093826E+02  0.79549510641E+01  0.23147244044E+02  0.13257174093E+03  0.12509000000E+03 0.  0.
         25    1    3    3    0    0  0.91587533321E+02 -0.58980046224E+02  0.58230478972E+02  0.17579880231E+03  0.12509000000E+03 0.  0.
<mgrwt>
<rscale>  2 0.45078131E+03</rscale>
<asrwt>0</asrwt>
<pdfrwt beam="1">  1       21 0.49395975E-01 0.45078131E+03</pdfrwt>
<pdfrwt beam="2">  1       21 0.22241416E-01 0.45078131E+03</pdfrwt>
<totfact> 0.68448149E+04</totfact>
</mgrwt>
</event>
<event>
 7    0  0.4709932E-002  0.4566803E+03  0.7546771E-02  0.1025748E+00
         21   -1    0    0  502  501  0.00000000000E+00  0.00000000000E+00  0.90786016409E+03  0.90786016409E+03  0.00000000000E+00 0.  1.
         21   -1    0    0  501  502 -0.00000000000E+00 -0.00000000000E+00 -0.57430886614E+02  0.57430886614E+02  0.00000000000E+00 0.  1.
      99926    2    1    2    0    0  0.00000000000E+00 -0.26645352591E-14  0.85042927747E+03  0.96529105070E+03  0.45668025640E+03 0.  0.
      99925    2    3    3    0    0 -0.10573869457E+03 -0.33755203558E+01  0.44110770984E+03  0.52440135986E+03  0.26311349047E+03 0.  0.
         25    1    4    4    0    0 -0.86466550245E+02 -0.25749870770E+02  0.26040980612E+03  0.30265540699E+03  0.12509000000E+03 0.  0.
         25    1    4    4    0    0 -0.19272144324E+02  0.22374350414E+02  0.18069790372E+03  0.22174595287E+03  0.12509000000E+03 0.  0.
         25    1    3    3    0    0  0.10573869457E+03  0.33755203558E+01  0.40932156763E+03  0.44088969085E+03  0.12509000000E+03 0.  0.
<mgrwt>
<rscale>  2 0.45668026E+03</rscale>
<asrwt>0</asrwt>
<pdfrwt beam="1">  1       21 0.13350884E+00 0.45668026E+03</pdfrwt>
<pdfrwt beam="2">  1       21 0.84457192E-02 0.45668026E+03</pdfrwt>
<totfact> 0.39999718E+04</totfact>
</mgrwt>
</event>
<event>
 7    0  0.4709932E-002  0.4601648E+03  0.7546771E-02  0.1024733E+00
         21   -1    0    0  502  501  0.00000000000E+00  0.00000000000E+00  0.93777190670E+02  0.93777190670E+02  0.00000000000E+00 0. -1.
         21   -1    0    0  501  502 -0.00000000000E+00 -0.00000000000E+00 -0.56450741309E+03  0.56450741309E+03  0.00000000000E+00 0. -1.
      99926    2    1    2    0    0 -0.14210854715E-13 -0.44408920985E-15 -0.47073022242E+03  0.65828460376E+03  0.46016483704E+03 0.  0.
      99925    2    3    3    0    0 -0.92429608479E+02 -0.27955905397E+01 -0.39964977423E+03  0.48725540723E+03  0.26295787112E+03 0.  0.
         25    1    3    3    0    0  0.92429608479E+02  0.27955905397E+01 -0.71080448188E+02  0.17102919653E+03  0.12509000000E+03 0.  0.
         25    1    4    4    0    0 -0.45150809736E+02  0.75003500792E+01 -0.13016909797E+03  0.18624272613E+03  0.12509000000E+03 0.  0.
         25    1    4    4    0    0 -0.47278798743E+02 -0.10295940619E+02 -0.26948067626E+03  0.30101268110E+03  0.12509000000E+03 0.  0.
<mgrwt>
<rscale>  2 0.46016484E+03</rscale>
<asrwt>0</asrwt>
<pdfrwt beam="1">  1       21 0.13790764E-01 0.46016484E+03</pdfrwt>
<pdfrwt beam="2">  1       21 0.83015794E-01 0.46016484E+03</pdfrwt>
<totfact> 0.53033134E+04</totfact>
</mgrwt>
</event>
<event>
 7    0  0.4709932E-002  0.4607808E+03  0.7546771E-02  0.1024555E+00
         21   -1    0    0  502  501  0.00000000000E+00  0.00000000000E+00  0.11722732730E+04  0.11722732730E+04  0.00000000000E+00 0. -1.
         21   -1    0    0  501  502 -0.00000000000E+00 -0.00000000000E+00 -0.45279324189E+02  0.45279324189E+02  0.00000000000E+00 0. -1.
      99926    2    1    2    0    0  0.00000000000E+00  0.00000000000E+00  0.11269939488E+04  0.12175525972E+04  0.46078082238E+03 0.  0.
      99925    2    3    3    0    0 -0.55755003376E+02  0.10220937627E+03  0.64391135199E+03  0.70513511071E+03  0.26275143794E+03 0.  0.
         25    1    3    3    0    0  0.55755003376E+02 -0.10220937627E+03  0.48308259683E+03  0.51241748649E+03  0.12509000000E+03 0.  0.
         25    1    4    4    0    0 -0.18459326914E+02  0.41021031254E+02  0.21636553747E+03  0.25393901957E+03  0.12509000000E+03 0.  0.
         25    1    4    4    0    0 -0.37295676462E+02  0.61188345013E+02  0.42754581452E+03  0.45119609114E+03  0.12509000000E+03 0.  0.
<mgrwt>
<rscale>  2 0.46078082E+03</rscale>
<asrwt>0</asrwt>
<pdfrwt beam="1">  1       21 0.17239311E+00 0.46078082E+03</pdfrwt>
<pdfrwt beam="2">  1       21 0.66587249E-02 0.46078082E+03</pdfrwt>
<totfact> 0.30220737E+04</totfact>
</mgrwt>
</event>
<event>
 7    0  0.4709932E-002  0.4544253E+03  0.7546771E-02  0.1026411E+00
         21   -1    0    0  502  501  0.00000000000E+00  0.00000000000E+00  0.95092013841E+02  0.95092013841E+02  0.00000000000E+00 0. -1.
         21   -1    0    0  501  502 -0.00000000000E+00 -0.00000000000E+00 -0.54290136622E+03  0.54290136622E+03  0.00000000000E+00 0. -1.
      99926    2    1    2    0    0  0.00000000000E+00 -0.14210854715E-13 -0.44780935238E+03  0.63799338006E+03  0.45442528200E+03 0.  0.
      99925    2    3    3    0    0  0.33543426049E+02  0.10364636643E+03 -0.32186596182E+03  0.42972197917E+03  0.26305047291E+03 0.  0.
         25    1    3    3    0    0 -0.33543426049E+02 -0.10364636643E+03 -0.12594339056E+03  0.20827140090E+03  0.12509000000E+03 0.  0.
         25    1    4    4    0    0  0.23252685271E+02  0.87392601850E+02 -0.21125330248E+03  0.26163642739E+03  0.12509000000E+03 0.  0.
         25    1    4    4    0    0  0.10290740778E+02  0.16253764580E+02 -0.11061265934E+03  0.16808555177E+03  0.12509000000E+03 0.  0.
<mgrwt>
<rscale>  2 0.45442528E+03</rscale>
<asrwt>0</asrwt>
<pdfrwt beam="1">  1       21 0.13984120E-01 0.45442528E+03</pdfrwt>
<pdfrwt beam="2">  1       21 0.79838435E-01 0.45442528E+03</pdfrwt>
<totfact> 0.56655077E+04</totfact>
</mgrwt>
</event>
<event>
 7    0  0.4709932E-002  0.4795292E+03  0.7546771E-02  0.1019265E+00
         21   -1    0    0  502  501  0.00000000000E+00  0.00000000000E+00  0.52342249658E+03  0.52342249658E+03  0.00000000000E+00 0. -1.
         21   -1    0    0  501  502 -0.00000000000E+00 -0.00000000000E+00 -0.10982916045E+03  0.10982916045E+03  0.00000000000E+00 0. -1.
      99926    2    1    2    0    0  0.14210854715E-13  0.71054273576E-14  0.41359333613E+03  0.63325165703E+03  0.47952915807E+03 0.  0.
      99925    2    3    3    0    0 -0.10292776749E+03 -0.32284917057E+02  0.14784875900E+03  0.32035530108E+03  0.26292931028E+03 0.  0.
         25    1    4    4    0    0 -0.47010912846E+02  0.24432626837E+02  0.73874765272E+02  0.15463495150E+03  0.12509000000E+03 0.  0.
         25    1    4    4    0    0 -0.55916854646E+02 -0.56717543894E+02  0.73973993724E+02  0.16572034958E+03  0.12509000000E+03 0.  0.
         25    1    3    3    0    0  0.10292776749E+03  0.32284917057E+02  0.26574457713E+03  0.31289635595E+03  0.12509000000E+03 0.  0.
<mgrwt>
<rscale>  2 0.47952916E+03</rscale>
<asrwt>0</asrwt>
<pdfrwt beam="1">  1       21 0.76973895E-01 0.47952916E+03</pdfrwt>
<pdfrwt beam="2">  1       21 0.16151347E-01 0.47952916E+03</pdfrwt>
<totfact> 0.46910842E+04</totfact>
</mgrwt>
</event>
<event>
 7    0  0.4709932E-002  0.4449340E+03  0.7546771E-02  0.1029244E+00
         21   -1    0    0  502  501  0.00000000000E+00  0.00000000000E+00  0.18064900351E+03  0.18064900351E+03  0.00000000000E+00 0.  1.
         21   -1    0    0  501  502 -0.00000000000E+00 -0.00000000000E+00 -0.27396530772E+03  0.27396530772E+03  0.00000000000E+00 0.  1.
      99926    2    1    2    0    0  0.00000000000E+00  0.00000000000E+00 -0.93316304213E+02  0.45461431123E+03  0.44493397190E+03 0.  0.
      99925    2    3    3    0    0 -0.98023990592E+02 -0.27441909188E+02 -0.78072566171E+02  0.29262159300E+03  0.26300249046E+03 0.  0.
         25    1    3    3    0    0  0.98023990592E+02  0.27441909188E+02 -0.15243738041E+02  0.16199271823E+03  0.12509000000E+03 0.  0.
         25    1    4    4    0    0 -0.25769341952E+02 -0.59532860403E+01 -0.18256426107E+01  0.12786845455E+03  0.12509000000E+03 0.  0.
         25    1    4    4    0    0 -0.72254648640E+02 -0.21488623148E+02 -0.76246923561E+02  0.16475313844E+03  0.12509000000E+03 0.  0.
<mgrwt>
<rscale>  2 0.44493397E+03</rscale>
<asrwt>0</asrwt>
<pdfrwt beam="1">  1       21 0.26566030E-01 0.44493397E+03</pdfrwt>
<pdfrwt beam="2">  1       21 0.40289016E-01 0.44493397E+03</pdfrwt>
<totfact> 0.74359872E+04</totfact>
</mgrwt>
</event>
<event>
 7    0  0.4709932E-002  0.4460466E+03  0.7546771E-02  0.1028908E+00
         21   -1    0    0  502  501  0.00000000000E+00  0.00000000000E+00  0.12149623518E+03  0.12149623518E+03  0.00000000000E+00 0.  1.
         21   -1    0    0  501  502 -0.00000000000E+00 -0.00000000000E+00 -0.40939042353E+03  0.40939042353E+03  0.00000000000E+00 0.  1.
      99926    2    1    2    0    0  0.88817841970E-15  0.14210854715E-13 -0.28789418835E+03  0.53088665871E+03  0.44604661271E+03 0.  0.
      99925    2    3    3    0    0 -0.57806240066E+01 -0.79519454089E+02 -0.26308401563E+03  0.38048781575E+03  0.26306086646E+03 0.  0.
         25    1    3    3    0    0  0.57806240066E+01  0.79519454089E+02 -0.24810172720E+02  0.15039884296E+03  0.12509000000E+03 0.  0.
         25    1    4    4    0    0  0.28821060292E+02 -0.15619119786E+02 -0.13956492051E+03  0.19026425192E+03  0.12509000000E+03 0.  0.
         25    1    4    4    0    0 -0.34601684298E+02 -0.63900334303E+02 -0.12351909511E+03  0.19022356383E+03  0.12509000000E+03 0.  0.
<mgrwt>
<rscale>  2 0.44604661E+03</rscale>
<asrwt>0</asrwt>
<pdfrwt beam="1">  1       21 0.17867094E-01 0.44604661E+03</pdfrwt>
<pdfrwt beam="2">  1       21 0.60204473E-01 0.44604661E+03</pdfrwt>
<totfact> 0.67828289E+04</totfact>
</mgrwt>
</event>
<event>
 7    0  0.4709932E-002  0.4582091E+03  0.7546771E-02  0.1025302E+00
         21   -1    0    0  502  501  0.00000000000E+00  0.00000000000E+00  0.89598148262E+02  0.89598148262E+02  0.00000000000E+00 0. -1.
         21   -1    0    0  501  502 -0.00000000000E+00 -0.00000000000E+00 -0.58582575058E+03  0.58582575058E+03  0.00000000000E+00 0. -1.
      99926    2    1    2    0    0  0.71054273576E-14  0.00000000000E+00 -0.49622760231E+03  0.67542389884E+03  0.45820913328E+03 0.  0.
      99925    2    3    3    0    0 -0.62485637421E+02  0.85399835326E+02 -0.24092700398E+03  0.37207016082E+03  0.26304523674E+03 0.  0.
         25    1    4    4    0    0 -0.69959128554E+02  0.60181211014E+02 -0.12425751124E+03  0.19900626881E+03  0.12509000000E+03 0.  0.
         25    1    3    3    0    0  0.62485637421E+02 -0.85399835326E+02 -0.25530059833E+03  0.30335373801E+03  0.12509000000E+03 0.  0.
         25    1    4    4    0    0  0.74734911322E+01  0.25218624312E+02 -0.11666949275E+03  0.17306389201E+03  0.12509000000E+03 0.  0.
<mgrwt>
<rscale>  2 0.45820913E+03</rscale>
<asrwt>0</asrwt>
<pdfrwt beam="1">  1       21 0.13176198E-01 0.45820913E+03</pdfrwt>
<pdfrwt beam="2">  1       21 0.86150848E-01 0.45820913E+03</pdfrwt>
<totfact> 0.52907150E+04</totfact>
</mgrwt>
</event>
<event>
 7    0  0.4709932E-002  0.4217186E+03  0.7546771E-02  0.1036508E+00
         21   -1    0    0  502  501  0.00000000000E+00  0.00000000000E+00  0.25470478769E+03  0.25470478769E+03  0.00000000000E+00 0.  1.
         21   -1    0    0  501  502 -0.00000000000E+00 -0.00000000000E+00 -0.17456148530E+03  0.17456148530E+03  0.00000000000E+00 0.  1.
      99926    2    1    2    0    0  0.88817841970E-15  0.00000000000E+00  0.80143302394E+02  0.42926627299E+03  0.42171860785E+03 0.  0.
      99925    2    3    3    0    0  0.41879135703E+01  0.35227315906E+02  0.12269667494E+03  0.29245691651E+03  0.26309327541E+03 0.  0.
         25    1    3    3    0    0 -0.41879135703E+01 -0.35227315906E+02 -0.42553372546E+02  0.13680935648E+03  0.12509000000E+03 0.  0.
         25    1    4    4    0    0 -0.10597103808E+02  0.47637798103E+02  0.90279223582E+02  0.16180081807E+03  0.12509000000E+03 0.  0.
         25    1    4    4    0    0  0.14785017378E+02 -0.12410482197E+02  0.32417451358E+02  0.13065609844E+03  0.12509000000E+03 0.  0.
<mgrwt>
<rscale>  2 0.42171861E+03</rscale>
<asrwt>0</asrwt>
<pdfrwt beam="1">  1       21 0.37456586E-01 0.42171861E+03</pdfrwt>
<pdfrwt beam="2">  1       21 0.25670807E-01 0.42171861E+03</pdfrwt>
<totfact> 0.92751458E+04</totfact>
</mgrwt>
</event>
<event>
 7    0  0.4709932E-002  0.4502302E+03  0.7546771E-02  0.1027653E+00
         21   -1    0    0  502  501  0.00000000000E+00  0.00000000000E+00  0.85274900360E+03  0.85274900360E+03  0.00000000000E+00 0. -1.
         21   -1    0    0  501  502 -0.00000000000E+00 -0.00000000000E+00 -0.59427586746E+02  0.59427586746E+02  0.00000000000E+00 0. -1.
      99926    2    1    2    0    0  0.00000000000E+00  0.00000000000E+00  0.79332141685E+03  0.91217659034E+03  0.45023023170E+03 0.  0.
      99925    2    3    3    0    0 -0.71622704985E+02 -0.20537441187E+02  0.33993376623E+03  0.43598391065E+03  0.26263169375E+03 0.  0.
         25    1    3    3    0    0  0.71622704985E+02  0.20537441187E+02  0.45338765062E+03  0.47619267970E+03  0.12509000000E+03 0.  0.
         25    1    4    4    0    0 -0.17055345992E+02 -0.39529573609E+02  0.19835123746E+03  0.23842020367E+03  0.12509000000E+03 0.  0.
         25    1    4    4    0    0 -0.54567358993E+02  0.18992132423E+02  0.14158252877E+03  0.19756370698E+03  0.12509000000E+03 0.  0.
<mgrwt>
<rscale>  2 0.45023023E+03</rscale>
<asrwt>0</asrwt>
<pdfrwt beam="1">  1       21 0.12540426E+00 0.45023023E+03</pdfrwt>
<pdfrwt beam="2">  1       21 0.87393515E-02 0.45023023E+03</pdfrwt>
<totfact> 0.44343314E+04</totfact>
</mgrwt>
</event>
<event>
 7    0  0.4709932E-002  0.4566118E+03  0.7546771E-02  0.1025769E+00
         21   -1    0    0  502  501  0.00000000000E+00  0.00000000000E+00  0.10492411753E+03  0.10492411753E+03  0.00000000000E+00 0. -1.
         21   -1    0    0  501  502 -0.00000000000E+00 -0.00000000000E+00 -0.49677400895E+03  0.49677400895E+03  0.00000000000E+00 0. -1.
      99926    2    1    2    0    0  0.00000000000E+00  0.00000000000E+00 -0.39184989142E+03  0.60169812648E+03  0.45661175850E+03 0.  0.
      99925    2    3    3    0    0  0.67220951729E+01 -0.34819059723E+02 -0.10245456116E+03  0.28443684810E+03  0.26296355255E+03 0.  0.
         25    1    3    3    0    0 -0.67220951729E+01  0.34819059723E+02 -0.28939533026E+03  0.31726127838E+03  0.12509000000E+03 0.  0.
         25    1    4    4    0    0 -0.23394517134E+02  0.11392866612E+02 -0.60970573969E+02  0.14156984083E+03  0.12509000000E+03 0.  0.
         25    1    4    4    0    0  0.30116612306E+02 -0.46211926335E+02 -0.41483987194E+02  0.14286700727E+03  0.12509000000E+03 0.  0.
<mgrwt>
<rscale>  2 0.45661176E+03</rscale>
<asrwt>0</asrwt>
<pdfrwt beam="1">  1       21 0.15430017E-01 0.45661176E+03</pdfrwt>
<pdfrwt beam="2">  1       21 0.73055004E-01 0.45661176E+03</pdfrwt>
<totfact> 0.57833859E+04</totfact>
</mgrwt>
</event>
<event>
 7    0  0.4709932E-002  0.4693577E+03  0.7546771E-02  0.1022102E+00
         21   -1    0    0  502  501  0.00000000000E+00  0.00000000000E+00  0.40871535837E+03  0.40871535837E+03  0.00000000000E+00 0.  1.
         21   -1    0    0  501  502 -0.00000000000E+00 -0.00000000000E+00 -0.13474941741E+03  0.13474941741E+03  0.00000000000E+00 0.  1.
      99926    2    1    2    0    0  0.00000000000E+00  0.00000000000E+00  0.27396594096E+03  0.54346477578E+03  0.46935767354E+03 0.  0.
      99925    2    3    3    0    0 -0.96898809795E+02  0.37495927291E+02  0.25303191441E+03  0.37951031421E+03  0.26307338325E+03 0.  0.
         25    1    4    4    0    0 -0.53664981783E+02 -0.73154719236E+01  0.83653436460E+02  0.15993389863E+03  0.12509000000E+03 0.  0.
         25    1    4    4    0    0 -0.43233828012E+02  0.44811399215E+02  0.16937847795E+03  0.21957641558E+03  0.12509000000E+03 0.  0.
         25    1    3    3    0    0  0.96898809795E+02 -0.37495927291E+02  0.20934026546E+02  0.16395446158E+03  0.12509000000E+03 0.  0.
<mgrwt>
<rscale>  2 0.46935767E+03</rscale>
<asrwt>0</asrwt>
<pdfrwt beam="1">  1       21 0.60105200E-01 0.46935767E+03</pdfrwt>
<pdfrwt beam="2">  1       21 0.19816091E-01 0.46935767E+03</pdfrwt>
<totfact> 0.55692242E+04</totfact>
</mgrwt>
</event>
<event>
 7    0  0.4709932E-002  0.4583922E+03  0.7546771E-02  0.1025249E+00
         21   -1    0    0  502  501  0.00000000000E+00  0.00000000000E+00  0.17068068700E+03  0.17068068700E+03  0.00000000000E+00 0.  1.
         21   -1    0    0  501  502 -0.00000000000E+00 -0.00000000000E+00 -0.30777268789E+03  0.30777268789E+03  0.00000000000E+00 0.  1.
      99926    2    1    2    0    0  0.00000000000E+00  0.00000000000E+00 -0.13709200090E+03  0.47845337489E+03  0.45839220678E+03 0.  0.
      99925    2    3    3    0    0 -0.76305001223E+02  0.79886423889E+02 -0.12389007467E+03  0.31104342032E+03  0.26304935809E+03 0.  0.
         25    1    4    4    0    0 -0.48742733657E+02  0.28237972660E+02 -0.20926764286E+02  0.13877562736E+03  0.12509000000E+03 0.  0.
         25    1    4    4    0    0 -0.27562267566E+02  0.51648451229E+02 -0.10296331038E+03  0.17226779296E+03  0.12509000000E+03 0.  0.
         25    1    3    3    0    0  0.76305001223E+02 -0.79886423889E+02 -0.13201926230E+02  0.16740995457E+03  0.12509000000E+03 0.  0.
<mgrwt>
<rscale>  2 0.45839221E+03</rscale>
<asrwt>0</asrwt>
<pdfrwt beam="1">  1       21 0.25100102E-01 0.45839221E+03</pdfrwt>
<pdfrwt beam="2">  1       21 0.45260688E-01 0.45839221E+03</pdfrwt>
<totfact> 0.65044034E+04</totfact>
</mgrwt>
</event>
<event>
 7    0  0.4709932E-002  0.4202872E+03  0.7546771E-02  0.1036973E+00
         21   -1    0    0  502  501  0.00000000000E+00  0.00000000000E+00  0.13470901963E+03  0.13470901963E+03  0.00000000000E+00 0.  1.
         21   -1    0    0  501  502 -0.00000000000E+00 -0.00000000000E+00 -0.32782019156E+03  0.32782019156E+03  0.00000000000E+00 0.  1.
      99926    2    1    2    0    0  0.00000000000E+00  0.00000000000E+00 -0.19311117193E+03  0.46252921118E+03  0.42028721902E+03 0.  0.
      99925    2    3    3    0    0 -0.72249462167E+02  0.12259459380E+02 -0.14870008374E+03  0.31090423969E+03  0.26301987039E+03 0.  0.
         25    1    3    3    0    0  0.72249462167E+02 -0.12259459380E+02 -0.44411088187E+02  0.15162497150E+03  0.12509000000E+03 0.  0.
         25    1    4    4    0    0 -0.59560902435E+02 -0.71058957962E+01 -0.42226740719E+02  0.14501241528E+03  0.12509000000E+03 0.  0.
         25    1    4    4    0    0 -0.12688559731E+02  0.19365355176E+02 -0.10647334303E+03  0.16589182440E+03  0.12509000000E+03 0.  0.
<mgrwt>
<rscale>  2 0.42028722E+03</rscale>
<asrwt>0</asrwt>
<pdfrwt beam="1">  1       21 0.19810150E-01 0.42028722E+03</pdfrwt>
<pdfrwt beam="2">  1       21 0.48208852E-01 0.42028722E+03</pdfrwt>
<totfact> 0.90467504E+04</totfact>
</mgrwt>
</event>
<event>
 7    0  0.4709932E-002  0.4221373E+03  0.7546771E-02  0.1036373E+00
         21   -1    0    0  502  501  0.00000000000E+00  0.00000000000E+00  0.13879031772E+03  0.13879031772E+03  0.00000000000E+00 0.  1.
         21   -1    0    0  501  502 -0.00000000000E+00 -0.00000000000E+00 -0.32098758917E+03  0.32098758917E+03  0.00000000000E+00 0.  1.
      99926    2    1    2    0    0 -0.14210854715E-13 -0.71054273576E-14 -0.18219727145E+03  0.45977790689E+03  0.42213727381E+03 0.  0.
      99925    2    3    3    0    0 -0.69736958927E+02 -0.35544978053E+02 -0.12687355538E+03  0.30218694724E+03  0.26285616432E+03 0.  0.
         25    1    4    4    0    0 -0.50637303279E+02 -0.53862781802E+02 -0.80955619864E+02  0.16633296797E+03  0.12509000000E+03 0.  0.
         25    1    3    3    0    0  0.69736958927E+02  0.35544978053E+02 -0.55323716066E+02  0.15759095965E+03  0.12509000000E+03 0.  0.
         25    1    4    4    0    0 -0.19099655648E+02  0.18317803749E+02 -0.45917935519E+02  0.13585397927E+03  0.12509000000E+03 0.  0.
<mgrwt>
<rscale>  2 0.42213727E+03</rscale>
<asrwt>0</asrwt>
<pdfrwt beam="1">  1       21 0.20410341E-01 0.42213727E+03</pdfrwt>
<pdfrwt beam="2">  1       21 0.47204057E-01 0.42213727E+03</pdfrwt>
<totfact> 0.89324855E+04</totfact>
</mgrwt>
</event>
<event>
 7    0  0.4709932E-002  0.4519839E+03  0.7546771E-02  0.1027132E+00
         21   -1    0    0  502  501  0.00000000000E+00  0.00000000000E+00  0.28220419389E+03  0.28220419389E+03  0.00000000000E+00 0.  1.
         21   -1    0    0  501  502 -0.00000000000E+00 -0.00000000000E+00 -0.18097665859E+03  0.18097665859E+03  0.00000000000E+00 0.  1.
      99926    2    1    2    0    0  0.00000000000E+00  0.00000000000E+00  0.10122753529E+03  0.46318085248E+03  0.45198394684E+03 0.  0.
      99925    2    3    3    0    0 -0.21923989400E+02 -0.61026805517E+02 -0.27872637765E+02  0.27208062985E+03  0.26276615631E+03 0.  0.
         25    1    3    3    0    0  0.21923989400E+02  0.61026805517E+02  0.12910017306E+03  0.19110022262E+03  0.12509000000E+03 0.  0.
         25    1    4    4    0    0  0.87252823434E+01 -0.77194579854E-01 -0.32443803542E+02  0.12952314465E+03  0.12509000000E+03 0.  0.
         25    1    4    4    0    0 -0.30649271743E+02 -0.60949610937E+02  0.45711657768E+01  0.14255748521E+03  0.12509000000E+03 0.  0.
<mgrwt>
<rscale>  2 0.45198395E+03</rscale>
<asrwt>0</asrwt>
<pdfrwt beam="1">  1       21 0.41500617E-01 0.45198395E+03</pdfrwt>
<pdfrwt beam="2">  1       21 0.26614215E-01 0.45198395E+03</pdfrwt>
<totfact> 0.69596830E+04</totfact>
</mgrwt>
</event>
<event>
 7    0  0.4709932E-002  0.4493324E+03  0.7546771E-02  0.1027921E+00
         21   -1    0    0  502  501  0.00000000000E+00  0.00000000000E+00  0.48838486011E+03  0.48838486011E+03  0.00000000000E+00 0. -1.
         21   -1    0    0  501  502 -0.00000000000E+00 -0.00000000000E+00 -0.10335068624E+03  0.10335068624E+03  0.00000000000E+00 0. -1.
      99926    2    1    2    0    0  0.00000000000E+00  0.88817841970E-15  0.38503417386E+03  0.59173554635E+03  0.44933244015E+03 0.  0.
      99925    2    3    3    0    0 -0.10298112301E+03  0.75676018958E+01  0.20307611781E+03  0.34797619256E+03  0.26303068390E+03 0.  0.
         25    1    3    3    0    0  0.10298112301E+03 -0.75676018958E+01  0.18195805605E+03  0.24375935379E+03  0.12509000000E+03 0.  0.
         25    1    4    4    0    0 -0.83686780683E+02 -0.65813926678E+01  0.14082686858E+03  0.20621956019E+03  0.12509000000E+03 0.  0.
         25    1    4    4    0    0 -0.19294342327E+02  0.14148994564E+02  0.62249249232E+02  0.14175663238E+03  0.12509000000E+03 0.  0.
<mgrwt>
<rscale>  2 0.44933244E+03</rscale>
<asrwt>0</asrwt>
<pdfrwt beam="1">  1       21 0.71821302E-01 0.44933244E+03</pdfrwt>
<pdfrwt beam="2">  1       21 0.15198631E-01 0.44933244E+03</pdfrwt>
<totfact> 0.61916899E+04</totfact>
</mgrwt>
</event>
<event>
 7    0  0.4709932E-002  0.4572220E+03  0.7546771E-02  0.1025590E+00
         21   -1    0    0  502  501  0.00000000000E+00  0.00000000000E+00  0.21731878418E+03  0.21731878418E+03  0.00000000000E+00 0.  1.
         21   -1    0    0  501  502 -0.00000000000E+00 -0.00000000000E+00 -0.24048996681E+03  0.24048996681E+03  0.00000000000E+00 0.  1.
      99926    2    1    2    0    0  0.00000000000E+00  0.14210854715E-13 -0.23171182626E+02  0.45780875099E+03  0.45722199070E+03 0.  0.
      99925    2    3    3    0    0 -0.75142523049E+02  0.69677555860E+02  0.38030724410E+02  0.28490836902E+03  0.26310659851E+03 0.  0.
         25    1    4    4    0    0 -0.48595659226E+02  0.32515047689E+02  0.58896999678E+02  0.15011705797E+03  0.12509000000E+03 0.  0.
         25    1    3    3    0    0  0.75142523049E+02 -0.69677555860E+02 -0.61201907036E+02  0.17290038197E+03  0.12509000000E+03 0.  0.
         25    1    4    4    0    0 -0.26546863823E+02  0.37162508171E+02 -0.20866275268E+02  0.13479131106E+03  0.12509000000E+03 0.  0.
<mgrwt>
<rscale>  2 0.45722199E+03</rscale>
<asrwt>0</asrwt>
<pdfrwt beam="1">  1       21 0.31958645E-01 0.45722199E+03</pdfrwt>
<pdfrwt beam="2">  1       21 0.35366171E-01 0.45722199E+03</pdfrwt>
<totfact> 0.67142261E+04</totfact>
</mgrwt>
</event>
<event>
 7    0  0.4709932E-002  0.4559091E+03  0.7546771E-02  0.1025974E+00
         21   -1    0    0  502  501  0.00000000000E+00  0.00000000000E+00  0.97521536218E+03  0.97521536218E+03  0.00000000000E+00 0.  1.
         21   -1    0    0  501  502 -0.00000000000E+00 -0.00000000000E+00 -0.53283890301E+02  0.53283890301E+02  0.00000000000E+00 0.  1.
      99926    2    1    2    0    0  0.00000000000E+00  0.00000000000E+00  0.92193147188E+03  0.10284992525E+04  0.45590906277E+03 0.  0.
      99925    2    3    3    0    0 -0.82598266200E+02  0.37875081665E+02  0.42426425347E+03  0.50736859346E+03  0.26299379740E+03 0.  0.
         25    1    4    4    0    0 -0.28587506063E+02  0.51974487714E+02  0.24931089884E+03  0.28517016894E+03  0.12509000000E+03 0.  0.
         25    1    4    4    0    0 -0.54010760136E+02 -0.14099406049E+02  0.17495335463E+03  0.22219842452E+03  0.12509000000E+03 0.  0.
         25    1    3    3    0    0  0.82598266200E+02 -0.37875081665E+02  0.49766721840E+03  0.52113065901E+03  0.12509000000E+03 0.  0.
<mgrwt>
<rscale>  2 0.45590906E+03</rscale>
<asrwt>0</asrwt>
<pdfrwt beam="1">  1       21 0.14341401E+00 0.45590906E+03</pdfrwt>
<pdfrwt beam="2">  1       21 0.78358668E-02 0.45590906E+03</pdfrwt>
<totfact> 0.37807313E+04</totfact>
</mgrwt>
</event>
<event>
 7    0  0.4709932E-002  0.4487335E+03  0.7546771E-02  0.1028100E+00
         21   -1    0    0  502  501  0.00000000000E+00  0.00000000000E+00  0.99987504879E+03  0.99987504879E+03  0.00000000000E+00 0. -1.
         21   -1    0    0  501  502 -0.00000000000E+00 -0.00000000000E+00 -0.50346721493E+02  0.50346721493E+02  0.00000000000E+00 0. -1.
      99926    2    1    2    0    0  0.14210854715E-13  0.71054273576E-14  0.94952832730E+03  0.10502217703E+04  0.44873346480E+03 0.  0.
      99925    2    3    3    0    0  0.68987112896E+02  0.57347986137E+02  0.46416140287E+03  0.54102969190E+03  0.26309562205E+03 0.  0.
         25    1    4    4    0    0  0.21283002077E+02  0.66333502837E+02  0.22166378002E+03  0.26388527668E+03  0.12509000000E+03 0.  0.
         25    1    4    4    0    0  0.47704110819E+02 -0.89855167000E+01  0.24249762285E+03  0.27714441522E+03  0.12509000000E+03 0.  0.
         25    1    3    3    0    0 -0.68987112896E+02 -0.57347986137E+02  0.48536692443E+03  0.50919207838E+03  0.12509000000E+03 0.  0.
<mgrwt>
<rscale>  2 0.44873346E+03</rscale>
<asrwt>0</asrwt>
<pdfrwt beam="1">  1       21 0.14704044E+00 0.44873346E+03</pdfrwt>
<pdfrwt beam="2">  1       21 0.74039303E-02 0.44873346E+03</pdfrwt>
<totfact> 0.39149334E+04</totfact>
</mgrwt>
</event>
<event>
 7    0  0.4709932E-002  0.4600514E+03  0.7546771E-02  0.1024766E+00
         21   -1    0    0  502  501  0.00000000000E+00  0.00000000000E+00  0.17753501913E+03  0.17753501913E+03  0.00000000000E+00 0. -1.
         21   -1    0    0  501  502 -0.00000000000E+00 -0.00000000000E+00 -0.29803594771E+03  0.29803594771E+03  0.00000000000E+00 0. -1.
      99926    2    1    2    0    0  0.00000000000E+00 -0.14210854715E-13 -0.12050092858E+03  0.47557096685E+03  0.46005137835E+03 0.  0.
      99925    2    3    3    0    0 -0.69065815150E+02 -0.77003799502E+02 -0.13383673030E+03  0.31270591944E+03  0.26300769897E+03 0.  0.
         25    1    4    4    0    0 -0.11893958326E+02 -0.16515491846E+01 -0.64211945760E+02  0.14112007631E+03  0.12509000000E+03 0.  0.
         25    1    4    4    0    0 -0.57171856824E+02 -0.75352250317E+02 -0.69624784536E+02  0.17158584313E+03  0.12509000000E+03 0.  0.
         25    1    3    3    0    0  0.69065815150E+02  0.77003799502E+02  0.13335801714E+02  0.16286504741E+03  0.12509000000E+03 0.  0.
<mgrwt>
<rscale>  2 0.46005138E+03</rscale>
<asrwt>0</asrwt>
<pdfrwt beam="1">  1       21 0.26108091E-01 0.46005138E+03</pdfrwt>
<pdfrwt beam="2">  1       21 0.43828816E-01 0.46005138E+03</pdfrwt>
<totfact> 0.64403650E+04</totfact>
</mgrwt>
</event>
<event>
 7    0  0.4709932E-002  0.4609155E+03  0.7546771E-02  0.1024516E+00
         21   -1    0    0  502  501  0.00000000000E+00  0.00000000000E+00  0.95813283728E+02  0.95813283728E+02  0.00000000000E+00 0.  1.
         21   -1    0    0  501  502 -0.00000000000E+00 -0.00000000000E+00 -0.55431545184E+03  0.55431545184E+03  0.00000000000E+00 0.  1.
      99926    2    1    2    0    0  0.00000000000E+00  0.14210854715E-13 -0.45850216811E+03  0.65012873557E+03  0.46091553960E+03 0.  0.
      99925    2    3    3    0    0  0.77724196313E+02 -0.89028442554E+02 -0.27104872467E+03  0.39566181073E+03  0.26289492778E+03 0.  0.
         25    1    3    3    0    0 -0.77724196313E+02  0.89028442554E+02 -0.18745344345E+03  0.25446692484E+03  0.12509000000E+03 0.  0.
         25    1    4    4    0    0  0.37778549046E+02 -0.53976236021E+02 -0.84004698900E+02  0.16445348996E+03  0.12509000000E+03 0.  0.
         25    1    4    4    0    0  0.39945647268E+02 -0.35052206533E+02 -0.18704402577E+03  0.23120832077E+03  0.12509000000E+03 0.  0.
<mgrwt>
<rscale>  2 0.46091554E+03</rscale>
<asrwt>0</asrwt>
<pdfrwt beam="1">  1       21 0.14090189E-01 0.46091554E+03</pdfrwt>
<pdfrwt beam="2">  1       21 0.81516978E-01 0.46091554E+03</pdfrwt>
<totfact> 0.53168912E+04</totfact>
</mgrwt>
</event>
<event>
 7    0  0.4709932E-002  0.4823603E+03  0.7546771E-02  0.1018488E+00
         21   -1    0    0  502  501  0.00000000000E+00  0.00000000000E+00  0.54627837345E+02  0.54627837345E+02  0.00000000000E+00 0.  1.
         21   -1    0    0  501  502 -0.00000000000E+00 -0.00000000000E+00 -0.10648027264E+04  0.10648027264E+04  0.00000000000E+00 0.  1.
      99926    2    1    2    0    0  0.00000000000E+00  0.00000000000E+00 -0.10101748891E+04  0.11194305638E+04  0.48236032235E+03 0.  0.
      99925    2    3    3    0    0  0.77009659357E+02 -0.11368066859E+03 -0.61854981236E+03  0.68598911344E+03  0.26291331527E+03 0.  0.
         25    1    4    4    0    0  0.72927238663E+02 -0.37025919879E+02 -0.32963359322E+03  0.36193247265E+03  0.12509000000E+03 0.  0.
         25    1    3    3    0    0 -0.77009659357E+02  0.11368066859E+03 -0.39162507674E+03  0.43344145034E+03  0.12509000000E+03 0.  0.
         25    1    4    4    0    0  0.40824206937E+01 -0.76654748711E+02 -0.28891621914E+03  0.32405664079E+03  0.12509000000E+03 0.  0.
<mgrwt>
<rscale>  2 0.48236032E+03</rscale>
<asrwt>0</asrwt>
<pdfrwt beam="1">  1       21 0.80335054E-02 0.48236032E+03</pdfrwt>
<pdfrwt beam="2">  1       21 0.15658864E+00 0.48236032E+03</pdfrwt>
<totfact> 0.28286490E+04</totfact>
</mgrwt>
</event>
<event>
 7    0  0.4709932E-002  0.4185018E+03  0.7546771E-02  0.1037555E+00
         21   -1    0    0  502  501  0.00000000000E+00  0.00000000000E+00  0.71689472726E+02  0.71689472726E+02  0.00000000000E+00 0.  1.
         21   -1    0    0  501  502 -0.00000000000E+00 -0.00000000000E+00 -0.61077217496E+03  0.61077217496E+03  0.00000000000E+00 0.  1.
      99926    2    1    2    0    0  0.00000000000E+00 -0.17763568394E-14 -0.53908270223E+03  0.68246164768E+03  0.41850178102E+03 0.  0.
      99925    2    3    3    0    0  0.47161508694E+02  0.37485391729E+01 -0.25904914767E+03  0.37213188883E+03  0.26293995955E+03 0.  0.
         25    1    4    4    0    0  0.11311011747E+02  0.37801331626E+02 -0.10829797924E+03  0.17009656101E+03  0.12509000000E+03 0.  0.
         25    1    3    3    0    0 -0.47161508694E+02 -0.37485391729E+01 -0.28003355457E+03  0.31032975886E+03  0.12509000000E+03 0.  0.
         25    1    4    4    0    0  0.35850496947E+02 -0.34052792454E+02 -0.15075116843E+03  0.20203532782E+03  0.12509000000E+03 0.  0.
<mgrwt>
<rscale>  2 0.41850178E+03</rscale>
<asrwt>0</asrwt>
<pdfrwt beam="1">  1       21 0.10542570E-01 0.41850178E+03</pdfrwt>
<pdfrwt beam="2">  1       21 0.89819437E-01 0.41850178E+03</pdfrwt>
<totfact> 0.72580784E+04</totfact>
</mgrwt>
</event>
<event>
 7    0  0.4709932E-002  0.4550297E+03  0.7546771E-02  0.1026233E+00
         21   -1    0    0  502  501  0.00000000000E+00  0.00000000000E+00  0.24391846489E+03  0.24391846489E+03  0.00000000000E+00 0. -1.
         21   -1    0    0  501  502 -0.00000000000E+00 -0.00000000000E+00 -0.21221433934E+03  0.21221433934E+03  0.00000000000E+00 0. -1.
      99926    2    1    2    0    0 -0.35527136788E-14  0.14210854715E-13  0.31704125547E+02  0.45613280423E+03  0.45502965125E+03 0.  0.
      99925    2    3    3    0    0  0.25358005518E+02 -0.10952373028E+03  0.64267979342E+01  0.28605950436E+03  0.26296437090E+03 0.  0.
         25    1    3    3    0    0 -0.25358005518E+02  0.10952373028E+03  0.25277327612E+02  0.17007329987E+03  0.12509000000E+03 0.  0.
         25    1    4    4    0    0  0.34440873569E+02 -0.79118605228E+02 -0.22996994112E+02  0.15369546937E+03  0.12509000000E+03 0.  0.
         25    1    4    4    0    0 -0.90828680508E+01 -0.30405125047E+02  0.29423792046E+02  0.13236403499E+03  0.12509000000E+03 0.  0.
<mgrwt>
<rscale>  2 0.45502965E+03</rscale>
<asrwt>0</asrwt>
<pdfrwt beam="1">  1       21 0.35870363E-01 0.45502965E+03</pdfrwt>
<pdfrwt beam="2">  1       21 0.31207991E-01 0.45502965E+03</pdfrwt>
<totfact> 0.68446726E+04</totfact>
</mgrwt>
</event>
<event>
 7    0  0.4709932E-002  0.4553329E+03  0.7546771E-02  0.1026144E+00
         21   -1    0    0  502  501  0.00000000000E+00  0.00000000000E+00  0.12539703464E+04  0.12539703464E+04  0.00000000000E+00 0.  1.
         21   -1    0    0  501  502 -0.00000000000E+00 -0.00000000000E+00 -0.41334321077E+02  0.41334321077E+02  0.00000000000E+00 0.  1.
      99926    2    1    2    0    0  0.00000000000E+00  0.17763568394E-14  0.12126360253E+04  0.12953046675E+04  0.45533290204E+03 0.  0.
      99925    2    3    3    0    0  0.57697720369E+02 -0.97925558664E+01  0.48677750563E+03  0.55642509691E+03  0.26311903656E+03 0.  0.
         25    1    3    3    0    0 -0.57697720369E+02  0.97925558664E+01  0.72585851970E+03  0.73887957057E+03  0.12509000000E+03 0.  0.
         25    1    4    4    0    0  0.32644533990E+02 -0.18250851206E+02  0.32485996331E+03  0.35011464270E+03  0.12509000000E+03 0.  0.
         25    1    4    4    0    0  0.25053186379E+02  0.84582953391E+01  0.16191754231E+03  0.20631045421E+03  0.12509000000E+03 0.  0.
<mgrwt>
<rscale>  2 0.45533290E+03</rscale>
<asrwt>0</asrwt>
<pdfrwt beam="1">  1       21 0.18440738E+00 0.45533290E+03</pdfrwt>
<pdfrwt beam="2">  1       21 0.60785774E-02 0.45533290E+03</pdfrwt>
<totfact> 0.29175763E+04</totfact>
</mgrwt>
</event>
<event>
 7    0  0.4709932E-002  0.4281822E+03  0.7546771E-02  0.1034436E+00
         21   -1    0    0  502  501  0.00000000000E+00  0.00000000000E+00  0.71082959788E+02  0.71082959788E+02  0.00000000000E+00 0. -1.
         21   -1    0    0  501  502 -0.00000000000E+00 -0.00000000000E+00 -0.64480981207E+03  0.64480981207E+03  0.00000000000E+00 0. -1.
      99926    2    1    2    0    0  0.00000000000E+00  0.00000000000E+00 -0.57372685229E+03  0.71589277186E+03  0.42818215723E+03 0.  0.
      99925    2    3    3    0    0  0.82488699287E+01  0.85034467777E+02 -0.37645788454E+03  0.46717313391E+03  0.26311840235E+03 0.  0.
         25    1    3    3    0    0 -0.82488699287E+01 -0.85034467777E+02 -0.19726896775E+03  0.24871963795E+03  0.12509000000E+03 0.  0.
         25    1    4    4    0    0 -0.12226827698E+02  0.54145426459E+02 -0.13231273424E+03  0.19035595673E+03  0.12509000000E+03 0.  0.
         25    1    4    4    0    0  0.20475697626E+02  0.30889041318E+02 -0.24414515030E+03  0.27681717718E+03  0.12509000000E+03 0.  0.
<mgrwt>
<rscale>  2 0.42818216E+03</rscale>
<asrwt>0</asrwt>
<pdfrwt beam="1">  1       21 0.10453377E-01 0.42818216E+03</pdfrwt>
<pdfrwt beam="2">  1       21 0.94824969E-01 0.42818216E+03</pdfrwt>
<totfact> 0.64644134E+04</totfact>
</mgrwt>
</event>
<event>
 7    0  0.4709932E-002  0.4493656E+03  0.7546771E-02  0.1027911E+00
         21   -1    0    0  502  501  0.00000000000E+00  0.00000000000E+00  0.10958610882E+03  0.10958610882E+03  0.00000000000E+00 0. -1.
         21   -1    0    0  501  502 -0.00000000000E+00 -0.00000000000E+00 -0.46066386382E+03  0.46066386382E+03  0.00000000000E+00 0. -1.
      99926    2    1    2    0    0  0.00000000000E+00 -0.14210854715E-13 -0.35107775500E+03  0.57024997264E+03  0.44936559864E+03 0.  0.
      99925    2    3    3    0    0 -0.19700349179E+02  0.10456954177E+03 -0.20023860102E+03  0.34726375939E+03  0.26300898925E+03 0.  0.
         25    1    3    3    0    0  0.19700349179E+02 -0.10456954177E+03 -0.15083915397E+03  0.22298621324E+03  0.12509000000E+03 0.  0.
         25    1    4    4    0    0  0.18926090897E+02  0.26677531252E+02 -0.11299568188E+03  0.17171319057E+03  0.12509000000E+03 0.  0.
         25    1    4    4    0    0 -0.38626440076E+02  0.77892010520E+02 -0.87242919137E+02  0.17555056883E+03  0.12509000000E+03 0.  0.
<mgrwt>
<rscale>  2 0.44936560E+03</rscale>
<asrwt>0</asrwt>
<pdfrwt beam="1">  1       21 0.16115604E-01 0.44936560E+03</pdfrwt>
<pdfrwt beam="2">  1       21 0.67744687E-01 0.44936560E+03</pdfrwt>
<totfact> 0.63322391E+04</totfact>
</mgrwt>
</event>
<event>
 7    0  0.4709932E-002  0.4560134E+03  0.7546771E-02  0.1025944E+00
         21   -1    0    0  502  501  0.00000000000E+00  0.00000000000E+00  0.18199670784E+04  0.18199670784E+04  0.00000000000E+00 0. -1.
         21   -1    0    0  501  502 -0.00000000000E+00 -0.00000000000E+00 -0.28564838217E+02  0.28564838217E+02  0.00000000000E+00 0. -1.
      99926    2    1    2    0    0  0.00000000000E+00  0.14210854715E-13  0.17914022402E+04  0.18485319166E+04  0.45601344346E+03 0.  0.
      99925    2    3    3    0    0 -0.29914120446E+02 -0.97672020170E+02  0.13326625663E+04  0.13621943027E+04  0.26296221177E+03 0.  0.
         25    1    4    4    0    0 -0.36627566171E+01 -0.89659848702E+02  0.74484078279E+03  0.76058372588E+03  0.12509000000E+03 0.  0.
         25    1    4    4    0    0 -0.26251363829E+02 -0.80121714676E+01  0.58782178346E+03  0.60161057687E+03  0.12509000000E+03 0.  0.
         25    1    3    3    0    0  0.29914120446E+02  0.97672020170E+02  0.45873967393E+03  0.48633761387E+03  0.12509000000E+03 0.  0.
<mgrwt>
<rscale>  2 0.45601344E+03</rscale>
<asrwt>0</asrwt>
<pdfrwt beam="1">  1       21 0.26764214E+00 0.45601344E+03</pdfrwt>
<pdfrwt beam="2">  1       21 0.42007127E-02 0.45601344E+03</pdfrwt>
<totfact> 0.16216655E+04</totfact>
</mgrwt>
</event>
<event>
 7    0  0.4709932E-002  0.4564677E+03  0.7546771E-02  0.1025811E+00
         21   -1    0    0  502  501  0.00000000000E+00  0.00000000000E+00  0.27302375275E+02  0.27302375275E+02  0.00000000000E+00 0.  1.
         21   -1    0    0  501  502 -0.00000000000E+00 -0.00000000000E+00 -0.19079181577E+04  0.19079181577E+04  0.00000000000E+00 0.  1.
      99926    2    1    2    0    0  0.71054273576E-14  0.00000000000E+00 -0.18806157825E+04  0.19352205330E+04  0.45646773177E+03 0.  0.
      99925    2    3    3    0    0  0.44047413076E+02  0.55312662897E+02 -0.79948076549E+03  0.84457847519E+03  0.26295178471E+03 0.  0.
         25    1    4    4    0    0  0.19737024126E+02  0.54883883762E+02 -0.50889553470E+03  0.52727977788E+03  0.12509000000E+03 0.  0.
         25    1    3    3    0    0 -0.44047413076E+02 -0.55312662897E+02 -0.10811350170E+04  0.10906420578E+04  0.12509000000E+03 0.  0.
         25    1    4    4    0    0  0.24310388950E+02  0.42877913468E+00 -0.29058523079E+03  0.31729869731E+03  0.12509000000E+03 0.  0.
<mgrwt>
<rscale>  2 0.45646773E+03</rscale>
<asrwt>0</asrwt>
<pdfrwt beam="1">  1       21 0.40150550E-02 0.45646773E+03</pdfrwt>
<pdfrwt beam="2">  1       21 0.28057621E+00 0.45646773E+03</pdfrwt>
<totfact> 0.14629085E+04</totfact>
</mgrwt>
</event>
<event>
 7    0  0.4709932E-002  0.4536651E+03  0.7546771E-02  0.1026635E+00
         21   -1    0    0  502  501  0.00000000000E+00  0.00000000000E+00  0.10012841658E+04  0.10012841658E+04  0.00000000000E+00 0.  1.
         21   -1    0    0  501  502 -0.00000000000E+00 -0.00000000000E+00 -0.51387019510E+02  0.51387019510E+02  0.00000000000E+00 0.  1.
      99926    2    1    2    0    0  0.00000000000E+00  0.00000000000E+00  0.94989714626E+03  0.10526711853E+04  0.45366511420E+03 0.  0.
      99925    2    3    3    0    0  0.11136956552E+03  0.10995216076E+02  0.60267257502E+03  0.66700748998E+03  0.26298418984E+03 0.  0.
         25    1    4    4    0    0  0.37368462639E+02  0.53314204995E+00  0.20057298092E+03  0.23931927422E+03  0.12509000000E+03 0.  0.
         25    1    3    3    0    0 -0.11136956552E+03 -0.10995216076E+02  0.34722457124E+03  0.38566369530E+03  0.12509000000E+03 0.  0.
         25    1    4    4    0    0  0.74001102878E+02  0.10462074026E+02  0.40209959410E+03  0.42768821576E+03  0.12509000000E+03 0.  0.
<mgrwt>
<rscale>  2 0.45366511E+03</rscale>
<asrwt>0</asrwt>
<pdfrwt beam="1">  1       21 0.14724766E+00 0.45366511E+03</pdfrwt>
<pdfrwt beam="2">  1       21 0.75569153E-02 0.45366511E+03</pdfrwt>
<totfact> 0.37569431E+04</totfact>
</mgrwt>
</event>
<event>
 7    0  0.4709932E-002  0.4529045E+03  0.7546771E-02  0.1026859E+00
         21   -1    0    0  502  501  0.00000000000E+00  0.00000000000E+00  0.13114387755E+04  0.13114387755E+04  0.00000000000E+00 0.  1.
         21   -1    0    0  501  502 -0.00000000000E+00 -0.00000000000E+00 -0.39102565124E+02  0.39102565124E+02  0.00000000000E+00 0.  1.
      99926    2    1    2    0    0  0.00000000000E+00  0.00000000000E+00  0.12723362104E+04  0.13505413407E+04  0.45290449380E+03 0.  0.
      99925    2    3    3    0    0  0.45328307366E+02 -0.26008602932E+02  0.50942546750E+03  0.57567915122E+03  0.26298493367E+03 0.  0.
         25    1    4    4    0    0  0.26118017476E+02  0.26657043994E+02  0.26627716198E+03  0.29655317216E+03  0.12509000000E+03 0.  0.
         25    1    3    3    0    0 -0.45328307366E+02  0.26008602932E+02  0.76291074290E+03  0.77486218943E+03  0.12509000000E+03 0.  0.
         25    1    4    4    0    0  0.19210289889E+02 -0.52665646926E+02  0.24314830553E+03  0.27912597906E+03  0.12509000000E+03 0.  0.
<mgrwt>
<rscale>  2 0.45290449E+03</rscale>
<asrwt>0</asrwt>
<pdfrwt beam="1">  1       21 0.19285862E+00 0.45290449E+03</pdfrwt>
<pdfrwt beam="2">  1       21 0.57503781E-02 0.45290449E+03</pdfrwt>
<totfact> 0.28135822E+04</totfact>
</mgrwt>
</event>
<event>
 7    0  0.4709932E-002  0.4551574E+03  0.7546771E-02  0.1026195E+00
         21   -1    0    0  502  501  0.00000000000E+00  0.00000000000E+00  0.70013978493E+03  0.70013978493E+03  0.00000000000E+00 0. -1.
         21   -1    0    0  501  502 -0.00000000000E+00 -0.00000000000E+00 -0.73973892274E+02  0.73973892274E+02  0.00000000000E+00 0. -1.
      99926    2    1    2    0    0  0.00000000000E+00  0.00000000000E+00  0.62616589266E+03  0.77411367721E+03  0.45515740147E+03 0.  0.
      99925    2    3    3    0    0 -0.92871755560E+02  0.30389278524E+02  0.49146188944E+03  0.56592782799E+03  0.26304152998E+03 0.  0.
         25    1    4    4    0    0 -0.35399462854E+02  0.82363642600E+01  0.31610863887E+03  0.34189638684E+03  0.12509000000E+03 0.  0.
         25    1    4    4    0    0 -0.57472292706E+02  0.22152914264E+02  0.17535325057E+03  0.22403144115E+03  0.12509000000E+03 0.  0.
         25    1    3    3    0    0  0.92871755560E+02 -0.30389278524E+02  0.13470400322E+03  0.20818584922E+03  0.12509000000E+03 0.  0.
<mgrwt>
<rscale>  2 0.45515740E+03</rscale>
<asrwt>0</asrwt>
<pdfrwt beam="1">  1       21 0.10296173E+00 0.45515740E+03</pdfrwt>
<pdfrwt beam="2">  1       21 0.10878514E-01 0.45515740E+03</pdfrwt>
<totfact> 0.48981848E+04</totfact>
</mgrwt>
</event>
<event>
 7    0  0.4709932E-002  0.4541399E+03  0.7546771E-02  0.1026495E+00
         21   -1    0    0  502  501  0.00000000000E+00  0.00000000000E+00  0.13053841181E+03  0.13053841181E+03  0.00000000000E+00 0. -1.
         21   -1    0    0  501  502 -0.00000000000E+00 -0.00000000000E+00 -0.39498536608E+03  0.39498536608E+03  0.00000000000E+00 0. -1.
      99926    2    1    2    0    0  0.00000000000E+00  0.00000000000E+00 -0.26444695427E+03  0.52552377789E+03  0.45413990080E+03 0.  0.
      99925    2    3    3    0    0 -0.46796188071E+02 -0.38417648898E+02 -0.27607749461E+03  0.38606562454E+03  0.26298685226E+03 0.  0.
         25    1    4    4    0    0 -0.39846803549E+00 -0.39285514416E+02 -0.98703642600E+02  0.16411406881E+03  0.12509000000E+03 0.  0.
         25    1    3    3    0    0  0.46796188071E+02  0.38417648898E+02  0.11630540339E+02  0.13945815334E+03  0.12509000000E+03 0.  0.
         25    1    4    4    0    0 -0.46397720036E+02  0.86786551751E+00 -0.17737385201E+03  0.22195155573E+03  0.12509000000E+03 0.  0.
<mgrwt>
<rscale>  2 0.45413990E+03</rscale>
<asrwt>0</asrwt>
<pdfrwt beam="1">  1       21 0.19196825E-01 0.45413990E+03</pdfrwt>
<pdfrwt beam="2">  1       21 0.58086083E-01 0.45413990E+03</pdfrwt>
<totfact> 0.63945428E+04</totfact>
</mgrwt>
</event>
<event>
 7    0  0.4709932E-002  0.4502591E+03  0.7546771E-02  0.1027645E+00
         21   -1    0    0  502  501  0.00000000000E+00  0.00000000000E+00  0.22125271411E+03  0.22125271411E+03  0.00000000000E+00 0. -1.
         21   -1    0    0  501  502 -0.00000000000E+00 -0.00000000000E+00 -0.22907433324E+03  0.22907433324E+03  0.00000000000E+00 0. -1.
      99926    2    1    2    0    0 -0.35527136788E-14  0.00000000000E+00 -0.78216191262E+01  0.45032704735E+03  0.45025911634E+03 0.  0.
      99925    2    3    3    0    0 -0.31149608985E+02 -0.93257113027E+02 -0.51598138310E+02  0.28530862716E+03  0.26281449272E+03 0.  0.
         25    1    4    4    0    0 -0.51411591779E+02 -0.66624330419E+02 -0.34878121949E+02  0.15474477265E+03  0.12509000000E+03 0.  0.
         25    1    3    3    0    0  0.31149608985E+02  0.93257113027E+02  0.43776519184E+02  0.16501842019E+03  0.12509000000E+03 0.  0.
         25    1    4    4    0    0  0.20261982793E+02 -0.26632782608E+02 -0.16720016361E+02  0.13056385451E+03  0.12509000000E+03 0.  0.
<mgrwt>
<rscale>  2 0.45025912E+03</rscale>
<asrwt>0</asrwt>
<pdfrwt beam="1">  1       21 0.32537164E-01 0.45025912E+03</pdfrwt>
<pdfrwt beam="2">  1       21 0.33687402E-01 0.45025912E+03</pdfrwt>
<totfact> 0.71558282E+04</totfact>
</mgrwt>
</event>
<event>
 7    0  0.4709932E-002  0.4535821E+03  0.7546771E-02  0.1026659E+00
         21   -1    0    0  502  501  0.00000000000E+00  0.00000000000E+00  0.51935365139E+03  0.51935365139E+03  0.00000000000E+00 0.  1.
         21   -1    0    0  501  502 -0.00000000000E+00 -0.00000000000E+00 -0.99034997296E+02  0.99034997296E+02  0.00000000000E+00 0.  1.
      99926    2    1    2    0    0  0.00000000000E+00 -0.17763568394E-14  0.42031865409E+03  0.61838864868E+03  0.45358213131E+03 0.  0.
      99925    2    3    3    0    0 -0.10521331137E+03  0.12349167607E+02  0.21568914982E+03  0.35619962346E+03  0.26293348887E+03 0.  0.
         25    1    3    3    0    0  0.10521331137E+03 -0.12349167607E+02  0.20462950427E+03  0.26218902523E+03  0.12509000000E+03 0.  0.
         25    1    4    4    0    0 -0.11780996900E+02  0.16776800675E+02  0.10737893457E+03  0.16612644768E+03  0.12509000000E+03 0.  0.
         25    1    4    4    0    0 -0.93432314475E+02 -0.44276330681E+01  0.10831021525E+03  0.19007317578E+03  0.12509000000E+03 0.  0.
<mgrwt>
<rscale>  2 0.45358213E+03</rscale>
<asrwt>0</asrwt>
<pdfrwt beam="1">  1       21 0.76375535E-01 0.45358213E+03</pdfrwt>
<pdfrwt beam="2">  1       21 0.14563970E-01 0.45358213E+03</pdfrwt>
<totfact> 0.58209461E+04</totfact>
</mgrwt>
</event>
<event>
 6    0  0.4709932E-002  0.4541840E+03  0.7546771E-02  0.1026482E+00
         21   -1    0    0  502  501  0.00000000000E+00  0.00000000000E+00  0.13912109527E+03  0.13912109527E+03  0.00000000000E+00 0.  1.
         21   -1    0    0  501  502 -0.00000000000E+00 -0.00000000000E+00 -0.37068978176E+03  0.37068978176E+03  0.00000000000E+00 0.  1.
      99926    2    1    2    0    0 -0.14210854715E-13 -0.71054273576E-14 -0.23156868649E+03  0.50981087704E+03  0.45418396469E+03 0.  0.
         25    1    3    3    0    0  0.46685217474E+02 -0.22747470434E+02 -0.43160514495E+02  0.14215236563E+03  0.12509000000E+03 0.  0.
         25    1    3    3    0    0 -0.10632374247E+03 -0.30289158544E+02 -0.90619079355E+02  0.18995130161E+03  0.12509000000E+03 0.  0.
         25    1    3    3    0    0  0.59638524998E+02  0.53036628978E+02 -0.97789092639E+02  0.17770720980E+03  0.12509000000E+03 0.  0.
<mgrwt>
<rscale>  2 0.45418396E+03</rscale>
<asrwt>0</asrwt>
<pdfrwt beam="1">  1       21 0.20458985E-01 0.45418396E+03</pdfrwt>
<pdfrwt beam="2">  1       21 0.54513202E-01 0.45418396E+03</pdfrwt>
<totfact> 0.65006748E+04</totfact>
</mgrwt>
</event>
<event>
 7    0  0.4709932E-002  0.4579881E+03  0.7546771E-02  0.1025366E+00
         21   -1    0    0  502  501  0.00000000000E+00  0.00000000000E+00  0.31687562770E+03  0.31687562770E+03  0.00000000000E+00 0.  1.
         21   -1    0    0  501  502 -0.00000000000E+00 -0.00000000000E+00 -0.16548532344E+03  0.16548532344E+03  0.00000000000E+00 0.  1.
      99926    2    1    2    0    0  0.00000000000E+00  0.00000000000E+00  0.15139030426E+03  0.48236095114E+03  0.45798805984E+03 0.  0.
      99925    2    3    3    0    0 -0.54283162137E+02  0.89072210455E+02  0.41330645591E+02  0.28578741036E+03  0.26284158973E+03 0.  0.
         25    1    4    4    0    0 -0.36164732365E+02  0.85719458016E+02  0.30813384260E+02  0.15891093763E+03  0.12509000000E+03 0.  0.
         25    1    4    4    0    0 -0.18118429773E+02  0.33527524385E+01  0.10517261331E+02  0.12687647273E+03  0.12509000000E+03 0.  0.
         25    1    3    3    0    0  0.54283162137E+02 -0.89072210455E+02  0.11005965867E+03  0.19657354078E+03  0.12509000000E+03 0.  0.
<mgrwt>
<rscale>  2 0.45798806E+03</rscale>
<asrwt>0</asrwt>
<pdfrwt beam="1">  1       21 0.46599357E-01 0.45798806E+03</pdfrwt>
<pdfrwt beam="2">  1       21 0.24336077E-01 0.45798806E+03</pdfrwt>
<totfact> 0.64973859E+04</totfact>
</mgrwt>
</event>
<event>
 7    0  0.4709932E-002  0.4442471E+03  0.7546771E-02  0.1029452E+00
         21   -1    0    0  502  501  0.00000000000E+00  0.00000000000E+00  0.12286746187E+03  0.12286746187E+03  0.00000000000E+00 0.  1.
         21   -1    0    0  501  502 -0.00000000000E+00 -0.00000000000E+00 -0.40156177041E+03  0.40156177041E+03  0.00000000000E+00 0.  1.
      99926    2    1    2    0    0  0.14210854715E-13 -0.17763568394E-14 -0.27869430854E+03  0.52442923228E+03  0.44424711823E+03 0.  0.
      99925    2    3    3    0    0  0.10169934506E+03 -0.11647937935E+02 -0.16490520780E+03  0.32675804371E+03  0.26286624037E+03 0.  0.
         25    1    4    4    0    0  0.41682101738E+02 -0.43865198521E+02 -0.69914400449E+02  0.15555412157E+03  0.12509000000E+03 0.  0.
         25    1    3    3    0    0 -0.10169934506E+03  0.11647937935E+02 -0.11378910073E+03  0.19767118857E+03  0.12509000000E+03 0.  0.
         25    1    4    4    0    0  0.60017243324E+02  0.32217260585E+02 -0.94990807352E+02  0.17120392214E+03  0.12509000000E+03 0.  0.
<mgrwt>
<rscale>  2 0.44424712E+03</rscale>
<asrwt>0</asrwt>
<pdfrwt beam="1">  1       21 0.18068745E-01 0.44424712E+03</pdfrwt>
<pdfrwt beam="2">  1       21 0.59053201E-01 0.44424712E+03</pdfrwt>
<totfact> 0.69302488E+04</totfact>
</mgrwt>
</event>
<event>
 7    0  0.4709932E-002  0.4546854E+03  0.7546771E-02  0.1026334E+00
         21   -1    0    0  502  501  0.00000000000E+00  0.00000000000E+00  0.34963767816E+03  0.34963767816E+03  0.00000000000E+00 0. -1.
         21   -1    0    0  501  502 -0.00000000000E+00 -0.00000000000E+00 -0.14782358090E+03  0.14782358090E+03  0.00000000000E+00 0. -1.
      99926    2    1    2    0    0  0.00000000000E+00 -0.71054273576E-14  0.20181409726E+03  0.49746125907E+03  0.45468535760E+03 0.  0.
      99925    2    3    3    0    0  0.91971181930E+02  0.62858624351E+02  0.14650572423E+03  0.32106276364E+03  0.26307311912E+03 0.  0.
         25    1    3    3    0    0 -0.91971181930E+02 -0.62858624351E+02  0.55308373029E+02  0.17639849542E+03  0.12509000000E+03 0.  0.
         25    1    4    4    0    0  0.50436414168E+02 -0.40476612746E+01  0.47047960208E+02  0.14290288344E+03  0.12509000000E+03 0.  0.
         25    1    4    4    0    0  0.41534767762E+02  0.66906285625E+02  0.99457764020E+02  0.17815988020E+03  0.12509000000E+03 0.  0.
<mgrwt>
<rscale>  2 0.45468536E+03</rscale>
<asrwt>0</asrwt>
<pdfrwt beam="1">  1       21 0.51417306E-01 0.45468536E+03</pdfrwt>
<pdfrwt beam="2">  1       21 0.21738762E-01 0.45468536E+03</pdfrwt>
<totfact> 0.65613114E+04</totfact>
</mgrwt>
</event>
<event>
 7    0  0.4709932E-002  0.4735133E+03  0.7546771E-02  0.1020933E+00
         21   -1    0    0  502  501  0.00000000000E+00  0.00000000000E+00  0.13060206398E+03  0.13060206398E+03  0.00000000000E+00 0.  1.
         21   -1    0    0  501  502 -0.00000000000E+00 -0.00000000000E+00 -0.42919460261E+03  0.42919460261E+03  0.00000000000E+00 0.  1.
      99926    2    1    2    0    0  0.39968028887E-14  0.00000000000E+00 -0.29859253863E+03  0.55979666659E+03  0.47351325620E+03 0.  0.
      99925    2    3    3    0    0 -0.24061264132E+01 -0.12984070004E+03 -0.18401952145E+03  0.34616408201E+03  0.26287257477E+03 0.  0.
         25    1    4    4    0    0  0.35784533912E+02 -0.77301990929E+02 -0.10889836383E+03  0.18644702307E+03  0.12509000000E+03 0.  0.
         25    1    4    4    0    0 -0.38190660325E+02 -0.52538709108E+02 -0.75121157629E+02  0.15971705893E+03  0.12509000000E+03 0.  0.
         25    1    3    3    0    0  0.24061264132E+01  0.12984070004E+03 -0.11457301718E+03  0.21363258458E+03  0.12509000000E+03 0.  0.
<mgrwt>
<rscale>  2 0.47351326E+03</rscale>
<asrwt>0</asrwt>
<pdfrwt beam="1">  1       21 0.19206186E-01 0.47351326E+03</pdfrwt>
<pdfrwt beam="2">  1       21 0.63116854E-01 0.47351326E+03</pdfrwt>
<totfact> 0.53019596E+04</totfact>
</mgrwt>
</event>
<event>
 7    0  0.4709932E-002  0.4553606E+03  0.7546771E-02  0.1026135E+00
         21   -1    0    0  502  501  0.00000000000E+00  0.00000000000E+00  0.66841971152E+03  0.66841971152E+03  0.00000000000E+00 0.  1.
         21   -1    0    0  501  502 -0.00000000000E+00 -0.00000000000E+00 -0.77553542829E+02  0.77553542829E+02  0.00000000000E+00 0.  1.
      99926    2    1    2    0    0  0.17763568394E-14  0.00000000000E+00  0.59086616869E+03  0.74597325435E+03  0.45536058997E+03 0.  0.
      99925    2    3    3    0    0  0.45828797391E+01 -0.76490183154E+02  0.23456195467E+03  0.36065267102E+03  0.26301955751E+03 0.  0.
         25    1    3    3    0    0 -0.45828797391E+01  0.76490183154E+02  0.35630421402E+03  0.38532058333E+03  0.12509000000E+03 0.  0.
         25    1    4    4    0    0  0.38839298302E+02 -0.21955128332E+02  0.10356906337E+03  0.16841786645E+03  0.12509000000E+03 0.  0.
         25    1    4    4    0    0 -0.34256418563E+02 -0.54535054821E+02  0.13099289130E+03  0.19223480457E+03  0.12509000000E+03 0.  0.
<mgrwt>
<rscale>  2 0.45536059E+03</rscale>
<asrwt>0</asrwt>
<pdfrwt beam="1">  1       21 0.98297013E-01 0.45536059E+03</pdfrwt>
<pdfrwt beam="2">  1       21 0.11404933E-01 0.45536059E+03</pdfrwt>
<totfact> 0.50334141E+04</totfact>
</mgrwt>
</event>
<event>
 7    0  0.4709932E-002  0.3981898E+03  0.7546771E-02  0.1044408E+00
         21   -1    0    0  502  501  0.00000000000E+00  0.00000000000E+00  0.64715460548E+03  0.64715460548E+03  0.00000000000E+00 0. -1.
         21   -1    0    0  501  502 -0.00000000000E+00 -0.00000000000E+00 -0.61250853326E+02  0.61250853326E+02  0.00000000000E+00 0. -1.
      99926    2    1    2    0    0  0.35527136788E-14  0.35527136788E-14  0.58590375215E+03  0.70840545880E+03  0.39818976290E+03 0.  0.
      99925    2    3    3    0    0 -0.24090263950E+02 -0.29447532382E+02  0.42290037021E+03  0.49944347995E+03  0.26296685830E+03 0.  0.
         25    1    4    4    0    0 -0.27583513452E+02  0.15381789005E+02  0.16650594230E+03  0.21063994533E+03  0.12509000000E+03 0.  0.
         25    1    3    3    0    0  0.24090263950E+02  0.29447532382E+02  0.16300338194E+03  0.20896197885E+03  0.12509000000E+03 0.  0.
         25    1    4    4    0    0  0.34932495023E+01 -0.44829321387E+02  0.25639442791E+03  0.28880353462E+03  0.12509000000E+03 0.  0.
<mgrwt>
<rscale>  2 0.39818976E+03</rscale>
<asrwt>0</asrwt>
<pdfrwt beam="1">  1       21 0.95169791E-01 0.39818976E+03</pdfrwt>
<pdfrwt beam="2">  1       21 0.90074788E-02 0.39818976E+03</pdfrwt>
<totfact> 0.84258937E+04</totfact>
</mgrwt>
</event>
<event>
 7    0  0.4709932E-002  0.4559274E+03  0.7546771E-02  0.1025969E+00
         21   -1    0    0  502  501  0.00000000000E+00  0.00000000000E+00  0.12678423010E+04  0.12678423010E+04  0.00000000000E+00 0. -1.
         21   -1    0    0  501  502 -0.00000000000E+00 -0.00000000000E+00 -0.40988886810E+02  0.40988886810E+02  0.00000000000E+00 0. -1.
      99926    2    1    2    0    0  0.00000000000E+00  0.00000000000E+00  0.12268534142E+04  0.13088311878E+04  0.45592738268E+03 0.  0.
      99925    2    3    3    0    0  0.11011227775E+03  0.24781749557E+02  0.81903147566E+03  0.86757719013E+03  0.26294252963E+03 0.  0.
         25    1    4    4    0    0  0.23935747458E+02  0.38128886317E+02  0.35110834803E+03  0.37543483074E+03  0.12509000000E+03 0.  0.
         25    1    3    3    0    0 -0.11011227775E+03 -0.24781749557E+02  0.40782193853E+03  0.44125399768E+03  0.12509000000E+03 0.  0.
         25    1    4    4    0    0  0.86176530293E+02 -0.13347136761E+02  0.46792312763E+03  0.49214235938E+03  0.12509000000E+03 0.  0.
<mgrwt>
<rscale>  2 0.45592738E+03</rscale>
<asrwt>0</asrwt>
<pdfrwt beam="1">  1       21 0.18644737E+00 0.45592738E+03</pdfrwt>
<pdfrwt beam="2">  1       21 0.60277783E-02 0.45592738E+03</pdfrwt>
<totfact> 0.28652092E+04</totfact>
</mgrwt>
</event>
<event>
 7    0  0.4709932E-002  0.4525923E+03  0.7546771E-02  0.1026952E+00
         21   -1    0    0  502  501  0.00000000000E+00  0.00000000000E+00  0.40175655823E+03  0.40175655823E+03  0.00000000000E+00 0.  1.
         21   -1    0    0  501  502 -0.00000000000E+00 -0.00000000000E+00 -0.12746512601E+03  0.12746512601E+03  0.00000000000E+00 0.  1.
      99926    2    1    2    0    0  0.00000000000E+00 -0.17763568394E-14  0.27429143222E+03  0.52922168424E+03  0.45259231243E+03 0.  0.
      99925    2    3    3    0    0  0.85459162989E+02  0.14623511111E+02  0.25389070971E+03  0.37566122971E+03  0.26295199450E+03 0.  0.
         25    1    3    3    0    0 -0.85459162989E+02 -0.14623511111E+02  0.20400722511E+02  0.15356045453E+03  0.12509000000E+03 0.  0.
         25    1    4    4    0    0  0.72392482791E+02 -0.11558892543E+02  0.10504365701E+03  0.17904177596E+03  0.12509000000E+03 0.  0.
         25    1    4    4    0    0  0.13066680198E+02  0.26182403654E+02  0.14884705271E+03  0.19661945375E+03  0.12509000000E+03 0.  0.
<mgrwt>
<rscale>  2 0.45259231E+03</rscale>
<asrwt>0</asrwt>
<pdfrwt beam="1">  1       21 0.59081847E-01 0.45259231E+03</pdfrwt>
<pdfrwt beam="2">  1       21 0.18744872E-01 0.45259231E+03</pdfrwt>
<totfact> 0.64480965E+04</totfact>
</mgrwt>
</event>
<event>
 7    0  0.4709932E-002  0.4532265E+03  0.7546771E-02  0.1026764E+00
         21   -1    0    0  502  501  0.00000000000E+00  0.00000000000E+00  0.29411622780E+03  0.29411622780E+03  0.00000000000E+00 0.  1.
         21   -1    0    0  501  502 -0.00000000000E+00 -0.00000000000E+00 -0.17460296674E+03  0.17460296674E+03  0.00000000000E+00 0.  1.
      99926    2    1    2    0    0 -0.14210854715E-13  0.44408920985E-15  0.11951326107E+03  0.46871919454E+03  0.45322650382E+03 0.  0.
      99925    2    3    3    0    0  0.11135698208E+03  0.33756858208E+01  0.70898994006E+02  0.29429835928E+03  0.26300776455E+03 0.  0.
         25    1    4    4    0    0  0.26047319766E+02  0.14645127640E+02  0.47854095516E+01  0.12869868249E+03  0.12509000000E+03 0.  0.
         25    1    4    4    0    0  0.85309662311E+02 -0.11269441819E+02  0.66113584455E+02  0.16559967679E+03  0.12509000000E+03 0.  0.
         25    1    3    3    0    0 -0.11135698208E+03 -0.33756858208E+01  0.48614267061E+02  0.17442083526E+03  0.12509000000E+03 0.  0.
<mgrwt>
<rscale>  2 0.45322650E+03</rscale>
<asrwt>0</asrwt>
<pdfrwt beam="1">  1       21 0.43252387E-01 0.45322650E+03</pdfrwt>
<pdfrwt beam="2">  1       21 0.25676907E-01 0.45322650E+03</pdfrwt>
<totfact> 0.68489625E+04</totfact>
</mgrwt>
</event>
<event>
 7    0  0.4709932E-002  0.4511618E+03  0.7546771E-02  0.1027376E+00
         21   -1    0    0  502  501  0.00000000000E+00  0.00000000000E+00  0.62276674142E+03  0.62276674142E+03  0.00000000000E+00 0.  1.
         21   -1    0    0  501  502 -0.00000000000E+00 -0.00000000000E+00 -0.81710775586E+02  0.81710775586E+02  0.00000000000E+00 0.  1.
      99926    2    1    2    0    0  0.00000000000E+00  0.26645352591E-14  0.54105596583E+03  0.70447751700E+03  0.45116184879E+03 0.  0.
      99925    2    3    3    0    0 -0.41847177732E+02  0.37458318513E+01  0.49962812980E+03  0.56616992054E+03  0.26297317981E+03 0.  0.
         25    1    4    4    0    0 -0.16942374011E+02 -0.36515228380E+02  0.27393078828E+03  0.30381900995E+03  0.12509000000E+03 0.  0.
         25    1    3    3    0    0  0.41847177732E+02 -0.37458318513E+01  0.41427836034E+02  0.13830759646E+03  0.12509000000E+03 0.  0.
         25    1    4    4    0    0 -0.24904803721E+02  0.40261060231E+02  0.22569734152E+03  0.26235091059E+03  0.12509000000E+03 0.  0.
<mgrwt>
<rscale>  2 0.45116185E+03</rscale>
<asrwt>0</asrwt>
<pdfrwt beam="1">  1       21 0.91583342E-01 0.45116185E+03</pdfrwt>
<pdfrwt beam="2">  1       21 0.12016291E-01 0.45116185E+03</pdfrwt>
<totfact> 0.54281427E+04</totfact>
</mgrwt>
</event>
<event>
 7    0  0.4709932E-002  0.4536386E+03  0.7546771E-02  0.1026643E+00
         21   -1    0    0  502  501  0.00000000000E+00  0.00000000000E+00  0.14169094938E+03  0.14169094938E+03  0.00000000000E+00 0.  1.
         21   -1    0    0  501  502 -0.00000000000E+00 -0.00000000000E+00 -0.36309298263E+03  0.36309298263E+03  0.00000000000E+00 0.  1.
      99926    2    1    2    0    0  0.00000000000E+00 -0.14210854715E-13 -0.22140203325E+03  0.50478393201E+03  0.45363857605E+03 0.  0.
      99925    2    3    3    0    0 -0.75256941738E+02  0.80016128432E+02 -0.11621997586E+03  0.30786526508E+03  0.26307365995E+03 0.  0.
         25    1    4    4    0    0 -0.62528081279E+02  0.48791228636E+02 -0.26985726503E+02  0.15055259040E+03  0.12509000000E+03 0.  0.
         25    1    4    4    0    0 -0.12728860460E+02  0.31224899797E+02 -0.89234249361E+02  0.15731267468E+03  0.12509000000E+03 0.  0.
         25    1    3    3    0    0  0.75256941738E+02 -0.80016128432E+02 -0.10518205739E+03  0.19691866693E+03  0.12509000000E+03 0.  0.
<mgrwt>
<rscale>  2 0.45363858E+03</rscale>
<asrwt>0</asrwt>
<pdfrwt beam="1">  1       21 0.20836904E-01 0.45363858E+03</pdfrwt>
<pdfrwt beam="2">  1       21 0.53396027E-01 0.45363858E+03</pdfrwt>
<totfact> 0.65642327E+04</totfact>
</mgrwt>
</event>
<event>
 7    0  0.4709932E-002  0.4513463E+03  0.7546771E-02  0.1027321E+00
         21   -1    0    0  502  501  0.00000000000E+00  0.00000000000E+00  0.13122310457E+04  0.13122310457E+04  0.00000000000E+00 0.  1.
         21   -1    0    0  501  502 -0.00000000000E+00 -0.00000000000E+00 -0.38810514557E+02  0.38810514557E+02  0.00000000000E+00 0.  1.
      99926    2    1    2    0    0 -0.14210854715E-13 -0.35527136788E-14  0.12734205311E+04  0.13510415602E+04  0.45134626220E+03 0.  0.
      99925    2    3    3    0    0  0.87994284851E+02 -0.25621374686E+02  0.62372666489E+03  0.68309764274E+03  0.26303609640E+03 0.  0.
         25    1    4    4    0    0  0.10954936955E+02  0.14112180051E+01  0.23108576016E+03  0.26300216507E+03  0.12509000000E+03 0.  0.
         25    1    3    3    0    0 -0.87994284851E+02  0.25621374686E+02  0.64969386620E+03  0.66794391747E+03  0.12509000000E+03 0.  0.
         25    1    4    4    0    0  0.77039347895E+02 -0.27032592692E+02  0.39264090473E+03  0.42009547767E+03  0.12509000000E+03 0.  0.
<mgrwt>
<rscale>  2 0.45134626E+03</rscale>
<asrwt>0</asrwt>
<pdfrwt beam="1">  1       21 0.19297512E+00 0.45134626E+03</pdfrwt>
<pdfrwt beam="2">  1       21 0.57074295E-02 0.45134626E+03</pdfrwt>
<totfact> 0.28466301E+04</totfact>
</mgrwt>
</event>
<event>
 7    0  0.4709932E-002  0.4539942E+03  0.7546771E-02  0.1026538E+00
         21   -1    0    0  502  501  0.00000000000E+00  0.00000000000E+00  0.21471626817E+03  0.21471626817E+03  0.00000000000E+00 0.  1.
         21   -1    0    0  501  502 -0.00000000000E+00 -0.00000000000E+00 -0.23998038488E+03  0.23998038488E+03  0.00000000000E+00 0.  1.
      99926    2    1    2    0    0  0.00000000000E+00  0.71054273576E-14 -0.25264116708E+02  0.45469665306E+03  0.45399424083E+03 0.  0.
      99925    2    3    3    0    0 -0.10093866000E+03  0.44228527145E+02  0.52967182426E+01  0.28520845751E+03  0.26300386559E+03 0.  0.
         25    1    4    4    0    0 -0.41456159927E+02  0.48050935219E+02  0.32535256306E+02  0.14399151563E+03  0.12509000000E+03 0.  0.
         25    1    3    3    0    0  0.10093866000E+03 -0.44228527145E+02 -0.30560834951E+02  0.16948819554E+03  0.12509000000E+03 0.  0.
         25    1    4    4    0    0 -0.59482500073E+02 -0.38224080741E+01 -0.27238538063E+02  0.14121694188E+03  0.12509000000E+03 0.  0.
<mgrwt>
<rscale>  2 0.45399424E+03</rscale>
<asrwt>0</asrwt>
<pdfrwt beam="1">  1       21 0.31575922E-01 0.45399424E+03</pdfrwt>
<pdfrwt beam="2">  1       21 0.35291233E-01 0.45399424E+03</pdfrwt>
<totfact> 0.69121071E+04</totfact>
</mgrwt>
</event>
<event>
 7    0  0.4709932E-002  0.4575395E+03  0.7546771E-02  0.1025497E+00
         21   -1    0    0  502  501  0.00000000000E+00  0.00000000000E+00  0.12876890483E+04  0.12876890483E+04  0.00000000000E+00 0.  1.
         21   -1    0    0  501  502 -0.00000000000E+00 -0.00000000000E+00 -0.40643041822E+02  0.40643041822E+02  0.00000000000E+00 0.  1.
      99926    2    1    2    0    0  0.88817841970E-15  0.00000000000E+00  0.12470460064E+04  0.13283320901E+04  0.45753950580E+03 0.  0.
      99925    2    3    3    0    0  0.66460866262E+01 -0.11443837479E+03  0.73811100977E+03  0.79185967604E+03  0.26285656109E+03 0.  0.
         25    1    4    4    0    0  0.35138137898E+02 -0.54957757338E+02  0.30050841935E+03  0.33197569493E+03  0.12509000000E+03 0.  0.
         25    1    4    4    0    0 -0.28492051272E+02 -0.59480617453E+02  0.43760259042E+03  0.45988398111E+03  0.12509000000E+03 0.  0.
         25    1    3    3    0    0 -0.66460866262E+01  0.11443837479E+03  0.50893499666E+03  0.53647241404E+03  0.12509000000E+03 0.  0.
<mgrwt>
<rscale>  2 0.45753951E+03</rscale>
<asrwt>0</asrwt>
<pdfrwt beam="1">  1       21 0.18936601E+00 0.45753951E+03</pdfrwt>
<pdfrwt beam="2">  1       21 0.59769188E-02 0.45753951E+03</pdfrwt>
<totfact> 0.27750859E+04</totfact>
</mgrwt>
</event>
<event>
 7    0  0.4709932E-002  0.4480572E+03  0.7546771E-02  0.1028303E+00
         21   -1    0    0  502  501  0.00000000000E+00  0.00000000000E+00  0.15457387775E+03  0.15457387775E+03  0.00000000000E+00 0.  1.
         21   -1    0    0  501  502 -0.00000000000E+00 -0.00000000000E+00 -0.32469146940E+03  0.32469146940E+03  0.00000000000E+00 0.  1.
      99926    2    1    2    0    0  0.00000000000E+00  0.00000000000E+00 -0.17011759166E+03  0.47926534715E+03  0.44805722625E+03 0.  0.
      99925    2    3    3    0    0  0.30896599313E+02  0.10084126964E+03 -0.88370878540E+02  0.29636210848E+03  0.26248338168E+03 0.  0.
         25    1    4    4    0    0  0.20653993134E+02  0.82577283860E+02 -0.74868969553E+02  0.16881488662E+03  0.12509000000E+03 0.  0.
         25    1    4    4    0    0  0.10242606179E+02  0.18263985783E+02 -0.13501908987E+02  0.12754722186E+03  0.12509000000E+03 0.  0.
         25    1    3    3    0    0 -0.30896599313E+02 -0.10084126964E+03 -0.81746713116E+02  0.18290323867E+03  0.12509000000E+03 0.  0.
<mgrwt>
<rscale>  2 0.44805723E+03</rscale>
<asrwt>0</asrwt>
<pdfrwt beam="1">  1       21 0.22731453E-01 0.44805723E+03</pdfrwt>
<pdfrwt beam="2">  1       21 0.47748745E-01 0.44805723E+03</pdfrwt>
<totfact> 0.70563056E+04</totfact>
</mgrwt>
</event>
<event>
 7    0  0.4709932E-002  0.4485062E+03  0.7546771E-02  0.1028168E+00
         21   -1    0    0  502  501  0.00000000000E+00  0.00000000000E+00  0.40387073921E+03  0.40387073921E+03  0.00000000000E+00 0.  1.
         21   -1    0    0  501  502 -0.00000000000E+00 -0.00000000000E+00 -0.12451867756E+03  0.12451867756E+03  0.00000000000E+00 0.  1.
      99926    2    1    2    0    0  0.35527136788E-14  0.00000000000E+00  0.27935206165E+03  0.52838941677E+03  0.44850618882E+03 0.  0.
      99925    2    3    3    0    0 -0.26586739367E+02  0.10180982057E+03  0.19949158422E+03  0.34646278807E+03  0.26299710468E+03 0.  0.
         25    1    4    4    0    0  0.25459610320E+02  0.43481076830E+02  0.10910034987E+03  0.17346235972E+03  0.12509000000E+03 0.  0.
         25    1    3    3    0    0  0.26586739367E+02 -0.10180982057E+03  0.79860477430E+02  0.18192662870E+03  0.12509000000E+03 0.  0.
         25    1    4    4    0    0 -0.52046349687E+02  0.58328743739E+02  0.90391234353E+02  0.17300042835E+03  0.12509000000E+03 0.  0.
<mgrwt>
<rscale>  2 0.44850619E+03</rscale>
<asrwt>0</asrwt>
<pdfrwt beam="1">  1       21 0.59392755E-01 0.44850619E+03</pdfrwt>
<pdfrwt beam="2">  1       21 0.18311570E-01 0.44850619E+03</pdfrwt>
<totfact> 0.66679748E+04</totfact>
</mgrwt>
</event>
<event>
 7    0  0.4709932E-002  0.4548470E+03  0.7546771E-02  0.1026286E+00
         21   -1    0    0  502  501  0.00000000000E+00  0.00000000000E+00  0.54183956657E+03  0.54183956657E+03  0.00000000000E+00 0. -1.
         21   -1    0    0  501  502 -0.00000000000E+00 -0.00000000000E+00 -0.95455293561E+02  0.95455293561E+02  0.00000000000E+00 0. -1.
      99926    2    1    2    0    0  0.71054273576E-14 -0.14210854715E-13  0.44638427301E+03  0.63729486013E+03  0.45484702875E+03 0.  0.
      99925    2    3    3    0    0 -0.47755458123E+02  0.78547431158E+02  0.18870277580E+03  0.33646676166E+03  0.26296551369E+03 0.  0.
         25    1    3    3    0    0  0.47755458123E+02 -0.78547431158E+02  0.25768149721E+03  0.30082809847E+03  0.12509000000E+03 0.  0.
         25    1    4    4    0    0 -0.14580823824E+01  0.31090709291E+02  0.49972142966E+02  0.13825151493E+03  0.12509000000E+03 0.  0.
         25    1    4    4    0    0 -0.46297375741E+02  0.47456721867E+02  0.13873063283E+03  0.19821524673E+03  0.12509000000E+03 0.  0.
<mgrwt>
<rscale>  2 0.45484703E+03</rscale>
<asrwt>0</asrwt>
<pdfrwt beam="1">  1       21 0.79682288E-01 0.45484703E+03</pdfrwt>
<pdfrwt beam="2">  1       21 0.14037543E-01 0.45484703E+03</pdfrwt>
<totfact> 0.56507621E+04</totfact>
</mgrwt>
</event>
<event>
 7    0  0.4709932E-002  0.4558833E+03  0.7546771E-02  0.1025982E+00
         21   -1    0    0  502  501  0.00000000000E+00  0.00000000000E+00  0.76493448901E+03  0.76493448901E+03  0.00000000000E+00 0.  1.
         21   -1    0    0  501  502 -0.00000000000E+00 -0.00000000000E+00 -0.67923970986E+02  0.67923970986E+02  0.00000000000E+00 0.  1.
      99926    2    1    2    0    0  0.14210854715E-13 -0.35527136788E-14  0.69701051803E+03  0.83285846000E+03  0.45588326593E+03 0.  0.
      99925    2    3    3    0    0 -0.11003623009E+03  0.25793653496E+02  0.46537733452E+03  0.54637159416E+03  0.26300678876E+03 0.  0.
         25    1    4    4    0    0 -0.20881096996E+02 -0.66377933616E+01  0.24264688973E+03  0.27387059300E+03  0.12509000000E+03 0.  0.
         25    1    3    3    0    0  0.11003623009E+03 -0.25793653496E+02  0.23163318351E+03  0.28648686584E+03  0.12509000000E+03 0.  0.
         25    1    4    4    0    0 -0.89155133094E+02  0.32431446858E+02  0.22273044479E+03  0.27250100117E+03  0.12509000000E+03 0.  0.
<mgrwt>
<rscale>  2 0.45588327E+03</rscale>
<asrwt>0</asrwt>
<pdfrwt beam="1">  1       21 0.11249036E+00 0.45588327E+03</pdfrwt>
<pdfrwt beam="2">  1       21 0.99888197E-02 0.45588327E+03</pdfrwt>
<totfact> 0.45897290E+04</totfact>
</mgrwt>
</event>
<event>
 7    0  0.4709932E-002  0.4525026E+03  0.7546771E-02  0.1026978E+00
         21   -1    0    0  502  501  0.00000000000E+00  0.00000000000E+00  0.17357475277E+02  0.17357475277E+02  0.00000000000E+00 0.  1.
         21   -1    0    0  501  502 -0.00000000000E+00 -0.00000000000E+00 -0.29491417520E+04  0.29491417520E+04  0.00000000000E+00 0.  1.
      99926    2    1    2    0    0  0.00000000000E+00  0.00000000000E+00 -0.29317842767E+04  0.29664992272E+04  0.45250261899E+03 0.  0.
      99925    2    3    3    0    0 -0.24687486114E+02 -0.30493255793E+02 -0.11696131075E+04  0.11994581841E+04  0.26299392291E+03 0.  0.
         25    1    4    4    0    0 -0.23972823545E+02 -0.66617330850E+01 -0.41434650904E+03  0.43353155895E+03  0.12509000000E+03 0.  0.
         25    1    3    3    0    0  0.24687486114E+02  0.30493255793E+02 -0.17621711692E+04  0.17670410432E+04  0.12509000000E+03 0.  0.
         25    1    4    4    0    0 -0.71466256864E+00 -0.23831522708E+02 -0.75526659844E+03  0.76592662510E+03  0.12509000000E+03 0.  0.
<mgrwt>
<rscale>  2 0.45250262E+03</rscale>
<asrwt>0</asrwt>
<pdfrwt beam="1">  1       21 0.25525681E-02 0.45250262E+03</pdfrwt>
<pdfrwt beam="2">  1       21 0.43369762E+00 0.45250262E+03</pdfrwt>
<totfact> 0.35057716E+03</totfact>
</mgrwt>
</event>
<event>
 7    0  0.4709932E-002  0.4556925E+03  0.7546771E-02  0.1026038E+00
         21   -1    0    0  502  501  0.00000000000E+00  0.00000000000E+00  0.10186598470E+03  0.10186598470E+03  0.00000000000E+00 0.  1.
         21   -1    0    0  501  502 -0.00000000000E+00 -0.00000000000E+00 -0.50962953125E+03  0.50962953125E+03  0.00000000000E+00 0.  1.
      99926    2    1    2    0    0  0.00000000000E+00  0.14210854715E-13 -0.40776354655E+03  0.61149551595E+03  0.45569250173E+03 0.  0.
      99925    2    3    3    0    0  0.58456110312E+02  0.97370990362E+02 -0.26365892855E+03  0.38943274189E+03  0.26314179306E+03 0.  0.
         25    1    3    3    0    0 -0.58456110312E+02 -0.97370990362E+02 -0.14410461800E+03  0.22206277407E+03  0.12509000000E+03 0.  0.
         25    1    4    4    0    0  0.13260915748E+02  0.69395350481E+02 -0.17814190543E+03  0.22885281978E+03  0.12509000000E+03 0.  0.
         25    1    4    4    0    0  0.45195194564E+02  0.27975639881E+02 -0.85517023121E+02  0.16057992210E+03  0.12509000000E+03 0.  0.
<mgrwt>
<rscale>  2 0.45569250E+03</rscale>
<asrwt>0</asrwt>
<pdfrwt beam="1">  1       21 0.14980292E-01 0.45569250E+03</pdfrwt>
<pdfrwt beam="2">  1       21 0.74945519E-01 0.45569250E+03</pdfrwt>
<totfact> 0.57660175E+04</totfact>
</mgrwt>
</event>
<event>
 7    0  0.4709932E-002  0.4631477E+03  0.7546771E-02  0.1023872E+00
         21   -1    0    0  502  501  0.00000000000E+00  0.00000000000E+00  0.89540293640E+02  0.89540293640E+02  0.00000000000E+00 0. -1.
         21   -1    0    0  501  502 -0.00000000000E+00 -0.00000000000E+00 -0.59890854894E+03  0.59890854894E+03  0.00000000000E+00 0. -1.
      99926    2    1    2    0    0  0.00000000000E+00  0.14210854715E-13 -0.50936825530E+03  0.68844884258E+03  0.46314769711E+03 0.  0.
      99925    2    3    3    0    0  0.65060964463E+02  0.97287735595E+02 -0.27515880395E+03  0.39827750044E+03  0.26308699583E+03 0.  0.
         25    1    4    4    0    0 -0.33712171748E+01  0.24063535898E+02 -0.12978564132E+03  0.18188523761E+03  0.12509000000E+03 0.  0.
         25    1    4    4    0    0  0.68432181638E+02  0.73224199697E+02 -0.14537316262E+03  0.21639226284E+03  0.12509000000E+03 0.  0.
         25    1    3    3    0    0 -0.65060964463E+02 -0.97287735595E+02 -0.23420945135E+03  0.29017134214E+03  0.12509000000E+03 0.  0.
<mgrwt>
<rscale>  2 0.46314770E+03</rscale>
<asrwt>0</asrwt>
<pdfrwt beam="1">  1       21 0.13167690E-01 0.46314770E+03</pdfrwt>
<pdfrwt beam="2">  1       21 0.88074785E-01 0.46314770E+03</pdfrwt>
<totfact> 0.50232947E+04</totfact>
</mgrwt>
</event>
<event>
 7    0  0.4709932E-002  0.4661655E+03  0.7546771E-02  0.1023008E+00
         21   -1    0    0  502  501  0.00000000000E+00  0.00000000000E+00  0.89658871095E+02  0.89658871095E+02  0.00000000000E+00 0. -1.
         21   -1    0    0  501  502 -0.00000000000E+00 -0.00000000000E+00 -0.60593630173E+03  0.60593630173E+03  0.00000000000E+00 0. -1.
      99926    2    1    2    0    0  0.00000000000E+00  0.35527136788E-14 -0.51627743064E+03  0.69559517283E+03  0.46616548465E+03 0.  0.
      99925    2    3    3    0    0 -0.33636487681E+02 -0.20969200048E+02 -0.15035971530E+03  0.30686081218E+03  0.26454563578E+03 0.  0.
         25    1    3    3    0    0  0.33636487681E+02  0.20969200048E+02 -0.36591771533E+03  0.38873436065E+03  0.12509000000E+03 0.  0.
         25    1    4    4    0    0  0.76629586214E+01 -0.44393513217E+02 -0.63493772975E+02  0.14733795253E+03  0.12509000000E+03 0.  0.
         25    1    4    4    0    0 -0.41299446302E+02  0.23424313169E+02 -0.86865942329E+02  0.15952285964E+03  0.12509000000E+03 0.  0.
<mgrwt>
<rscale>  2 0.46616548E+03</rscale>
<asrwt>0</asrwt>
<pdfrwt beam="1">  1       21 0.13185128E-01 0.46616548E+03</pdfrwt>
<pdfrwt beam="2">  1       21 0.89108278E-01 0.46616548E+03</pdfrwt>
<totfact> 0.48716677E+04</totfact>
</mgrwt>
</event>
<event>
 6    0  0.4709932E-002  0.4437872E+03  0.7546771E-02  0.1029591E+00
         21   -1    0    0  502  501  0.00000000000E+00  0.00000000000E+00  0.20736047606E+03  0.20736047606E+03  0.00000000000E+00 0.  1.
         21   -1    0    0  501  502 -0.00000000000E+00 -0.00000000000E+00 -0.23744533881E+03  0.23744533881E+03  0.00000000000E+00 0.  1.
      99926    2    1    2    0    0 -0.34416913763E-14  0.14210854715E-13 -0.30084862751E+02  0.44480581487E+03  0.44378723954E+03 0.  0.
         25    1    3    3    0    0 -0.44509269406E+02 -0.58512218773E+02 -0.28113558591E+02  0.14779254070E+03  0.12509000000E+03 0.  0.
         25    1    3    3    0    0 -0.72535983984E+00  0.95194748839E+02  0.15374059175E+02  0.15794440841E+03  0.12509000000E+03 0.  0.
         25    1    3    3    0    0  0.45234629246E+02 -0.36682530066E+02 -0.17345363334E+02  0.13906886576E+03  0.12509000000E+03 0.  0.
<mgrwt>
<rscale>  2 0.44378724E+03</rscale>
<asrwt>0</asrwt>
<pdfrwt beam="1">  1       21 0.30494188E-01 0.44378724E+03</pdfrwt>
<pdfrwt beam="2">  1       21 0.34918432E-01 0.44378724E+03</pdfrwt>
<totfact> 0.75862344E+04</totfact>
</mgrwt>
</event>
<event>
 7    0  0.4709932E-002  0.4397140E+03  0.7546771E-02  0.1030835E+00
         21   -1    0    0  502  501  0.00000000000E+00  0.00000000000E+00  0.82642319742E+02  0.82642319742E+02  0.00000000000E+00 0. -1.
         21   -1    0    0  501  502 -0.00000000000E+00 -0.00000000000E+00 -0.58489515150E+03  0.58489515150E+03  0.00000000000E+00 0. -1.
      99926    2    1    2    0    0  0.00000000000E+00  0.00000000000E+00 -0.50225283176E+03  0.66753747124E+03  0.43971396214E+03 0.  0.
      99925    2    3    3    0    0  0.67048985454E+02 -0.66801581777E+02 -0.36011197262E+03  0.45585480848E+03  0.26299231131E+03 0.  0.
         25    1    4    4    0    0  0.43484198015E+02 -0.50417374430E+02 -0.24710254228E+03  0.28485077080E+03  0.12509000000E+03 0.  0.
         25    1    3    3    0    0 -0.67048985454E+02  0.66801581777E+02 -0.14214085913E+03  0.21168266276E+03  0.12509000000E+03 0.  0.
         25    1    4    4    0    0  0.23564787439E+02 -0.16384207347E+02 -0.11300943034E+03  0.17100403768E+03  0.12509000000E+03 0.  0.
<mgrwt>
<rscale>  2 0.43971396E+03</rscale>
<asrwt>0</asrwt>
<pdfrwt beam="1">  1       21 0.12153282E-01 0.43971396E+03</pdfrwt>
<pdfrwt beam="2">  1       21 0.86013997E-01 0.43971396E+03</pdfrwt>
<totfact> 0.61815683E+04</totfact>
</mgrwt>
</event>
<event>
 7    0  0.4709932E-002  0.4505931E+03  0.7546771E-02  0.1027545E+00
         21   -1    0    0  502  501  0.00000000000E+00  0.00000000000E+00  0.35120260119E+03  0.35120260119E+03  0.00000000000E+00 0.  1.
         21   -1    0    0  501  502 -0.00000000000E+00 -0.00000000000E+00 -0.14452781481E+03  0.14452781481E+03  0.00000000000E+00 0.  1.
      99926    2    1    2    0    0 -0.35527136788E-14 -0.35527136788E-14  0.20667478637E+03  0.49573041600E+03  0.45059314024E+03 0.  0.
      99925    2    3    3    0    0  0.24505700672E+02 -0.21246610220E+02  0.16183982617E+02  0.26554309614E+03  0.26305753515E+03 0.  0.
         25    1    3    3    0    0 -0.24505700672E+02  0.21246610220E+02  0.19049080376E+03  0.23018731987E+03  0.12509000000E+03 0.  0.
         25    1    4    4    0    0  0.40809989443E+02  0.13386992479E+02  0.24315568261E+02  0.13447461383E+03  0.12509000000E+03 0.  0.
         25    1    4    4    0    0 -0.16304288772E+02 -0.34633602699E+02 -0.81315856434E+01  0.13106848230E+03  0.12509000000E+03 0.  0.
<mgrwt>
<rscale>  2 0.45059314E+03</rscale>
<asrwt>0</asrwt>
<pdfrwt beam="1">  1       21 0.51647441E-01 0.45059314E+03</pdfrwt>
<pdfrwt beam="2">  1       21 0.21254090E-01 0.45059314E+03</pdfrwt>
<totfact> 0.67916658E+04</totfact>
</mgrwt>
</event>
<event>
 7    0  0.4709932E-002  0.4586651E+03  0.7546771E-02  0.1025169E+00
         21   -1    0    0  502  501  0.00000000000E+00  0.00000000000E+00  0.62359367935E+02  0.62359367935E+02  0.00000000000E+00 0. -1.
         21   -1    0    0  501  502 -0.00000000000E+00 -0.00000000000E+00 -0.84339231533E+03  0.84339231533E+03  0.00000000000E+00 0. -1.
      99926    2    1    2    0    0  0.17763568394E-14  0.00000000000E+00 -0.78103294739E+03  0.90575168326E+03  0.45866507041E+03 0.  0.
      99925    2    3    3    0    0  0.11950682078E+02 -0.68106758065E+02 -0.67486456065E+03  0.72770510582E+03  0.26330817783E+03 0.  0.
         25    1    4    4    0    0  0.21635366506E+02 -0.53573405586E+02 -0.26298830950E+03  0.29689822819E+03  0.12509000000E+03 0.  0.
         25    1    4    4    0    0 -0.96846844282E+01 -0.14533352479E+02 -0.41187625115E+03  0.43080687762E+03  0.12509000000E+03 0.  0.
         25    1    3    3    0    0 -0.11950682078E+02  0.68106758065E+02 -0.10616838674E+03  0.17804657744E+03  0.12509000000E+03 0.  0.
<mgrwt>
<rscale>  2 0.45866507E+03</rscale>
<asrwt>0</asrwt>
<pdfrwt beam="1">  1       21 0.91704962E-02 0.45866507E+03</pdfrwt>
<pdfrwt beam="2">  1       21 0.12402827E+00 0.45866507E+03</pdfrwt>
<totfact> 0.41774354E+04</totfact>
</mgrwt>
</event>
<event>
 7    0  0.4709932E-002  0.4535208E+03  0.7546771E-02  0.1026677E+00
         21   -1    0    0  502  501  0.00000000000E+00  0.00000000000E+00  0.29358485237E+03  0.29358485237E+03  0.00000000000E+00 0. -1.
         21   -1    0    0  501  502 -0.00000000000E+00 -0.00000000000E+00 -0.17514619250E+03  0.17514619250E+03  0.00000000000E+00 0. -1.
      99926    2    1    2    0    0 -0.35527136788E-14  0.00000000000E+00  0.11843865987E+03  0.46873104487E+03  0.45352075616E+03 0.  0.
      99925    2    3    3    0    0 -0.99625149050E+01  0.93601745867E+02  0.12674619985E+02  0.27980227849E+03  0.26318839360E+03 0.  0.
         25    1    4    4    0    0 -0.44285407474E+02  0.58923986152E+02  0.38332193376E+01  0.14524267668E+03  0.12509000000E+03 0.  0.
         25    1    3    3    0    0  0.99625149050E+01 -0.93601745867E+02  0.10576403988E+03  0.18892876638E+03  0.12509000000E+03 0.  0.
         25    1    4    4    0    0  0.34322892569E+02  0.34677759715E+02  0.88414006478E+01  0.13455960181E+03  0.12509000000E+03 0.  0.
<mgrwt>
<rscale>  2 0.45352076E+03</rscale>
<asrwt>0</asrwt>
<pdfrwt beam="1">  1       21 0.43174243E-01 0.45352076E+03</pdfrwt>
<pdfrwt beam="2">  1       21 0.25756793E-01 0.45352076E+03</pdfrwt>
<totfact> 0.68328519E+04</totfact>
</mgrwt>
</event>
<event>
 7    0  0.4709932E-002  0.4487340E+03  0.7546771E-02  0.1028100E+00
         21   -1    0    0  502  501  0.00000000000E+00  0.00000000000E+00  0.14169191749E+03  0.14169191749E+03  0.00000000000E+00 0. -1.
         21   -1    0    0  501  502 -0.00000000000E+00 -0.00000000000E+00 -0.35528168497E+03  0.35528168497E+03  0.00000000000E+00 0. -1.
      99926    2    1    2    0    0  0.14210854715E-13  0.00000000000E+00 -0.21358976748E+03  0.49697360246E+03  0.44873396658E+03 0.  0.
      99925    2    3    3    0    0 -0.82374408766E+02 -0.68322775774E+02 -0.12867144155E+03  0.31173814395E+03  0.26300339468E+03 0.  0.
         25    1    4    4    0    0 -0.36742302874E+02 -0.67117702014E+01 -0.94316099227E+02  0.16105303273E+03  0.12509000000E+03 0.  0.
         25    1    3    3    0    0  0.82374408766E+02  0.68322775774E+02 -0.84918325928E+02  0.18523545850E+03  0.12509000000E+03 0.  0.
         25    1    4    4    0    0 -0.45632105893E+02 -0.61611005572E+02 -0.34355342327E+02  0.15068511122E+03  0.12509000000E+03 0.  0.
<mgrwt>
<rscale>  2 0.44873397E+03</rscale>
<asrwt>0</asrwt>
<pdfrwt beam="1">  1       21 0.20837047E-01 0.44873397E+03</pdfrwt>
<pdfrwt beam="2">  1       21 0.52247307E-01 0.44873397E+03</pdfrwt>
<totfact> 0.68844918E+04</totfact>
</mgrwt>
</event>
<event>
 7    0  0.4709932E-002  0.4466298E+03  0.7546771E-02  0.1028732E+00
         21   -1    0    0  502  501  0.00000000000E+00  0.00000000000E+00  0.17178331743E+04  0.17178331743E+04  0.00000000000E+00 0.  1.
         21   -1    0    0  501  502 -0.00000000000E+00 -0.00000000000E+00 -0.29030493607E+02  0.29030493607E+02  0.00000000000E+00 0.  1.
      99926    2    1    2    0    0  0.71054273576E-14  0.35527136788E-14  0.16888026807E+04  0.17468636679E+04  0.44662980190E+03 0.  0.
      99925    2    3    3    0    0  0.41853515809E+02  0.19647742787E+02  0.14401668576E+04  0.14647200321E+04  0.26303316189E+03 0.  0.
         25    1    3    3    0    0 -0.41853515809E+02 -0.19647742787E+02  0.24863582318E+03  0.28214363585E+03  0.12509000000E+03 0.  0.
         25    1    4    4    0    0  0.47375526133E+00 -0.30924413148E+00  0.51330010330E+03  0.52832265163E+03  0.12509000000E+03 0.  0.
         25    1    4    4    0    0  0.41379760548E+02  0.19956986918E+02  0.92686675425E+03  0.93639738047E+03  0.12509000000E+03 0.  0.
<mgrwt>
<rscale>  2 0.44662980E+03</rscale>
<asrwt>0</asrwt>
<pdfrwt beam="1">  1       21 0.25262246E+00 0.44662980E+03</pdfrwt>
<pdfrwt beam="2">  1       21 0.42691914E-02 0.44662980E+03</pdfrwt>
<totfact> 0.19542603E+04</totfact>
</mgrwt>
</event>
<event>
 7    0  0.4709932E-002  0.4459492E+03  0.7546771E-02  0.1028937E+00
         21   -1    0    0  502  501  0.00000000000E+00  0.00000000000E+00  0.21678957156E+03  0.21678957156E+03  0.00000000000E+00 0. -1.
         21   -1    0    0  501  502 -0.00000000000E+00 -0.00000000000E+00 -0.22933609636E+03  0.22933609636E+03  0.00000000000E+00 0. -1.
      99926    2    1    2    0    0  0.00000000000E+00  0.14210854715E-13 -0.12546524802E+02  0.44612566792E+03  0.44594920820E+03 0.  0.
      99925    2    3    3    0    0  0.29751723218E+02  0.82632755247E+02  0.48558005577E+02  0.28152126638E+03  0.26302662649E+03 0.  0.
         25    1    4    4    0    0  0.42078825439E+02  0.25651782564E+02 -0.22254351226E+01  0.13446598886E+03  0.12509000000E+03 0.  0.
         25    1    3    3    0    0 -0.29751723218E+02 -0.82632755247E+02 -0.61104530378E+02  0.16460440154E+03  0.12509000000E+03 0.  0.
         25    1    4    4    0    0 -0.12327102222E+02  0.56980972683E+02  0.50783440699E+02  0.14705527752E+03  0.12509000000E+03 0.  0.
<mgrwt>
<rscale>  2 0.44594921E+03</rscale>
<asrwt>0</asrwt>
<pdfrwt beam="1">  1       21 0.31880820E-01 0.44594921E+03</pdfrwt>
<pdfrwt beam="2">  1       21 0.33725896E-01 0.44594921E+03</pdfrwt>
<totfact> 0.74432589E+04</totfact>
</mgrwt>
</event>
<event>
 7    0  0.4709932E-002  0.4372834E+03  0.7546771E-02  0.1031584E+00
         21   -1    0    0  502  501  0.00000000000E+00  0.00000000000E+00  0.38197396399E+02  0.38197396399E+02  0.00000000000E+00 0.  1.
         21   -1    0    0  501  502 -0.00000000000E+00 -0.00000000000E+00 -0.12515038792E+04  0.12515038792E+04  0.00000000000E+00 0.  1.
      99926    2    1    2    0    0 -0.14210854715E-13 -0.35527136788E-14 -0.12133064828E+04  0.12897012756E+04  0.43728338532E+03 0.  0.
      99925    2    3    3    0    0  0.73628448450E+02  0.24635574339E+02 -0.61225589591E+03  0.67088193521E+03  0.26305366175E+03 0.  0.
         25    1    3    3    0    0 -0.73628448450E+02 -0.24635574339E+02 -0.60105058690E+03  0.61881934040E+03  0.12509000000E+03 0.  0.
         25    1    4    4    0    0  0.16391734799E+02  0.26244635877E+02 -0.37626943435E+03  0.39772310118E+03  0.12509000000E+03 0.  0.
         25    1    4    4    0    0  0.57236713652E+02 -0.16090615380E+01 -0.23598646156E+03  0.27315883403E+03  0.12509000000E+03 0.  0.
<mgrwt>
<rscale>  2 0.43728339E+03</rscale>
<asrwt>0</asrwt>
<pdfrwt beam="1">  1       21 0.56172645E-02 0.43728339E+03</pdfrwt>
<pdfrwt beam="2">  1       21 0.18404468E+00 0.43728339E+03</pdfrwt>
<totfact> 0.33844035E+04</totfact>
</mgrwt>
</event>
<event>
 7    0  0.4709932E-002  0.4530836E+03  0.7546771E-02  0.1026806E+00
         21   -1    0    0  502  501  0.00000000000E+00  0.00000000000E+00  0.22506801323E+03  0.22506801323E+03  0.00000000000E+00 0.  1.
         21   -1    0    0  501  502 -0.00000000000E+00 -0.00000000000E+00 -0.22802524481E+03  0.22802524481E+03  0.00000000000E+00 0.  1.
      99926    2    1    2    0    0  0.00000000000E+00  0.00000000000E+00 -0.29572315784E+01  0.45309325804E+03  0.45308360737E+03 0.  0.
      99925    2    3    3    0    0 -0.61468146715E+02 -0.58542582829E+02 -0.73864842037E+02  0.28611731850E+03  0.26306185203E+03 0.  0.
         25    1    4    4    0    0 -0.66870669544E+02 -0.15150458981E+02 -0.24663045190E+02  0.14476531612E+03  0.12509000000E+03 0.  0.
         25    1    3    3    0    0  0.61468146715E+02  0.58542582829E+02  0.70907610458E+02  0.16697593954E+03  0.12509000000E+03 0.  0.
         25    1    4    4    0    0  0.54025228293E+01 -0.43392123848E+02 -0.49201796847E+02  0.14135200238E+03  0.12509000000E+03 0.  0.
<mgrwt>
<rscale>  2 0.45308361E+03</rscale>
<asrwt>0</asrwt>
<pdfrwt beam="1">  1       21 0.33098237E-01 0.45308361E+03</pdfrwt>
<pdfrwt beam="2">  1       21 0.33533124E-01 0.45308361E+03</pdfrwt>
<totfact> 0.69746092E+04</totfact>
</mgrwt>
</event>
<event>
 7    0  0.4709932E-002  0.4544258E+03  0.7546771E-02  0.1026410E+00
         21   -1    0    0  502  501  0.00000000000E+00  0.00000000000E+00  0.45708382566E+03  0.45708382566E+03  0.00000000000E+00 0. -1.
         21   -1    0    0  501  502 -0.00000000000E+00 -0.00000000000E+00 -0.11294581084E+03  0.11294581084E+03  0.00000000000E+00 0. -1.
      99926    2    1    2    0    0  0.00000000000E+00  0.14210854715E-13  0.34413801482E+03  0.57002963649E+03  0.45442580608E+03 0.  0.
      99925    2    3    3    0    0 -0.55566204570E+02  0.89905758145E+02  0.16791573902E+03  0.32946270812E+03  0.26301964222E+03 0.  0.
         25    1    4    4    0    0 -0.51036946193E+02  0.11531757613E+02  0.74439077534E+02  0.15468172379E+03  0.12509000000E+03 0.  0.
         25    1    3    3    0    0  0.55566204570E+02 -0.89905758145E+02  0.17622227581E+03  0.24056692838E+03  0.12509000000E+03 0.  0.
         25    1    4    4    0    0 -0.45292583770E+01  0.78374000532E+02  0.93476661482E+02  0.17478098433E+03  0.12509000000E+03 0.  0.
<mgrwt>
<rscale>  2 0.45442581E+03</rscale>
<asrwt>0</asrwt>
<pdfrwt beam="1">  1       21 0.67218209E-01 0.45442581E+03</pdfrwt>
<pdfrwt beam="2">  1       21 0.16609678E-01 0.45442581E+03</pdfrwt>
<totfact> 0.60837790E+04</totfact>
</mgrwt>
</event>
<event>
 7    0  0.4709932E-002  0.4323861E+03  0.7546771E-02  0.1033109E+00
         21   -1    0    0  502  501  0.00000000000E+00  0.00000000000E+00  0.14720563353E+03  0.14720563353E+03  0.00000000000E+00 0. -1.
         21   -1    0    0  501  502 -0.00000000000E+00 -0.00000000000E+00 -0.31751113128E+03  0.31751113128E+03  0.00000000000E+00 0. -1.
      99926    2    1    2    0    0  0.00000000000E+00  0.00000000000E+00 -0.17030549775E+03  0.46471676481E+03  0.43238606468E+03 0.  0.
      99925    2    3    3    0    0 -0.41731744225E+02  0.78822189061E+02 -0.94102524561E+02  0.29322659836E+03  0.26300584954E+03 0.  0.
         25    1    3    3    0    0  0.41731744225E+02 -0.78822189061E+02 -0.76202973190E+02  0.17149016645E+03  0.12509000000E+03 0.  0.
         25    1    4    4    0    0  0.26008531986E+01  0.38310872261E+01 -0.46457804088E+02  0.13351882761E+03  0.12509000000E+03 0.  0.
         25    1    4    4    0    0 -0.44332597424E+02  0.74991101835E+02 -0.47644720474E+02  0.15970777075E+03  0.12509000000E+03 0.  0.
<mgrwt>
<rscale>  2 0.43238606E+03</rscale>
<asrwt>0</asrwt>
<pdfrwt beam="1">  1       21 0.21647887E-01 0.43238606E+03</pdfrwt>
<pdfrwt beam="2">  1       21 0.46692813E-01 0.43238606E+03</pdfrwt>
<totfact> 0.81505529E+04</totfact>
</mgrwt>
</event>
<event>
 7    0  0.4709932E-002  0.4459698E+03  0.7546771E-02  0.1028931E+00
         21   -1    0    0  502  501  0.00000000000E+00  0.00000000000E+00  0.47208890913E+02  0.47208890913E+02  0.00000000000E+00 0.  1.
         21   -1    0    0  501  502 -0.00000000000E+00 -0.00000000000E+00 -0.10532393093E+04  0.10532393093E+04  0.00000000000E+00 0.  1.
      99926    2    1    2    0    0  0.00000000000E+00 -0.88817841970E-15 -0.10060304184E+04  0.11004482002E+04  0.44596977323E+03 0.  0.
      99925    2    3    3    0    0  0.89496765529E+02 -0.70355253420E+01 -0.76927350165E+03  0.81802915804E+03  0.26330745035E+03 0.  0.
         25    1    3    3    0    0 -0.89496765529E+02  0.70355253420E+01 -0.23675691674E+03  0.28241904217E+03  0.12509000000E+03 0.  0.
         25    1    4    4    0    0  0.78999316994E+02  0.17550615155E+02 -0.45288168205E+03  0.47675805417E+03  0.12509000000E+03 0.  0.
         25    1    4    4    0    0  0.10497448535E+02 -0.24586140497E+02 -0.31639181960E+03  0.34127110388E+03  0.12509000000E+03 0.  0.
<mgrwt>
<rscale>  2 0.44596977E+03</rscale>
<asrwt>0</asrwt>
<pdfrwt beam="1">  1       21 0.69424843E-02 0.44596977E+03</pdfrwt>
<pdfrwt beam="2">  1       21 0.15488813E+00 0.44596977E+03</pdfrwt>
<totfact> 0.38092116E+04</totfact>
</mgrwt>
</event>
<event>
 7    0  0.4709932E-002  0.4571814E+03  0.7546771E-02  0.1025602E+00
         21   -1    0    0  502  501  0.00000000000E+00  0.00000000000E+00  0.20492864603E+04  0.20492864603E+04  0.00000000000E+00 0.  1.
         21   -1    0    0  501  502 -0.00000000000E+00 -0.00000000000E+00 -0.25498488683E+02  0.25498488683E+02  0.00000000000E+00 0.  1.
      99926    2    1    2    0    0 -0.44408920985E-15  0.00000000000E+00  0.20237879716E+04  0.20747849490E+04  0.45718139776E+03 0.  0.
      99925    2    3    3    0    0 -0.36997359863E+01  0.93079274095E+02  0.15783687459E+04  0.16028493241E+04  0.26306010408E+03 0.  0.
         25    1    3    3    0    0  0.36997359863E+01 -0.93079274095E+02  0.44541922571E+03  0.47193562489E+03  0.12509000000E+03 0.  0.
         25    1    4    4    0    0  0.25215720878E+02  0.34047658540E+02  0.92446484876E+03  0.93385108038E+03  0.12509000000E+03 0.  0.
         25    1    4    4    0    0 -0.28915456864E+02  0.59031615555E+02  0.65390389712E+03  0.66899824368E+03  0.12509000000E+03 0.  0.
<mgrwt>
<rscale>  2 0.45718140E+03</rscale>
<asrwt>0</asrwt>
<pdfrwt beam="1">  1       21 0.30136554E+00 0.45718140E+03</pdfrwt>
<pdfrwt beam="2">  1       21 0.37497791E-02 0.45718140E+03</pdfrwt>
<totfact> 0.12317177E+04</totfact>
</mgrwt>
</event>
<event>
 7    0  0.4709932E-002  0.4551719E+03  0.7546771E-02  0.1026191E+00
         21   -1    0    0  502  501  0.00000000000E+00  0.00000000000E+00  0.66426589487E+03  0.66426589487E+03  0.00000000000E+00 0. -1.
         21   -1    0    0  501  502 -0.00000000000E+00 -0.00000000000E+00 -0.77973846961E+02  0.77973846961E+02  0.00000000000E+00 0. -1.
      99926    2    1    2    0    0  0.88817841970E-15  0.00000000000E+00  0.58629204790E+03  0.74223974183E+03  0.45517191138E+03 0.  0.
      99925    2    3    3    0    0  0.57954338722E+01  0.30009333431E+02  0.54696567124E+03  0.60759866656E+03  0.26281276024E+03 0.  0.
         25    1    4    4    0    0 -0.75653012352E-01  0.28164142363E+02  0.36358175257E+03  0.38552875838E+03  0.12509000000E+03 0.  0.
         25    1    3    3    0    0 -0.57954338722E+01 -0.30009333431E+02  0.39326376662E+02  0.13464107526E+03  0.12509000000E+03 0.  0.
         25    1    4    4    0    0  0.58710868846E+01  0.18451910683E+01  0.18338391868E+03  0.22206990818E+03  0.12509000000E+03 0.  0.
<mgrwt>
<rscale>  2 0.45517191E+03</rscale>
<asrwt>0</asrwt>
<pdfrwt beam="1">  1       21 0.97686158E-01 0.45517191E+03</pdfrwt>
<pdfrwt beam="2">  1       21 0.11466743E-01 0.45517191E+03</pdfrwt>
<totfact> 0.50600469E+04</totfact>
</mgrwt>
</event>
<event>
 7    0  0.4709932E-002  0.4569366E+03  0.7546771E-02  0.1025673E+00
         21   -1    0    0  502  501  0.00000000000E+00  0.00000000000E+00  0.12365753394E+04  0.12365753394E+04  0.00000000000E+00 0. -1.
         21   -1    0    0  501  502 -0.00000000000E+00 -0.00000000000E+00 -0.42211545943E+02  0.42211545943E+02  0.00000000000E+00 0. -1.
      99926    2    1    2    0    0  0.00000000000E+00  0.00000000000E+00  0.11943637935E+04  0.12787868854E+04  0.45693656782E+03 0.  0.
      99925    2    3    3    0    0  0.30808073648E+02  0.77146021758E+02  0.52780630281E+03  0.59552482543E+03  0.26300128963E+03 0.  0.
         25    1    4    4    0    0  0.23080905192E+02  0.57908174072E+02  0.35227518737E+03  0.37898733560E+03  0.12509000000E+03 0.  0.
         25    1    3    3    0    0 -0.30808073648E+02 -0.77146021758E+02  0.66655749066E+03  0.68326205992E+03  0.12509000000E+03 0.  0.
         25    1    4    4    0    0  0.77271684564E+01  0.19237847686E+02  0.17553111544E+03  0.21653748983E+03  0.12509000000E+03 0.  0.
<mgrwt>
<rscale>  2 0.45693657E+03</rscale>
<asrwt>0</asrwt>
<pdfrwt beam="1">  1       21 0.18184929E+00 0.45693657E+03</pdfrwt>
<pdfrwt beam="2">  1       21 0.62075811E-02 0.45693657E+03</pdfrwt>
<totfact> 0.29293151E+04</totfact>
</mgrwt>
</event>
<event>
 7    0  0.4709932E-002  0.4547291E+03  0.7546771E-02  0.1026321E+00
         21   -1    0    0  502  501  0.00000000000E+00  0.00000000000E+00  0.20051367728E+03  0.20051367728E+03  0.00000000000E+00 0.  1.
         21   -1    0    0  501  502 -0.00000000000E+00 -0.00000000000E+00 -0.25781099686E+03  0.25781099686E+03  0.00000000000E+00 0.  1.
      99926    2    1    2    0    0  0.00000000000E+00  0.35527136788E-14 -0.57297319583E+02  0.45832467414E+03  0.45472906669E+03 0.  0.
      99925    2    3    3    0    0 -0.10935806801E+03 -0.27795894776E+02 -0.36713325430E+02  0.28861018530E+03  0.26308966530E+03 0.  0.
         25    1    4    4    0    0 -0.36589002603E+02  0.21914333848E+02 -0.29563179362E+02  0.13542703871E+03  0.12509000000E+03 0.  0.
         25    1    4    4    0    0 -0.72769065410E+02 -0.49710228624E+02 -0.71501460677E+01  0.15318314659E+03  0.12509000000E+03 0.  0.
         25    1    3    3    0    0  0.10935806801E+03  0.27795894776E+02 -0.20583994154E+02  0.16971448884E+03  0.12509000000E+03 0.  0.
<mgrwt>
<rscale>  2 0.45472907E+03</rscale>
<asrwt>0</asrwt>
<pdfrwt beam="1">  1       21 0.29487305E-01 0.45472907E+03</pdfrwt>
<pdfrwt beam="2">  1       21 0.37913382E-01 0.45472907E+03</pdfrwt>
<totfact> 0.68450585E+04</totfact>
</mgrwt>
</event>
<event>
 7    0  0.4709932E-002  0.4627223E+03  0.7546771E-02  0.1023995E+00
         21   -1    0    0  502  501  0.00000000000E+00  0.00000000000E+00  0.19378101083E+04  0.19378101083E+04  0.00000000000E+00 0. -1.
         21   -1    0    0  501  502 -0.00000000000E+00 -0.00000000000E+00 -0.27622928133E+02  0.27622928133E+02  0.00000000000E+00 0. -1.
      99926    2    1    2    0    0  0.51070259133E-14  0.00000000000E+00  0.19101871801E+04  0.19654330364E+04  0.46272233296E+03 0.  0.
      99925    2    3    3    0    0 -0.17855135079E+01 -0.93327231928E+02  0.15157311773E+04  0.15412205819E+04  0.26307170119E+03 0.  0.
         25    1    4    4    0    0  0.39237468092E+02 -0.50719572936E+02  0.79330803628E+03  0.80566568905E+03  0.12509000000E+03 0.  0.
         25    1    3    3    0    0  0.17855135079E+01  0.93327231928E+02  0.39445600285E+03  0.42421245451E+03  0.12509000000E+03 0.  0.
         25    1    4    4    0    0 -0.41022981600E+02 -0.42607658993E+02  0.72242314100E+03  0.73555489283E+03  0.12509000000E+03 0.  0.
<mgrwt>
<rscale>  2 0.46272233E+03</rscale>
<asrwt>0</asrwt>
<pdfrwt beam="1">  1       21 0.28497198E+00 0.46272233E+03</pdfrwt>
<pdfrwt beam="2">  1       21 0.40621966E-02 0.46272233E+03</pdfrwt>
<totfact> 0.13457732E+04</totfact>
</mgrwt>
</event>
<event>
 7    0  0.4709932E-002  0.4597528E+03  0.7546771E-02  0.1024853E+00
         21   -1    0    0  502  501  0.00000000000E+00  0.00000000000E+00  0.11227203705E+03  0.11227203705E+03  0.00000000000E+00 0. -1.
         21   -1    0    0  501  502 -0.00000000000E+00 -0.00000000000E+00 -0.47067078906E+03  0.47067078906E+03  0.00000000000E+00 0. -1.
      99926    2    1    2    0    0  0.88817841970E-15 -0.22204460493E-15 -0.35839875202E+03  0.58294282611E+03  0.45975283911E+03 0.  0.
      99925    2    3    3    0    0  0.42634292894E+01  0.15685887953E+01 -0.75753266503E+02  0.27382049453E+03  0.26309402984E+03 0.  0.
         25    1    3    3    0    0 -0.42634292894E+01 -0.15685887953E+01 -0.28264548551E+03  0.30912233158E+03  0.12509000000E+03 0.  0.
         25    1    4    4    0    0 -0.30207056366E+02 -0.23920417381E+02 -0.36434346911E+02  0.13586619284E+03  0.12509000000E+03 0.  0.
         25    1    4    4    0    0  0.34470485655E+02  0.25489006176E+02 -0.39318919592E+02  0.13795430169E+03  0.12509000000E+03 0.  0.
<mgrwt>
<rscale>  2 0.45975284E+03</rscale>
<asrwt>0</asrwt>
<pdfrwt beam="1">  1       21 0.16510594E-01 0.45975284E+03</pdfrwt>
<pdfrwt beam="2">  1       21 0.69216292E-01 0.45975284E+03</pdfrwt>
<totfact> 0.57547791E+04</totfact>
</mgrwt>
</event>
<event>
 7    0  0.4709932E-002  0.4484104E+03  0.7546771E-02  0.1028197E+00
         21   -1    0    0  502  501  0.00000000000E+00  0.00000000000E+00  0.16224505432E+03  0.16224505432E+03  0.00000000000E+00 0. -1.
         21   -1    0    0  501  502 -0.00000000000E+00 -0.00000000000E+00 -0.30982747237E+03  0.30982747237E+03  0.00000000000E+00 0. -1.
      99926    2    1    2    0    0  0.00000000000E+00  0.00000000000E+00 -0.14758241806E+03  0.47207252669E+03  0.44841041506E+03 0.  0.
      99925    2    3    3    0    0  0.78589374051E+02 -0.35962214382E+02 -0.15959706997E+03  0.31955554227E+03  0.26301131017E+03 0.  0.
         25    1    3    3    0    0 -0.78589374051E+02  0.35962214382E+02  0.12014651912E+02  0.15251698442E+03  0.12509000000E+03 0.  0.
         25    1    4    4    0    0  0.41005757665E+02 -0.47730911875E+02 -0.11448478906E+03  0.18087008359E+03  0.12509000000E+03 0.  0.
         25    1    4    4    0    0  0.37583616386E+02  0.11768697493E+02 -0.45112280906E+02  0.13868545868E+03  0.12509000000E+03 0.  0.
<mgrwt>
<rscale>  2 0.44841042E+03</rscale>
<asrwt>0</asrwt>
<pdfrwt beam="1">  1       21 0.23859567E-01 0.44841042E+03</pdfrwt>
<pdfrwt beam="2">  1       21 0.45562863E-01 0.44841042E+03</pdfrwt>
<totfact> 0.70918674E+04</totfact>
</mgrwt>
</event>
<event>
 7    0  0.4709932E-002  0.4532558E+03  0.7546771E-02  0.1026756E+00
         21   -1    0    0  502  501  0.00000000000E+00  0.00000000000E+00  0.24183171251E+02  0.24183171251E+02  0.00000000000E+00 0. -1.
         21   -1    0    0  501  502 -0.00000000000E+00 -0.00000000000E+00 -0.21237996657E+04  0.21237996657E+04  0.00000000000E+00 0. -1.
      99926    2    1    2    0    0  0.00000000000E+00  0.00000000000E+00 -0.20996164944E+04  0.21479828369E+04  0.45325582630E+03 0.  0.
      99925    2    3    3    0    0 -0.51433418560E+02  0.13309887075E+02 -0.17879889609E+04  0.18080096359E+04  0.26300526557E+03 0.  0.
         25    1    4    4    0    0  0.12628338517E+01  0.88177515816E+01 -0.65381787091E+03  0.66573618192E+03  0.12509000000E+03 0.  0.
         25    1    4    4    0    0 -0.52696252412E+02  0.44921354934E+01 -0.11341710900E+04  0.11422734540E+04  0.12509000000E+03 0.  0.
         25    1    3    3    0    0  0.51433418560E+02 -0.13309887075E+02 -0.31162753355E+03  0.33997320101E+03  0.12509000000E+03 0.  0.
<mgrwt>
<rscale>  2 0.45325583E+03</rscale>
<asrwt>0</asrwt>
<pdfrwt beam="1">  1       21 0.35563481E-02 0.45325583E+03</pdfrwt>
<pdfrwt beam="2">  1       21 0.31232353E+00 0.45325583E+03</pdfrwt>
<totfact> 0.11596973E+04</totfact>
</mgrwt>
</event>
<event>
 7    0  0.4709932E-002  0.4543758E+03  0.7546771E-02  0.1026425E+00
         21   -1    0    0  502  501  0.00000000000E+00  0.00000000000E+00  0.27605335137E+03  0.27605335137E+03  0.00000000000E+00 0.  1.
         21   -1    0    0  501  502 -0.00000000000E+00 -0.00000000000E+00 -0.18697235512E+03  0.18697235512E+03  0.00000000000E+00 0.  1.
      99926    2    1    2    0    0  0.00000000000E+00  0.00000000000E+00  0.89080996248E+02  0.46302570649E+03  0.45437581469E+03 0.  0.
      99925    2    3    3    0    0 -0.10318477806E+03 -0.44805308547E+02  0.52331933108E+02  0.29082635736E+03  0.26303369521E+03 0.  0.
         25    1    4    4    0    0 -0.34979473972E+02 -0.59309480540E+02  0.22737966199E+02  0.14458803992E+03  0.12509000000E+03 0.  0.
         25    1    4    4    0    0 -0.68205304089E+02  0.14504171993E+02  0.29593966909E+02  0.14623831744E+03  0.12509000000E+03 0.  0.
         25    1    3    3    0    0  0.10318477806E+03  0.44805308547E+02  0.36749063140E+02  0.17219934912E+03  0.12509000000E+03 0.  0.
<mgrwt>
<rscale>  2 0.45437581E+03</rscale>
<asrwt>0</asrwt>
<pdfrwt beam="1">  1       21 0.40596081E-01 0.45437581E+03</pdfrwt>
<pdfrwt beam="2">  1       21 0.27495935E-01 0.45437581E+03</pdfrwt>
<totfact> 0.68295254E+04</totfact>
</mgrwt>
</event>
<event>
 7    0  0.4709932E-002  0.4629512E+03  0.7546771E-02  0.1023929E+00
         21   -1    0    0  502  501  0.00000000000E+00  0.00000000000E+00  0.64643650347E+03  0.64643650347E+03  0.00000000000E+00 0. -1.
         21   -1    0    0  501  502 -0.00000000000E+00 -0.00000000000E+00 -0.82886639296E+02  0.82886639296E+02  0.00000000000E+00 0. -1.
      99926    2    1    2    0    0  0.00000000000E+00  0.00000000000E+00  0.56354986418E+03  0.72932314277E+03  0.46295118227E+03 0.  0.
      99925    2    3    3    0    0  0.33791146623E+02 -0.11319421044E+03  0.38908294784E+03  0.48429052481E+03  0.26305322893E+03 0.  0.
         25    1    4    4    0    0 -0.26821509541E+01 -0.17807597057E+02  0.15676866121E+03  0.20136590000E+03  0.12509000000E+03 0.  0.
         25    1    4    4    0    0  0.36473297577E+02 -0.95386613385E+02  0.23231428663E+03  0.28292462481E+03  0.12509000000E+03 0.  0.
         25    1    3    3    0    0 -0.33791146623E+02  0.11319421044E+03  0.17446691634E+03  0.24503261796E+03  0.12509000000E+03 0.  0.
<mgrwt>
<rscale>  2 0.46295118E+03</rscale>
<asrwt>0</asrwt>
<pdfrwt beam="1">  1       21 0.95064189E-01 0.46295118E+03</pdfrwt>
<pdfrwt beam="2">  1       21 0.12189212E-01 0.46295118E+03</pdfrwt>
<totfact> 0.48251185E+04</totfact>
</mgrwt>
</event>
<event>
 7    0  0.4709932E-002  0.4388700E+03  0.7546771E-02  0.1031094E+00
         21   -1    0    0  502  501  0.00000000000E+00  0.00000000000E+00  0.65862723558E+02  0.65862723558E+02  0.00000000000E+00 0. -1.
         21   -1    0    0  501  502 -0.00000000000E+00 -0.00000000000E+00 -0.73109205214E+03  0.73109205214E+03  0.00000000000E+00 0. -1.
      99926    2    1    2    0    0 -0.35527136788E-14  0.00000000000E+00 -0.66522932858E+03  0.79695477569E+03  0.43886997494E+03 0.  0.
      99925    2    3    3    0    0  0.11620969314E+02 -0.47020795537E+02 -0.27222697573E+03  0.38169057114E+03  0.26312385609E+03 0.  0.
         25    1    4    4    0    0  0.35330803391E+02 -0.52187060438E+02 -0.13871764673E+03  0.19713408777E+03  0.12509000000E+03 0.  0.
         25    1    4    4    0    0 -0.23709834077E+02  0.51662649014E+01 -0.13350932900E+03  0.18455648337E+03  0.12509000000E+03 0.  0.
         25    1    3    3    0    0 -0.11620969314E+02  0.47020795537E+02 -0.39300235285E+03  0.41526420455E+03  0.12509000000E+03 0.  0.
<mgrwt>
<rscale>  2 0.43886997E+03</rscale>
<asrwt>0</asrwt>
<pdfrwt beam="1">  1       21 0.96856953E-02 0.43886997E+03</pdfrwt>
<pdfrwt beam="2">  1       21 0.10751353E+00 0.43886997E+03</pdfrwt>
<totfact> 0.54489807E+04</totfact>
</mgrwt>
</event>
<event>
 7    0  0.4709932E-002  0.4536604E+03  0.7546771E-02  0.1026636E+00
         21   -1    0    0  502  501  0.00000000000E+00  0.00000000000E+00  0.45878690119E+02  0.45878690119E+02  0.00000000000E+00 0.  1.
         21   -1    0    0  501  502 -0.00000000000E+00 -0.00000000000E+00 -0.11214780084E+04  0.11214780084E+04  0.00000000000E+00 0.  1.
      99926    2    1    2    0    0 -0.14210854715E-13  0.00000000000E+00 -0.10755993183E+04  0.11673566986E+04  0.45366041055E+03 0.  0.
      99925    2    3    3    0    0 -0.10077267770E+03 -0.33002005763E+02 -0.76932807725E+03  0.81994649986E+03  0.26306331410E+03 0.  0.
         25    1    4    4    0    0 -0.62638488740E+02 -0.33384164793E+02 -0.29927217210E+03  0.33203828668E+03  0.12509000000E+03 0.  0.
         25    1    4    4    0    0 -0.38134188964E+02  0.38215903023E+00 -0.47005590515E+03  0.48790821317E+03  0.12509000000E+03 0.  0.
         25    1    3    3    0    0  0.10077267770E+03  0.33002005763E+02 -0.30627124108E+03  0.34741019871E+03  0.12509000000E+03 0.  0.
<mgrwt>
<rscale>  2 0.45366041E+03</rscale>
<asrwt>0</asrwt>
<pdfrwt beam="1">  1       21 0.67468652E-02 0.45366041E+03</pdfrwt>
<pdfrwt beam="2">  1       21 0.16492326E+00 0.45366041E+03</pdfrwt>
<totfact> 0.33557036E+04</totfact>
</mgrwt>
</event>
<event>
 7    0  0.4709932E-002  0.4533013E+03  0.7546771E-02  0.1026742E+00
         21   -1    0    0  502  501  0.00000000000E+00  0.00000000000E+00  0.28588770714E+03  0.28588770714E+03  0.00000000000E+00 0. -1.
         21   -1    0    0  501  502 -0.00000000000E+00 -0.00000000000E+00 -0.17968775825E+03  0.17968775825E+03  0.00000000000E+00 0. -1.
      99926    2    1    2    0    0 -0.71054273576E-14  0.00000000000E+00  0.10619994889E+03  0.46557546539E+03  0.45330131792E+03 0.  0.
      99925    2    3    3    0    0 -0.51958355431E+02  0.95335394473E+02  0.93350787494E+02  0.29943962583E+03  0.26298519322E+03 0.  0.
         25    1    4    4    0    0 -0.46663149836E+02  0.32876539645E+02  0.13047494787E+02  0.13811611648E+03  0.12509000000E+03 0.  0.
         25    1    4    4    0    0 -0.52952055956E+01  0.62458854827E+02  0.80303292707E+02  0.16132350935E+03  0.12509000000E+03 0.  0.
         25    1    3    3    0    0  0.51958355431E+02 -0.95335394473E+02  0.12849161395E+02  0.16613583956E+03  0.12509000000E+03 0.  0.
<mgrwt>
<rscale>  2 0.45330132E+03</rscale>
<asrwt>0</asrwt>
<pdfrwt beam="1">  1       21 0.42042310E-01 0.45330132E+03</pdfrwt>
<pdfrwt beam="2">  1       21 0.26424670E-01 0.45330132E+03</pdfrwt>
<totfact> 0.68687300E+04</totfact>
</mgrwt>
</event>
<event>
 7    0  0.4709932E-002  0.4532743E+03  0.7546771E-02  0.1026750E+00
         21   -1    0    0  502  501  0.00000000000E+00  0.00000000000E+00  0.41942683932E+03  0.41942683932E+03  0.00000000000E+00 0. -1.
         21   -1    0    0  501  502 -0.00000000000E+00 -0.00000000000E+00 -0.12246332150E+03  0.12246332150E+03  0.00000000000E+00 0. -1.
      99926    2    1    2    0    0  0.00000000000E+00  0.00000000000E+00  0.29696351782E+03  0.54189016081E+03  0.45327432695E+03 0.  0.
      99925    2    3    3    0    0 -0.10941818189E+03 -0.71768851296E+01  0.21195787987E+03  0.35508193618E+03  0.26293191581E+03 0.  0.
         25    1    4    4    0    0 -0.54314246867E+02 -0.40546749408E+01  0.15628085271E+03  0.20745527428E+03  0.12509000000E+03 0.  0.
         25    1    4    4    0    0 -0.55103935019E+02 -0.31222101888E+01  0.55677027163E+02  0.14762666190E+03  0.12509000000E+03 0.  0.
         25    1    3    3    0    0  0.10941818189E+03  0.71768851296E+01  0.85005637950E+02  0.18680822463E+03  0.12509000000E+03 0.  0.
<mgrwt>
<rscale>  2 0.45327433E+03</rscale>
<asrwt>0</asrwt>
<pdfrwt beam="1">  1       21 0.61680417E-01 0.45327433E+03</pdfrwt>
<pdfrwt beam="2">  1       21 0.18009312E-01 0.45327433E+03</pdfrwt>
<totfact> 0.63265160E+04</totfact>
</mgrwt>
</event>
<event>
 7    0  0.4709932E-002  0.4537592E+03  0.7546771E-02  0.1026607E+00
         21   -1    0    0  502  501  0.00000000000E+00  0.00000000000E+00  0.65493947071E+03  0.65493947071E+03  0.00000000000E+00 0.  1.
         21   -1    0    0  501  502 -0.00000000000E+00 -0.00000000000E+00 -0.78594061022E+02  0.78594061022E+02  0.00000000000E+00 0.  1.
      99926    2    1    2    0    0  0.00000000000E+00  0.00000000000E+00  0.57634540969E+03  0.73353353174E+03  0.45375919925E+03 0.  0.
      99925    2    3    3    0    0 -0.86528060743E+02 -0.70385117913E+02  0.34542220320E+03  0.44820178531E+03  0.26292046663E+03 0.  0.
         25    1    4    4    0    0 -0.20289929933E+02 -0.14668449540E+02  0.11297222100E+03  0.17040268626E+03  0.12509000000E+03 0.  0.
         25    1    4    4    0    0 -0.66238130809E+02 -0.55716668373E+02  0.23244998220E+03  0.27779909905E+03  0.12509000000E+03 0.  0.
         25    1    3    3    0    0  0.86528060743E+02  0.70385117913E+02  0.23092320649E+03  0.28533174642E+03  0.12509000000E+03 0.  0.
<mgrwt>
<rscale>  2 0.45375920E+03</rscale>
<asrwt>0</asrwt>
<pdfrwt beam="1">  1       21 0.96314625E-01 0.45375920E+03</pdfrwt>
<pdfrwt beam="2">  1       21 0.11557950E-01 0.45375920E+03</pdfrwt>
<totfact> 0.51621646E+04</totfact>
</mgrwt>
</event>
<event>
 7    0  0.4709932E-002  0.4701862E+03  0.7546771E-02  0.1021868E+00
         21   -1    0    0  502  501  0.00000000000E+00  0.00000000000E+00  0.15589720485E+03  0.15589720485E+03  0.00000000000E+00 0.  1.
         21   -1    0    0  501  502 -0.00000000000E+00 -0.00000000000E+00 -0.35452056987E+03  0.35452056987E+03  0.00000000000E+00 0.  1.
      99926    2    1    2    0    0  0.00000000000E+00  0.00000000000E+00 -0.19862336502E+03  0.51041777472E+03  0.47018620101E+03 0.  0.
      99925    2    3    3    0    0 -0.77514663110E+02 -0.33138767752E+02 -0.22626659615E+03  0.35706081449E+03  0.26303830858E+03 0.  0.
         25    1    4    4    0    0 -0.51582705092E+02  0.21313249423E+02 -0.10311883164E+03  0.17145270952E+03  0.12509000000E+03 0.  0.
         25    1    3    3    0    0  0.77514663110E+02  0.33138767752E+02  0.27643231134E+02  0.15335696024E+03  0.12509000000E+03 0.  0.
         25    1    4    4    0    0 -0.25931958018E+02 -0.54452017175E+02 -0.12314776452E+03  0.18560810496E+03  0.12509000000E+03 0.  0.
<mgrwt>
<rscale>  2 0.47018620E+03</rscale>
<asrwt>0</asrwt>
<pdfrwt beam="1">  1       21 0.22926060E-01 0.47018620E+03</pdfrwt>
<pdfrwt beam="2">  1       21 0.52135377E-01 0.47018620E+03</pdfrwt>
<totfact> 0.57317599E+04</totfact>
</mgrwt>
</event>
<event>
 6    0  0.4709932E-002  0.4540593E+03  0.7546771E-02  0.1026518E+00
         21   -1    0    0  502  501  0.00000000000E+00  0.00000000000E+00  0.47169200324E+03  0.47169200324E+03  0.00000000000E+00 0.  1.
         21   -1    0    0  501  502 -0.00000000000E+00 -0.00000000000E+00 -0.10927143929E+03  0.10927143929E+03  0.00000000000E+00 0.  1.
      99926    2    1    2    0    0  0.00000000000E+00  0.00000000000E+00  0.36242056395E+03  0.58096344253E+03  0.45405930932E+03 0.  0.
         25    1    3    3    0    0  0.43572148696E+02 -0.80847754385E+01 -0.83843164748E+00  0.13271061300E+03  0.12509000000E+03 0.  0.
         25    1    3    3    0    0 -0.36038767646E+02 -0.21867341694E+01  0.13435903446E+03  0.18709204372E+03  0.12509000000E+03 0.  0.
         25    1    3    3    0    0 -0.75333810507E+01  0.10271509608E+02  0.22889996113E+03  0.26116078581E+03  0.12509000000E+03 0.  0.
<mgrwt>
<rscale>  2 0.45405931E+03</rscale>
<asrwt>0</asrwt>
<pdfrwt beam="1">  1       21 0.69366470E-01 0.45405931E+03</pdfrwt>
<pdfrwt beam="2">  1       21 0.16069329E-01 0.45405931E+03</pdfrwt>
<totfact> 0.60312861E+04</totfact>
</mgrwt>
</event>
<event>
 7    0  0.4709932E-002  0.4189465E+03  0.7546771E-02  0.1037410E+00
         21   -1    0    0  502  501  0.00000000000E+00  0.00000000000E+00  0.96498768675E+03  0.96498768675E+03  0.00000000000E+00 0. -1.
         21   -1    0    0  501  502 -0.00000000000E+00 -0.00000000000E+00 -0.45471097430E+02  0.45471097430E+02  0.00000000000E+00 0. -1.
      99926    2    1    2    0    0 -0.17763568394E-14  0.00000000000E+00  0.91951658932E+03  0.10104587842E+04  0.41894653178E+03 0.  0.
      99925    2    3    3    0    0  0.15293835504E+02 -0.70678425111E+02  0.55831291761E+03  0.62142801195E+03  0.26311616996E+03 0.  0.
         25    1    3    3    0    0 -0.15293835504E+02  0.70678425111E+02  0.36120367172E+03  0.38903077223E+03  0.12509000000E+03 0.  0.
         25    1    4    4    0    0  0.22099956858E+02 -0.28234016404E+02  0.36231124263E+03  0.38497079423E+03  0.12509000000E+03 0.  0.
         25    1    4    4    0    0 -0.68061213540E+01 -0.42444408707E+02  0.19600167498E+03  0.23645721772E+03  0.12509000000E+03 0.  0.
<mgrwt>
<rscale>  2 0.41894653E+03</rscale>
<asrwt>0</asrwt>
<pdfrwt beam="1">  1       21 0.14190994E+00 0.41894653E+03</pdfrwt>
<pdfrwt beam="2">  1       21 0.66869267E-02 0.41894653E+03</pdfrwt>
<totfact> 0.51907404E+04</totfact>
</mgrwt>
</event>
<event>
 7    0  0.4709932E-002  0.4553044E+03  0.7546771E-02  0.1026152E+00
         21   -1    0    0  502  501  0.00000000000E+00  0.00000000000E+00  0.17811581141E+03  0.17811581141E+03  0.00000000000E+00 0.  1.
         21   -1    0    0  501  502 -0.00000000000E+00 -0.00000000000E+00 -0.29096536865E+03  0.29096536865E+03  0.00000000000E+00 0.  1.
      99926    2    1    2    0    0  0.00000000000E+00  0.00000000000E+00 -0.11284955723E+03  0.46908118006E+03  0.45530443762E+03 0.  0.
      99925    2    3    3    0    0  0.81257023693E+02  0.78632699007E+02 -0.81092889253E+02  0.29749505209E+03  0.26294760709E+03 0.  0.
         25    1    4    4    0    0  0.27736938927E+02  0.12149609352E+02 -0.69621648931E+01  0.12889115807E+03  0.12509000000E+03 0.  0.
         25    1    3    3    0    0 -0.81257023693E+02 -0.78632699007E+02 -0.31756667980E+02  0.17158612798E+03  0.12509000000E+03 0.  0.
         25    1    4    4    0    0  0.53520084766E+02  0.66483089655E+02 -0.74130724360E+02  0.16860389402E+03  0.12509000000E+03 0.  0.
<mgrwt>
<rscale>  2 0.45530444E+03</rscale>
<asrwt>0</asrwt>
<pdfrwt beam="1">  1       21 0.26193502E-01 0.45530444E+03</pdfrwt>
<pdfrwt beam="2">  1       21 0.42789024E-01 0.45530444E+03</pdfrwt>
<totfact> 0.67341386E+04</totfact>
</mgrwt>
</event>
<event>
 7    0  0.4709932E-002  0.4550699E+03  0.7546771E-02  0.1026221E+00
         21   -1    0    0  502  501  0.00000000000E+00  0.00000000000E+00  0.38420882463E+02  0.38420882463E+02  0.00000000000E+00 0.  1.
         21   -1    0    0  501  502 -0.00000000000E+00 -0.00000000000E+00 -0.13475003029E+04  0.13475003029E+04  0.00000000000E+00 0.  1.
      99926    2    1    2    0    0 -0.14210854715E-13  0.00000000000E+00 -0.13090794205E+04  0.13859211854E+04  0.45506988808E+03 0.  0.
      99925    2    3    3    0    0 -0.66505972090E+02  0.91631369253E+02 -0.82887492461E+03  0.87693865319E+03  0.26299887575E+03 0.  0.
         25    1    4    4    0    0 -0.33205329099E+02  0.87010077358E+02 -0.48627066719E+03  0.51066624846E+03  0.12509000000E+03 0.  0.
         25    1    3    3    0    0  0.66505972090E+02 -0.91631369253E+02 -0.48020449586E+03  0.50898253222E+03  0.12509000000E+03 0.  0.
         25    1    4    4    0    0 -0.33300642992E+02  0.46212918956E+01 -0.34260425742E+03  0.36627240473E+03  0.12509000000E+03 0.  0.
<mgrwt>
<rscale>  2 0.45506989E+03</rscale>
<asrwt>0</asrwt>
<pdfrwt beam="1">  1       21 0.56501283E-02 0.45506989E+03</pdfrwt>
<pdfrwt beam="2">  1       21 0.19816186E+00 0.45506989E+03</pdfrwt>
<totfact> 0.26695093E+04</totfact>
</mgrwt>
</event>
<event>
 7    0  0.4709932E-002  0.4479366E+03  0.7546771E-02  0.1028339E+00
         21   -1    0    0  502  501  0.00000000000E+00  0.00000000000E+00  0.31236086406E+03  0.31236086406E+03  0.00000000000E+00 0. -1.
         21   -1    0    0  501  502 -0.00000000000E+00 -0.00000000000E+00 -0.16058922537E+03  0.16058922537E+03  0.00000000000E+00 0. -1.
      99926    2    1    2    0    0  0.00000000000E+00  0.14210854715E-13  0.15177163869E+03  0.47295008943E+03  0.44793655442E+03 0.  0.
      99925    2    3    3    0    0 -0.63438692619E+02 -0.81283248918E+02  0.68051744761E+02  0.29050019764E+03  0.26292183361E+03 0.  0.
         25    1    4    4    0    0 -0.54964608061E+02 -0.18910772729E+02  0.59450512327E+02  0.15020185412E+03  0.12509000000E+03 0.  0.
         25    1    4    4    0    0 -0.84740845582E+01 -0.62372476189E+02  0.86012324345E+01  0.14029834352E+03  0.12509000000E+03 0.  0.
         25    1    3    3    0    0  0.63438692619E+02  0.81283248918E+02  0.83719893927E+02  0.18244989179E+03  0.12509000000E+03 0.  0.
<mgrwt>
<rscale>  2 0.44793655E+03</rscale>
<asrwt>0</asrwt>
<pdfrwt beam="1">  1       21 0.45935421E-01 0.44793655E+03</pdfrwt>
<pdfrwt beam="2">  1       21 0.23616062E-01 0.44793655E+03</pdfrwt>
<totfact> 0.71121132E+04</totfact>
</mgrwt>
</event>
<event>
 7    0  0.4709932E-002  0.4597414E+03  0.7546771E-02  0.1024856E+00
         21   -1    0    0  502  501  0.00000000000E+00  0.00000000000E+00  0.43866254697E+03  0.43866254697E+03  0.00000000000E+00 0. -1.
         21   -1    0    0  501  502 -0.00000000000E+00 -0.00000000000E+00 -0.12045829750E+03  0.12045829750E+03  0.00000000000E+00 0. -1.
      99926    2    1    2    0    0 -0.14210854715E-13 -0.71054273576E-14  0.31820424946E+03  0.55912084447E+03  0.45974142117E+03 0.  0.
      99925    2    3    3    0    0 -0.97644669439E+02 -0.49954528370E+02  0.14806091519E+03  0.32115824516E+03  0.26304115163E+03 0.  0.
         25    1    3    3    0    0  0.97644669439E+02  0.49954528370E+02  0.17014333427E+03  0.23796259931E+03  0.12509000000E+03 0.  0.
         25    1    4    4    0    0 -0.73880515170E+02 -0.27417436196E+02  0.11604608387E+03  0.18794746077E+03  0.12509000000E+03 0.  0.
         25    1    4    4    0    0 -0.23764154269E+02 -0.22537092175E+02  0.32014831323E+02  0.13321078439E+03  0.12509000000E+03 0.  0.
<mgrwt>
<rscale>  2 0.45974142E+03</rscale>
<asrwt>0</asrwt>
<pdfrwt beam="1">  1       21 0.64509197E-01 0.45974142E+03</pdfrwt>
<pdfrwt beam="2">  1       21 0.17714456E-01 0.45974142E+03</pdfrwt>
<totfact> 0.59022777E+04</totfact>
</mgrwt>
</event>
<event>
 7    0  0.4709932E-002  0.4594999E+03  0.7546771E-02  0.1024926E+00
         21   -1    0    0  502  501  0.00000000000E+00  0.00000000000E+00  0.19622044643E+03  0.19622044643E+03  0.00000000000E+00 0. -1.
         21   -1    0    0  501  502 -0.00000000000E+00 -0.00000000000E+00 -0.26900888681E+03  0.26900888681E+03  0.00000000000E+00 0. -1.
      99926    2    1    2    0    0 -0.14210854715E-13  0.00000000000E+00 -0.72788440380E+02  0.46522933324E+03  0.45949991888E+03 0.  0.
      99925    2    3    3    0    0 -0.66682217155E+02 -0.74619492073E+02 -0.10741610161E+03  0.30133555757E+03  0.26315454145E+03 0.  0.
         25    1    4    4    0    0 -0.18621876411E+01 -0.28073302468E+02 -0.77981417307E+02  0.15006727691E+03  0.12509000000E+03 0.  0.
         25    1    3    3    0    0  0.66682217155E+02  0.74619492073E+02  0.34627661232E+02  0.16389377567E+03  0.12509000000E+03 0.  0.
         25    1    4    4    0    0 -0.64820029513E+02 -0.46546189605E+02 -0.29434684306E+02  0.15126828066E+03  0.12509000000E+03 0.  0.
<mgrwt>
<rscale>  2 0.45949992E+03</rscale>
<asrwt>0</asrwt>
<pdfrwt beam="1">  1       21 0.28855948E-01 0.45949992E+03</pdfrwt>
<pdfrwt beam="2">  1       21 0.39560130E-01 0.45949992E+03</pdfrwt>
<totfact> 0.65421335E+04</totfact>
</mgrwt>
</event>
<event>
 7    0  0.4709932E-002  0.4556766E+03  0.7546771E-02  0.1026043E+00
         21   -1    0    0  502  501  0.00000000000E+00  0.00000000000E+00  0.29215054287E+03  0.29215054287E+03  0.00000000000E+00 0.  1.
         21   -1    0    0  501  502 -0.00000000000E+00 -0.00000000000E+00 -0.17768338983E+03  0.17768338983E+03  0.00000000000E+00 0.  1.
      99926    2    1    2    0    0  0.00000000000E+00  0.00000000000E+00  0.11446715304E+03  0.46983393270E+03  0.45567663446E+03 0.  0.
      99925    2    3    3    0    0  0.59426098021E+02 -0.67559196064E+02  0.20073599119E+00  0.27800059810E+03  0.26303723339E+03 0.  0.
         25    1    4    4    0    0  0.60583527513E+00 -0.53906657162E+02 -0.19877610882E+02  0.13765508431E+03  0.12509000000E+03 0.  0.
         25    1    3    3    0    0 -0.59426098021E+02  0.67559196064E+02  0.11426641704E+03  0.19183333460E+03  0.12509000000E+03 0.  0.
         25    1    4    4    0    0  0.58820262746E+02 -0.13652538902E+02  0.20078346873E+02  0.14034551379E+03  0.12509000000E+03 0.  0.
<mgrwt>
<rscale>  2 0.45567663E+03</rscale>
<asrwt>0</asrwt>
<pdfrwt beam="1">  1       21 0.42963315E-01 0.45567663E+03</pdfrwt>
<pdfrwt beam="2">  1       21 0.26129910E-01 0.45567663E+03</pdfrwt>
<totfact> 0.67087270E+04</totfact>
</mgrwt>
</event>
<event>
 6    0  0.4709932E-002  0.4509803E+03  0.7546771E-02  0.1027430E+00
         21   -1    0    0  502  501  0.00000000000E+00  0.00000000000E+00  0.17317829583E+03  0.17317829583E+03  0.00000000000E+00 0.  1.
         21   -1    0    0  501  502 -0.00000000000E+00 -0.00000000000E+00 -0.29360376140E+03  0.29360376140E+03  0.00000000000E+00 0.  1.
      99926    2    1    2    0    0  0.00000000000E+00 -0.14210854715E-13 -0.12042546558E+03  0.46678205723E+03  0.45098026142E+03 0.  0.
         25    1    3    3    0    0 -0.83910164547E+01 -0.62230771695E+02 -0.10453890160E+03  0.17469678918E+03  0.12509000000E+03 0.  0.
         25    1    3    3    0    0 -0.18916155851E+02  0.75355807508E+02  0.38741131321E+02  0.15226523580E+03  0.12509000000E+03 0.  0.
         25    1    3    3    0    0  0.27307172306E+02 -0.13125035813E+02 -0.54627695299E+02  0.13982003225E+03  0.12509000000E+03 0.  0.
<mgrwt>
<rscale>  2 0.45098026E+03</rscale>
<asrwt>0</asrwt>
<pdfrwt beam="1">  1       21 0.25467396E-01 0.45098026E+03</pdfrwt>
<pdfrwt beam="2">  1       21 0.43177024E-01 0.45098026E+03</pdfrwt>
<totfact> 0.69877645E+04</totfact>
</mgrwt>
</event>
<event>
 7    0  0.4709932E-002  0.4623654E+03  0.7546771E-02  0.1024097E+00
         21   -1    0    0  502  501  0.00000000000E+00  0.00000000000E+00  0.28411588445E+02  0.28411588445E+02  0.00000000000E+00 0. -1.
         21   -1    0    0  501  502 -0.00000000000E+00 -0.00000000000E+00 -0.18811143882E+04  0.18811143882E+04  0.00000000000E+00 0. -1.
      99926    2    1    2    0    0  0.00000000000E+00  0.00000000000E+00 -0.18527027997E+04  0.19095259766E+04  0.46236543043E+03 0.  0.
      99925    2    3    3    0    0 -0.36587156326E+02  0.11404288050E+03 -0.11311243426E+04  0.11674563192E+04  0.26299730069E+03 0.  0.
         25    1    4    4    0    0  0.99265351192E+01  0.41239468283E+02 -0.63370219727E+03  0.64732156829E+03  0.12509000000E+03 0.  0.
         25    1    3    3    0    0  0.36587156326E+02 -0.11404288050E+03 -0.72157845708E+03  0.74206965739E+03  0.12509000000E+03 0.  0.
         25    1    4    4    0    0 -0.46513691445E+02  0.72803412214E+02 -0.49742214535E+03  0.52013475091E+03  0.12509000000E+03 0.  0.
<mgrwt>
<rscale>  2 0.46236543E+03</rscale>
<asrwt>0</asrwt>
<pdfrwt beam="1">  1       21 0.41781744E-02 0.46236543E+03</pdfrwt>
<pdfrwt beam="2">  1       21 0.27663449E+00 0.46236543E+03</pdfrwt>
<totfact> 0.14402616E+04</totfact>
</mgrwt>
</event>
<event>
 7    0  0.4709932E-002  0.4538416E+03  0.7546771E-02  0.1026583E+00
         21   -1    0    0  502  501  0.00000000000E+00  0.00000000000E+00  0.77663398812E+03  0.77663398812E+03  0.00000000000E+00 0. -1.
         21   -1    0    0  501  502 -0.00000000000E+00 -0.00000000000E+00 -0.66302848560E+02  0.66302848560E+02  0.00000000000E+00 0. -1.
      99926    2    1    2    0    0  0.00000000000E+00  0.00000000000E+00  0.71033113956E+03  0.84293683668E+03  0.45384158338E+03 0.  0.
      99925    2    3    3    0    0 -0.56489779147E+02  0.86548099826E+02  0.52798298335E+03  0.59884663428E+03  0.26300112539E+03 0.  0.
         25    1    4    4    0    0 -0.42002805098E+02  0.83634868037E+02  0.30794171741E+03  0.34530368693E+03  0.12509000000E+03 0.  0.
         25    1    4    4    0    0 -0.14486974050E+02  0.29132317889E+01  0.22004126594E+03  0.25354294735E+03  0.12509000000E+03 0.  0.
         25    1    3    3    0    0  0.56489779147E+02 -0.86548099826E+02  0.18234815621E+03  0.24409020240E+03  0.12509000000E+03 0.  0.
<mgrwt>
<rscale>  2 0.45384158E+03</rscale>
<asrwt>0</asrwt>
<pdfrwt beam="1">  1       21 0.11421088E+00 0.45384158E+03</pdfrwt>
<pdfrwt beam="2">  1       21 0.97504193E-02 0.45384158E+03</pdfrwt>
<totfact> 0.46175219E+04</totfact>
</mgrwt>
</event>
<event>
 7    0  0.4709932E-002  0.4267007E+03  0.7546771E-02  0.1034907E+00
         21   -1    0    0  502  501  0.00000000000E+00  0.00000000000E+00  0.78872981254E+02  0.78872981254E+02  0.00000000000E+00 0. -1.
         21   -1    0    0  501  502 -0.00000000000E+00 -0.00000000000E+00 -0.57710975934E+03  0.57710975934E+03  0.00000000000E+00 0. -1.
      99926    2    1    2    0    0  0.00000000000E+00  0.00000000000E+00 -0.49823677808E+03  0.65598274059E+03  0.42670067837E+03 0.  0.
      99925    2    3    3    0    0 -0.49260803923E+02 -0.63815957590E+02 -0.35630639077E+03  0.45033535746E+03  0.26334119850E+03 0.  0.
         25    1    3    3    0    0  0.49260803923E+02  0.63815957590E+02 -0.14193038731E+03  0.20564738313E+03  0.12509000000E+03 0.  0.
         25    1    4    4    0    0 -0.99679338205E+01 -0.27416181159E+02 -0.23606232310E+03  0.26874511192E+03  0.12509000000E+03 0.  0.
         25    1    4    4    0    0 -0.39292870103E+02 -0.36399776431E+02 -0.12024406767E+03  0.18159024554E+03  0.12509000000E+03 0.  0.
<mgrwt>
<rscale>  2 0.42670068E+03</rscale>
<asrwt>0</asrwt>
<pdfrwt beam="1">  1       21 0.11598968E-01 0.42670068E+03</pdfrwt>
<pdfrwt beam="2">  1       21 0.84869079E-01 0.42670068E+03</pdfrwt>
<totfact> 0.69637448E+04</totfact>
</mgrwt>
</event>
<event>
 7    0  0.4709932E-002  0.4335444E+03  0.7546771E-02  0.1032746E+00
         21   -1    0    0  502  501  0.00000000000E+00  0.00000000000E+00  0.17275951914E+04  0.17275951914E+04  0.00000000000E+00 0.  1.
         21   -1    0    0  501  502 -0.00000000000E+00 -0.00000000000E+00 -0.27199766366E+02  0.27199766366E+02  0.00000000000E+00 0.  1.
      99926    2    1    2    0    0  0.00000000000E+00  0.00000000000E+00  0.17003954250E+04  0.17547949577E+04  0.43354439487E+03 0.  0.
      99925    2    3    3    0    0  0.14434708536E+02  0.77550968970E+02  0.90494898312E+03  0.94571828424E+03  0.26311194858E+03 0.  0.
         25    1    4    4    0    0  0.24896200178E+02  0.17601035585E+02  0.33117980246E+03  0.35532687331E+03  0.12509000000E+03 0.  0.
         25    1    3    3    0    0 -0.14434708536E+02 -0.77550968970E+02  0.79544644189E+03  0.80907667350E+03  0.12509000000E+03 0.  0.
         25    1    4    4    0    0 -0.10461491642E+02  0.59949933385E+02  0.57376918066E+03  0.59039141093E+03  0.12509000000E+03 0.  0.
<mgrwt>
<rscale>  2 0.43354439E+03</rscale>
<asrwt>0</asrwt>
<pdfrwt beam="1">  1       21 0.25405804E+00 0.43354439E+03</pdfrwt>
<pdfrwt beam="2">  1       21 0.39999668E-02 0.43354439E+03</pdfrwt>
<totfact> 0.21509777E+04</totfact>
</mgrwt>
</event>
<event>
 7    0  0.4709932E-002  0.4558223E+03  0.7546771E-02  0.1026000E+00
         21   -1    0    0  502  501  0.00000000000E+00  0.00000000000E+00  0.17660954901E+03  0.17660954901E+03  0.00000000000E+00 0.  1.
         21   -1    0    0  501  502 -0.00000000000E+00 -0.00000000000E+00 -0.29411485507E+03  0.29411485507E+03  0.00000000000E+00 0.  1.
      99926    2    1    2    0    0 -0.17763568394E-14  0.00000000000E+00 -0.11750530607E+03  0.47072440408E+03  0.45582229832E+03 0.  0.
      99925    2    3    3    0    0 -0.84078076617E+01  0.52600670938E+02 -0.17797654042E+03  0.32192319408E+03  0.26290943714E+03 0.  0.
         25    1    3    3    0    0  0.84078076617E+01 -0.52600670938E+02  0.60471234352E+02  0.14880121000E+03  0.12509000000E+03 0.  0.
         25    1    4    4    0    0 -0.34638962521E+02  0.10436226932E+02 -0.11328280663E+03  0.17259569791E+03  0.12509000000E+03 0.  0.
         25    1    4    4    0    0  0.26231154859E+02  0.42164444006E+02 -0.64693733784E+02  0.14932749618E+03  0.12509000000E+03 0.  0.
<mgrwt>
<rscale>  2 0.45582230E+03</rscale>
<asrwt>0</asrwt>
<pdfrwt beam="1">  1       21 0.25971993E-01 0.45582230E+03</pdfrwt>
<pdfrwt beam="2">  1       21 0.43252184E-01 0.45582230E+03</pdfrwt>
<totfact> 0.66944109E+04</totfact>
</mgrwt>
</event>
<event>
 7    0  0.4709932E-002  0.4156972E+03  0.7546771E-02  0.1038476E+00
         21   -1    0    0  502  501  0.00000000000E+00  0.00000000000E+00  0.17676810225E+03  0.17676810225E+03  0.00000000000E+00 0.  1.
         21   -1    0    0  501  502 -0.00000000000E+00 -0.00000000000E+00 -0.24439382897E+03  0.24439382897E+03  0.00000000000E+00 0.  1.
      99926    2    1    2    0    0  0.00000000000E+00  0.00000000000E+00 -0.67625726718E+02  0.42116193123E+03  0.41569716550E+03 0.  0.
      99925    2    3    3    0    0  0.60087697970E+02 -0.36428176359E+02 -0.42379444962E+02  0.27548274149E+03  0.26297752760E+03 0.  0.
         25    1    4    4    0    0  0.16095436477E+02 -0.21033639913E+02  0.17723017046E+02  0.12908559376E+03  0.12509000000E+03 0.  0.
         25    1    3    3    0    0 -0.60087697970E+02  0.36428176359E+02 -0.25246281757E+02  0.14567918974E+03  0.12509000000E+03 0.  0.
         25    1    4    4    0    0  0.43992261493E+02 -0.15394536446E+02 -0.60102462008E+02  0.14639714773E+03  0.12509000000E+03 0.  0.
<mgrwt>
<rscale>  2 0.41569717E+03</rscale>
<asrwt>0</asrwt>
<pdfrwt beam="1">  1       21 0.25995309E-01 0.41569717E+03</pdfrwt>
<pdfrwt beam="2">  1       21 0.35940269E-01 0.41569717E+03</pdfrwt>
<totfact> 0.98556478E+04</totfact>
</mgrwt>
</event>
<event>
 7    0  0.4709932E-002  0.4584573E+03  0.7546771E-02  0.1025230E+00
         21   -1    0    0  502  501  0.00000000000E+00  0.00000000000E+00  0.36345791011E+02  0.36345791011E+02  0.00000000000E+00 0.  1.
         21   -1    0    0  501  502 -0.00000000000E+00 -0.00000000000E+00 -0.14457181772E+04  0.14457181772E+04  0.00000000000E+00 0.  1.
      99926    2    1    2    0    0  0.35527136788E-14  0.00000000000E+00 -0.14093723862E+04  0.14820639682E+04  0.45845728581E+03 0.  0.
      99925    2    3    3    0    0  0.21693429145E+02  0.92869443199E+02 -0.10997227338E+04  0.11347517834E+04  0.26301365077E+03 0.  0.
         25    1    4    4    0    0 -0.27066678878E+01  0.43826176391E+02 -0.38736200944E+03  0.40942019277E+03  0.12509000000E+03 0.  0.
         25    1    3    3    0    0 -0.21693429145E+02 -0.92869443199E+02 -0.30964965239E+03  0.34731218475E+03  0.12509000000E+03 0.  0.
         25    1    4    4    0    0  0.24400097033E+02  0.49043266807E+02 -0.71236072434E+03  0.72533159068E+03  0.12509000000E+03 0.  0.
<mgrwt>
<rscale>  2 0.45845729E+03</rscale>
<asrwt>0</asrwt>
<pdfrwt beam="1">  1       21 0.53449686E-02 0.45845729E+03</pdfrwt>
<pdfrwt beam="2">  1       21 0.21260564E+00 0.45845729E+03</pdfrwt>
<totfact> 0.23582448E+04</totfact>
</mgrwt>
</event>
<event>
 7    0  0.4709932E-002  0.4518480E+03  0.7546771E-02  0.1027172E+00
         21   -1    0    0  502  501  0.00000000000E+00  0.00000000000E+00  0.23368603117E+03  0.23368603117E+03  0.00000000000E+00 0. -1.
         21   -1    0    0  501  502 -0.00000000000E+00 -0.00000000000E+00 -0.21841979172E+03  0.21841979172E+03  0.00000000000E+00 0. -1.
      99926    2    1    2    0    0  0.00000000000E+00  0.71054273576E-14  0.15266239446E+02  0.45210582289E+03  0.45184800212E+03 0.  0.
      99925    2    3    3    0    0 -0.92449038548E+02 -0.59526054522E+02  0.19101070066E+01  0.28502479383E+03  0.26295495564E+03 0.  0.
         25    1    4    4    0    0 -0.80708099216E+02 -0.44944248906E+02  0.21675006944E+02  0.15700667761E+03  0.12509000000E+03 0.  0.
         25    1    3    3    0    0  0.92449038548E+02  0.59526054522E+02  0.13356132439E+02  0.16708102905E+03  0.12509000000E+03 0.  0.
         25    1    4    4    0    0 -0.11740939332E+02 -0.14581805616E+02 -0.19764899937E+02  0.12801811622E+03  0.12509000000E+03 0.  0.
<mgrwt>
<rscale>  2 0.45184800E+03</rscale>
<asrwt>0</asrwt>
<pdfrwt beam="1">  1       21 0.34365593E-01 0.45184800E+03</pdfrwt>
<pdfrwt beam="2">  1       21 0.32120557E-01 0.45184800E+03</pdfrwt>
<totfact> 0.70515159E+04</totfact>
</mgrwt>
</event>
<event>
 7    0  0.4709932E-002  0.4616327E+03  0.7546771E-02  0.1024309E+00
         21   -1    0    0  502  501  0.00000000000E+00  0.00000000000E+00  0.33311196455E+03  0.33311196455E+03  0.00000000000E+00 0.  1.
         21   -1    0    0  501  502 -0.00000000000E+00 -0.00000000000E+00 -0.15993477381E+03  0.15993477381E+03  0.00000000000E+00 0.  1.
      99926    2    1    2    0    0  0.00000000000E+00  0.00000000000E+00  0.17317719075E+03  0.49304673836E+03  0.46163269686E+03 0.  0.
      99925    2    3    3    0    0 -0.39313837303E+02  0.11143786722E+03  0.12624907973E+03  0.31468269557E+03  0.26291137805E+03 0.  0.
         25    1    4    4    0    0  0.46328417886E+01  0.87271627832E+02  0.79294009413E+02  0.17196757914E+03  0.12509000000E+03 0.  0.
         25    1    3    3    0    0  0.39313837303E+02 -0.11143786722E+03  0.46928111021E+02  0.17836404279E+03  0.12509000000E+03 0.  0.
         25    1    4    4    0    0 -0.43946679092E+02  0.24166239392E+02  0.46955070314E+02  0.14271511643E+03  0.12509000000E+03 0.  0.
<mgrwt>
<rscale>  2 0.46163270E+03</rscale>
<asrwt>0</asrwt>
<pdfrwt beam="1">  1       21 0.48987054E-01 0.46163270E+03</pdfrwt>
<pdfrwt beam="2">  1       21 0.23519820E-01 0.46163270E+03</pdfrwt>
<totfact> 0.62410464E+04</totfact>
</mgrwt>
</event>
<event>
 7    0  0.4709932E-002  0.4513771E+03  0.7546771E-02  0.1027312E+00
         21   -1    0    0  502  501  0.00000000000E+00  0.00000000000E+00  0.36891996420E+03  0.36891996420E+03  0.00000000000E+00 0. -1.
         21   -1    0    0  501  502 -0.00000000000E+00 -0.00000000000E+00 -0.13806606894E+03  0.13806606894E+03  0.00000000000E+00 0. -1.
      99926    2    1    2    0    0  0.00000000000E+00  0.35527136788E-14  0.23085389525E+03  0.50698603314E+03  0.45137713372E+03 0.  0.
      99925    2    3    3    0    0  0.45305003173E+02  0.27336004744E+02  0.37802292312E+02  0.27094317693E+03  0.26302355666E+03 0.  0.
         25    1    4    4    0    0  0.27012895047E+02  0.52886978660E+02  0.88283554530E+01  0.13875221429E+03  0.12509000000E+03 0.  0.
         25    1    3    3    0    0 -0.45305003173E+02 -0.27336004744E+02  0.19305160294E+03  0.23604285621E+03  0.12509000000E+03 0.  0.
         25    1    4    4    0    0  0.18292108127E+02 -0.25550973916E+02  0.28973936859E+02  0.13219096264E+03  0.12509000000E+03 0.  0.
<mgrwt>
<rscale>  2 0.45137713E+03</rscale>
<asrwt>0</asrwt>
<pdfrwt beam="1">  1       21 0.54252936E-01 0.45137713E+03</pdfrwt>
<pdfrwt beam="2">  1       21 0.20303834E-01 0.45137713E+03</pdfrwt>
<totfact> 0.66679297E+04</totfact>
</mgrwt>
</event>
<event>
 7    0  0.4709932E-002  0.4568530E+03  0.7546771E-02  0.1025698E+00
         21   -1    0    0  502  501  0.00000000000E+00  0.00000000000E+00  0.58362481463E+02  0.58362481463E+02  0.00000000000E+00 0.  1.
         21   -1    0    0  501  502 -0.00000000000E+00 -0.00000000000E+00 -0.89404464040E+03  0.89404464040E+03  0.00000000000E+00 0.  1.
      99926    2    1    2    0    0  0.00000000000E+00  0.17763568394E-14 -0.83568215893E+03  0.95240712186E+03  0.45685299059E+03 0.  0.
      99925    2    3    3    0    0 -0.32114092807E+02 -0.10921297158E+02 -0.75413403297E+03  0.79927908838E+03  0.26263726268E+03 0.  0.
         25    1    4    4    0    0 -0.39894806915E+02  0.23887194736E+02 -0.34245767793E+03  0.36754178397E+03  0.12509000000E+03 0.  0.
         25    1    3    3    0    0  0.32114092807E+02  0.10921297158E+02 -0.81548125961E+02  0.15312803348E+03  0.12509000000E+03 0.  0.
         25    1    4    4    0    0  0.77807141082E+01 -0.34808491895E+02 -0.41167635504E+03  0.43173730441E+03  0.12509000000E+03 0.  0.
<mgrwt>
<rscale>  2 0.45685299E+03</rscale>
<asrwt>0</asrwt>
<pdfrwt beam="1">  1       21 0.85827181E-02 0.45685299E+03</pdfrwt>
<pdfrwt beam="2">  1       21 0.13147715E+00 0.45685299E+03</pdfrwt>
<totfact> 0.40454141E+04</totfact>
</mgrwt>
</event>
<event>
 7    0  0.4709932E-002  0.4553140E+03  0.7546771E-02  0.1026149E+00
         21   -1    0    0  502  501  0.00000000000E+00  0.00000000000E+00  0.90629009456E+02  0.90629009456E+02  0.00000000000E+00 0.  1.
         21   -1    0    0  501  502 -0.00000000000E+00 -0.00000000000E+00 -0.57186666134E+03  0.57186666134E+03  0.00000000000E+00 0.  1.
      99926    2    1    2    0    0  0.00000000000E+00  0.00000000000E+00 -0.48123765188E+03  0.66249567079E+03  0.45531399740E+03 0.  0.
      99925    2    3    3    0    0 -0.56792283392E+02  0.27856919614E+02 -0.16551758962E+03  0.31705676558E+03  0.26292118344E+03 0.  0.
         25    1    4    4    0    0 -0.15788098716E+00 -0.79543865278E+01 -0.10192292075E+03  0.16155211873E+03  0.12509000000E+03 0.  0.
         25    1    3    3    0    0  0.56792283392E+02 -0.27856919614E+02 -0.31572006226E+03  0.34543890521E+03  0.12509000000E+03 0.  0.
         25    1    4    4    0    0 -0.56634402405E+02  0.35811306142E+02 -0.63594668878E+02  0.15550464685E+03  0.12509000000E+03 0.  0.
<mgrwt>
<rscale>  2 0.45531400E+03</rscale>
<asrwt>0</asrwt>
<pdfrwt beam="1">  1       21 0.13327796E-01 0.45531400E+03</pdfrwt>
<pdfrwt beam="2">  1       21 0.84098036E-01 0.45531400E+03</pdfrwt>
<totfact> 0.54850676E+04</totfact>
</mgrwt>
</event>
<event>
 7    0  0.4709932E-002  0.4547779E+03  0.7546771E-02  0.1026307E+00
         21   -1    0    0  502  501  0.00000000000E+00  0.00000000000E+00  0.56515966183E+02  0.56515966183E+02  0.00000000000E+00 0.  1.
         21   -1    0    0  501  502 -0.00000000000E+00 -0.00000000000E+00 -0.91488703426E+03  0.91488703426E+03  0.00000000000E+00 0.  1.
      99926    2    1    2    0    0  0.71054273576E-14  0.00000000000E+00 -0.85837106808E+03  0.97140300045E+03  0.45477785650E+03 0.  0.
      99925    2    3    3    0    0  0.48811695266E+02  0.43046177727E+02 -0.73743071608E+03  0.78563531797E+03  0.26302706478E+03 0.  0.
         25    1    4    4    0    0  0.49346179748E+02  0.43733913619E+02 -0.31968384646E+03  0.34956111117E+03  0.12509000000E+03 0.  0.
         25    1    4    4    0    0 -0.53448448210E+00 -0.68773589176E+00 -0.41774686963E+03  0.43607420680E+03  0.12509000000E+03 0.  0.
         25    1    3    3    0    0 -0.48811695266E+02 -0.43046177727E+02 -0.12094035200E+03  0.18576768248E+03  0.12509000000E+03 0.  0.
<mgrwt>
<rscale>  2 0.45477786E+03</rscale>
<asrwt>0</asrwt>
<pdfrwt beam="1">  1       21 0.83111717E-02 0.45477786E+03</pdfrwt>
<pdfrwt beam="2">  1       21 0.13454221E+00 0.45477786E+03</pdfrwt>
<totfact> 0.40356118E+04</totfact>
</mgrwt>
</event>
<event>
 7    0  0.4709932E-002  0.4537029E+03  0.7546771E-02  0.1026624E+00
         21   -1    0    0  502  501  0.00000000000E+00  0.00000000000E+00  0.32812701445E+02  0.32812701445E+02  0.00000000000E+00 0. -1.
         21   -1    0    0  501  502 -0.00000000000E+00 -0.00000000000E+00 -0.15683430819E+04  0.15683430819E+04  0.00000000000E+00 0. -1.
      99926    2    1    2    0    0 -0.17763568394E-14  0.35527136788E-14 -0.15355303804E+04  0.16011557833E+04  0.45370286888E+03 0.  0.
      99925    2    3    3    0    0  0.13747302113E+02 -0.25405544964E+02 -0.58513819444E+03  0.64213167241E+03  0.26289151390E+03 0.  0.
         25    1    4    4    0    0 -0.20405707523E+02 -0.41208828304E+02 -0.27439865871E+03  0.30505195038E+03  0.12509000000E+03 0.  0.
         25    1    4    4    0    0  0.34153009635E+02  0.15803283340E+02 -0.31073953574E+03  0.33707972203E+03  0.12509000000E+03 0.  0.
         25    1    3    3    0    0 -0.13747302113E+02  0.25405544964E+02 -0.95039218597E+03  0.95902411089E+03  0.12509000000E+03 0.  0.
<mgrwt>
<rscale>  2 0.45370287E+03</rscale>
<asrwt>0</asrwt>
<pdfrwt beam="1">  1       21 0.48253982E-02 0.45370287E+03</pdfrwt>
<pdfrwt beam="2">  1       21 0.23063864E+00 0.45370287E+03</pdfrwt>
<totfact> 0.21620635E+04</totfact>
</mgrwt>
</event>
<event>
 7    0  0.4709932E-002  0.4544644E+03  0.7546771E-02  0.1026399E+00
         21   -1    0    0  502  501  0.00000000000E+00  0.00000000000E+00  0.69597057627E+03  0.69597057627E+03  0.00000000000E+00 0. -1.
         21   -1    0    0  501  502 -0.00000000000E+00 -0.00000000000E+00 -0.74190588309E+02  0.74190588309E+02  0.00000000000E+00 0. -1.
      99926    2    1    2    0    0  0.00000000000E+00  0.71054273576E-14  0.62177998796E+03  0.77016116458E+03  0.45446437264E+03 0.  0.
      99925    2    3    3    0    0  0.31735605228E+02 -0.34438376000E+02  0.56499649440E+03  0.62502321771E+03  0.26313463020E+03 0.  0.
         25    1    4    4    0    0  0.39117426189E+02  0.16146199106E+02  0.27148146551E+03  0.30189496019E+03  0.12509000000E+03 0.  0.
         25    1    4    4    0    0 -0.73818209613E+01 -0.50584575106E+02  0.29351502889E+03  0.32312825752E+03  0.12509000000E+03 0.  0.
         25    1    3    3    0    0 -0.31735605228E+02  0.34438376000E+02  0.56783493564E+02  0.14513794687E+03  0.12509000000E+03 0.  0.
<mgrwt>
<rscale>  2 0.45446437E+03</rscale>
<asrwt>0</asrwt>
<pdfrwt beam="1">  1       21 0.10234861E+00 0.45446437E+03</pdfrwt>
<pdfrwt beam="2">  1       21 0.10910381E-01 0.45446437E+03</pdfrwt>
<totfact> 0.49449487E+04</totfact>
</mgrwt>
</event>
<event>
 7    0  0.4709932E-002  0.4527726E+03  0.7546771E-02  0.1026898E+00
         21   -1    0    0  502  501  0.00000000000E+00  0.00000000000E+00  0.31452719735E+03  0.31452719735E+03  0.00000000000E+00 0. -1.
         21   -1    0    0  501  502 -0.00000000000E+00 -0.00000000000E+00 -0.16294538059E+03  0.16294538059E+03  0.00000000000E+00 0. -1.
      99926    2    1    2    0    0  0.00000000000E+00  0.00000000000E+00  0.15158181676E+03  0.47747257793E+03  0.45277258696E+03 0.  0.
      99925    2    3    3    0    0  0.46145768116E+02  0.22512399720E+02  0.19939707228E+03  0.33404996181E+03  0.26304741872E+03 0.  0.
         25    1    3    3    0    0 -0.46145768116E+02 -0.22512399720E+02 -0.47815255520E+02  0.14342261613E+03  0.12509000000E+03 0.  0.
         25    1    4    4    0    0  0.27679632174E+02 -0.16840859665E+02  0.13471635430E+03  0.18667024618E+03  0.12509000000E+03 0.  0.
         25    1    4    4    0    0  0.18466135942E+02  0.39353259385E+02  0.64680717981E+02  0.14737971563E+03  0.12509000000E+03 0.  0.
<mgrwt>
<rscale>  2 0.45277259E+03</rscale>
<asrwt>0</asrwt>
<pdfrwt beam="1">  1       21 0.46254000E-01 0.45277259E+03</pdfrwt>
<pdfrwt beam="2">  1       21 0.23962556E-01 0.45277259E+03</pdfrwt>
<totfact> 0.68080204E+04</totfact>
</mgrwt>
</event>
<event>
 7    0  0.4709932E-002  0.4618689E+03  0.7546771E-02  0.1024241E+00
         21   -1    0    0  502  501  0.00000000000E+00  0.00000000000E+00  0.67325998649E+03  0.67325998649E+03  0.00000000000E+00 0.  1.
         21   -1    0    0  501  502 -0.00000000000E+00 -0.00000000000E+00 -0.79212673255E+02  0.79212673255E+02  0.00000000000E+00 0.  1.
      99926    2    1    2    0    0  0.00000000000E+00  0.00000000000E+00  0.59404731323E+03  0.75247265974E+03  0.46186891355E+03 0.  0.
      99925    2    3    3    0    0 -0.60870034529E+02  0.53590340649E+02  0.22852193856E+03  0.35771527432E+03  0.26298451545E+03 0.  0.
         25    1    3    3    0    0  0.60870034529E+02 -0.53590340649E+02  0.36552537468E+03  0.39475738542E+03  0.12509000000E+03 0.  0.
         25    1    4    4    0    0 -0.54940641512E+02  0.60559197587E+02  0.11540065752E+03  0.18881395700E+03  0.12509000000E+03 0.  0.
         25    1    4    4    0    0 -0.59293930169E+01 -0.69688569379E+01  0.11312128104E+03  0.16890131732E+03  0.12509000000E+03 0.  0.
<mgrwt>
<rscale>  2 0.46186891E+03</rscale>
<asrwt>0</asrwt>
<pdfrwt beam="1">  1       21 0.99008818E-01 0.46186891E+03</pdfrwt>
<pdfrwt beam="2">  1       21 0.11648923E-01 0.46186891E+03</pdfrwt>
<totfact> 0.47526823E+04</totfact>
</mgrwt>
</event>
<event>
 7    0  0.4709932E-002  0.4574450E+03  0.7546771E-02  0.1025525E+00
         21   -1    0    0  502  501  0.00000000000E+00  0.00000000000E+00  0.70734753597E+03  0.70734753597E+03  0.00000000000E+00 0. -1.
         21   -1    0    0  501  502 -0.00000000000E+00 -0.00000000000E+00 -0.73957972705E+02  0.73957972705E+02  0.00000000000E+00 0. -1.
      99926    2    1    2    0    0  0.00000000000E+00  0.00000000000E+00  0.63338956326E+03  0.78130550867E+03  0.45744503389E+03 0.  0.
      99925    2    3    3    0    0  0.94268560768E+02 -0.65051475818E+02  0.42246822135E+03  0.51065152915E+03  0.26299682530E+03 0.  0.
         25    1    4    4    0    0  0.78364112686E+02 -0.27931499585E+02  0.27300924860E+03  0.31161299836E+03  0.12509000000E+03 0.  0.
         25    1    3    3    0    0 -0.94268560768E+02  0.65051475818E+02  0.21092134191E+03  0.27065397952E+03  0.12509000000E+03 0.  0.
         25    1    4    4    0    0  0.15904448082E+02 -0.37119976233E+02  0.14945897275E+03  0.19903853079E+03  0.12509000000E+03 0.  0.
<mgrwt>
<rscale>  2 0.45744503E+03</rscale>
<asrwt>0</asrwt>
<pdfrwt beam="1">  1       21 0.10402169E+00 0.45744503E+03</pdfrwt>
<pdfrwt beam="2">  1       21 0.10876173E-01 0.45744503E+03</pdfrwt>
<totfact> 0.47759198E+04</totfact>
</mgrwt>
</event>
<event>
 7    0  0.4709932E-002  0.4620978E+03  0.7546771E-02  0.1024175E+00
         21   -1    0    0  502  501  0.00000000000E+00  0.00000000000E+00  0.61070715544E+03  0.61070715544E+03  0.00000000000E+00 0.  1.
         21   -1    0    0  501  502 -0.00000000000E+00 -0.00000000000E+00 -0.87412756832E+02  0.87412756832E+02  0.00000000000E+00 0.  1.
      99926    2    1    2    0    0  0.11102230246E-15 -0.71054273576E-14  0.52329439860E+03  0.69811991227E+03  0.46209780815E+03 0.  0.
      99925    2    3    3    0    0  0.66224516990E+00 -0.50492265582E+02  0.49122519050E+03  0.55946260211E+03  0.26295685562E+03 0.  0.
         25    1    4    4    0    0 -0.21099410039E+02 -0.60082205453E+02  0.26373273466E+03  0.29875997045E+03  0.12509000000E+03 0.  0.
         25    1    4    4    0    0  0.21761655209E+02  0.95899398711E+01  0.22749245585E+03  0.26070263166E+03  0.12509000000E+03 0.  0.
         25    1    3    3    0    0 -0.66224516990E+00  0.50492265582E+02  0.32069208100E+02  0.13865731016E+03  0.12509000000E+03 0.  0.
<mgrwt>
<rscale>  2 0.46209781E+03</rscale>
<asrwt>0</asrwt>
<pdfrwt beam="1">  1       21 0.89809874E-01 0.46209781E+03</pdfrwt>
<pdfrwt beam="2">  1       21 0.12854817E-01 0.46209781E+03</pdfrwt>
<totfact> 0.50144682E+04</totfact>
</mgrwt>
</event>
<event>
 7    0  0.4709932E-002  0.4524047E+03  0.7546771E-02  0.1027007E+00
         21   -1    0    0  502  501  0.00000000000E+00  0.00000000000E+00  0.56121952056E+02  0.56121952056E+02  0.00000000000E+00 0. -1.
         21   -1    0    0  501  502 -0.00000000000E+00 -0.00000000000E+00 -0.91171981116E+03  0.91171981116E+03  0.00000000000E+00 0. -1.
      99926    2    1    2    0    0  0.00000000000E+00  0.00000000000E+00 -0.85559785910E+03  0.96784176322E+03  0.45240466634E+03 0.  0.
      99925    2    3    3    0    0 -0.45716290753E+02 -0.99012595699E+02 -0.58038928501E+03  0.64646855229E+03  0.26301405589E+03 0.  0.
         25    1    4    4    0    0 -0.35770600076E+02 -0.87155981266E+02 -0.28228662814E+03  0.32281410971E+03  0.12509000000E+03 0.  0.
         25    1    3    3    0    0  0.45716290753E+02  0.99012595699E+02 -0.27520857409E+03  0.32137321093E+03  0.12509000000E+03 0.  0.
         25    1    4    4    0    0 -0.99456906765E+01 -0.11856614433E+02 -0.29810265687E+03  0.32365444258E+03  0.12509000000E+03 0.  0.
<mgrwt>
<rscale>  2 0.45240467E+03</rscale>
<asrwt>0</asrwt>
<pdfrwt beam="1">  1       21 0.82532283E-02 0.45240467E+03</pdfrwt>
<pdfrwt beam="2">  1       21 0.13407644E+00 0.45240467E+03</pdfrwt>
<totfact> 0.41257486E+04</totfact>
</mgrwt>
</event>
<event>
 7    0  0.4709932E-002  0.4521727E+03  0.7546771E-02  0.1027076E+00
         21   -1    0    0  502  501  0.00000000000E+00  0.00000000000E+00  0.34314369505E+02  0.34314369505E+02  0.00000000000E+00 0.  1.
         21   -1    0    0  501  502 -0.00000000000E+00 -0.00000000000E+00 -0.14896101943E+04  0.14896101943E+04  0.00000000000E+00 0.  1.
      99926    2    1    2    0    0  0.00000000000E+00  0.00000000000E+00 -0.14552958248E+04  0.15239245638E+04  0.45217268659E+03 0.  0.
      99925    2    3    3    0    0  0.10599132070E+03  0.31382579472E+02 -0.92710559987E+03  0.96998282665E+03  0.26291227496E+03 0.  0.
         25    1    4    4    0    0  0.31130172651E+02  0.27465749539E+02 -0.33045811148E+03  0.35577173382E+03  0.12509000000E+03 0.  0.
         25    1    3    3    0    0 -0.10599132070E+03 -0.31382579472E+02 -0.52819022491E+03  0.55394173714E+03  0.12509000000E+03 0.  0.
         25    1    4    4    0    0  0.74861148046E+02  0.39168299329E+01 -0.59664748840E+03  0.61421109283E+03  0.12509000000E+03 0.  0.
<mgrwt>
<rscale>  2 0.45217269E+03</rscale>
<asrwt>0</asrwt>
<pdfrwt beam="1">  1       21 0.50462326E-02 0.45217269E+03</pdfrwt>
<pdfrwt beam="2">  1       21 0.21906024E+00 0.45217269E+03</pdfrwt>
<totfact> 0.23715338E+04</totfact>
</mgrwt>
</event>
<event>
 7    0  0.4709932E-002  0.4541272E+03  0.7546771E-02  0.1026498E+00
         21   -1    0    0  502  501  0.00000000000E+00  0.00000000000E+00  0.14226982190E+03  0.14226982190E+03  0.00000000000E+00 0.  1.
         21   -1    0    0  501  502 -0.00000000000E+00 -0.00000000000E+00 -0.36239506130E+03  0.36239506130E+03  0.00000000000E+00 0.  1.
      99926    2    1    2    0    0  0.00000000000E+00  0.00000000000E+00 -0.22012523940E+03  0.50466488319E+03  0.45412721049E+03 0.  0.
      99925    2    3    3    0    0 -0.18169197869E+02  0.10757067251E+03 -0.10875679030E+03  0.30478489697E+03  0.26299092123E+03 0.  0.
         25    1    3    3    0    0  0.18169197869E+02 -0.10757067251E+03 -0.11136844911E+03  0.19987998622E+03  0.12509000000E+03 0.  0.
         25    1    4    4    0    0 -0.12088384081E+02  0.23538614552E+02 -0.81220600781E+02  0.15147438561E+03  0.12509000000E+03 0.  0.
         25    1    4    4    0    0 -0.60808137882E+01  0.84032057957E+02 -0.27536189515E+02  0.15331051136E+03  0.12509000000E+03 0.  0.
<mgrwt>
<rscale>  2 0.45412721E+03</rscale>
<asrwt>0</asrwt>
<pdfrwt beam="1">  1       21 0.20922033E-01 0.45412721E+03</pdfrwt>
<pdfrwt beam="2">  1       21 0.53293391E-01 0.45412721E+03</pdfrwt>
<totfact> 0.65396029E+04</totfact>
</mgrwt>
</event>
<event>
 7    0  0.4709932E-002  0.4497496E+03  0.7546771E-02  0.1027797E+00
         21   -1    0    0  502  501  0.00000000000E+00  0.00000000000E+00  0.23361851588E+03  0.23361851588E+03  0.00000000000E+00 0. -1.
         21   -1    0    0  501  502 -0.00000000000E+00 -0.00000000000E+00 -0.21645836549E+03  0.21645836549E+03  0.00000000000E+00 0. -1.
      99926    2    1    2    0    0 -0.35527136788E-14  0.14210854715E-13  0.17160150392E+02  0.45007688137E+03  0.44974962855E+03 0.  0.
      99925    2    3    3    0    0  0.28588538639E+02 -0.78910157585E+02  0.78600754564E+02  0.28739137663E+03  0.26338490320E+03 0.  0.
         25    1    4    4    0    0  0.10475137601E+02 -0.36115837218E+00  0.18433603393E+02  0.12687460257E+03  0.12509000000E+03 0.  0.
         25    1    3    3    0    0 -0.28588538639E+02  0.78910157585E+02 -0.61440604172E+02  0.16268550474E+03  0.12509000000E+03 0.  0.
         25    1    4    4    0    0  0.18113401038E+02 -0.78548999213E+02  0.60167151172E+02  0.16051677406E+03  0.12509000000E+03 0.  0.
<mgrwt>
<rscale>  2 0.44974963E+03</rscale>
<asrwt>0</asrwt>
<pdfrwt beam="1">  1       21 0.34355664E-01 0.44974963E+03</pdfrwt>
<pdfrwt beam="2">  1       21 0.31832112E-01 0.44974963E+03</pdfrwt>
<totfact> 0.71872003E+04</totfact>
</mgrwt>
</event>
<event>
 7    0  0.4709932E-002  0.4548026E+03  0.7546771E-02  0.1026299E+00
         21   -1    0    0  502  501  0.00000000000E+00  0.00000000000E+00  0.80595629487E+03  0.80595629487E+03  0.00000000000E+00 0. -1.
         21   -1    0    0  501  502 -0.00000000000E+00 -0.00000000000E+00 -0.64161476335E+02  0.64161476335E+02  0.00000000000E+00 0. -1.
      99926    2    1    2    0    0  0.00000000000E+00  0.14210854715E-13  0.74179481854E+03  0.87011777121E+03  0.45480257581E+03 0.  0.
      99925    2    3    3    0    0 -0.76467210876E+01  0.11217968336E+03  0.46639418062E+03  0.54741702257E+03  0.26362684079E+03 0.  0.
         25    1    4    4    0    0 -0.13136207034E+02  0.13276105836E+02  0.18923917034E+03  0.22761323909E+03  0.12509000000E+03 0.  0.
         25    1    4    4    0    0  0.54894859460E+01  0.98903577526E+02  0.27715501028E+03  0.31980378348E+03  0.12509000000E+03 0.  0.
         25    1    3    3    0    0  0.76467210876E+01 -0.11217968336E+03  0.27540063792E+03  0.32270074863E+03  0.12509000000E+03 0.  0.
<mgrwt>
<rscale>  2 0.45480258E+03</rscale>
<asrwt>0</asrwt>
<pdfrwt beam="1">  1       21 0.11852298E+00 0.45480258E+03</pdfrwt>
<pdfrwt beam="2">  1       21 0.94355117E-02 0.45480258E+03</pdfrwt>
<totfact> 0.44619886E+04</totfact>
</mgrwt>
</event>
<event>
 7    0  0.4709932E-002  0.4555314E+03  0.7546771E-02  0.1026085E+00
         21   -1    0    0  502  501  0.00000000000E+00  0.00000000000E+00  0.14637916821E+03  0.14637916821E+03  0.00000000000E+00 0.  1.
         21   -1    0    0  501  502 -0.00000000000E+00 -0.00000000000E+00 -0.35440294213E+03  0.35440294213E+03  0.00000000000E+00 0.  1.
      99926    2    1    2    0    0  0.00000000000E+00  0.14210854715E-13 -0.20802377392E+03  0.50078211033E+03  0.45553137270E+03 0.  0.
      99925    2    3    3    0    0 -0.56360448716E+02  0.75051975714E+02 -0.20112632113E+03  0.34424335413E+03  0.26313948882E+03 0.  0.
         25    1    3    3    0    0  0.56360448716E+02 -0.75051975714E+02 -0.68974527892E+01  0.15653875620E+03  0.12509000000E+03 0.  0.
         25    1    4    4    0    0 -0.29632098171E+02  0.10026607048E+02 -0.13353586327E+03  0.18562847026E+03  0.12509000000E+03 0.  0.
         25    1    4    4    0    0 -0.26728350545E+02  0.65025368665E+02 -0.67590457865E+02  0.15861488388E+03  0.12509000000E+03 0.  0.
<mgrwt>
<rscale>  2 0.45553137E+03</rscale>
<asrwt>0</asrwt>
<pdfrwt beam="1">  1       21 0.21526349E-01 0.45553137E+03</pdfrwt>
<pdfrwt beam="2">  1       21 0.52118079E-01 0.45553137E+03</pdfrwt>
<totfact> 0.64941394E+04</totfact>
</mgrwt>
</event>
<event>
 7    0  0.4709932E-002  0.4540702E+03  0.7546771E-02  0.1026515E+00
         21   -1    0    0  502  501  0.00000000000E+00  0.00000000000E+00  0.48311366331E+03  0.48311366331E+03  0.00000000000E+00 0.  1.
         21   -1    0    0  501  502 -0.00000000000E+00 -0.00000000000E+00 -0.10669319970E+03  0.10669319970E+03  0.00000000000E+00 0.  1.
      99926    2    1    2    0    0  0.00000000000E+00  0.00000000000E+00  0.37642046362E+03  0.58980686301E+03  0.45407022609E+03 0.  0.
      99925    2    3    3    0    0 -0.86546058697E+02  0.71723181281E+02  0.23222079176E+03  0.36827698134E+03  0.26280601943E+03 0.  0.
         25    1    3    3    0    0  0.86546058697E+02 -0.71723181281E+02  0.14419967186E+03  0.22152988167E+03  0.12509000000E+03 0.  0.
         25    1    4    4    0    0 -0.41912889522E+02  0.77080506635E+02  0.12949405148E+03  0.20028557681E+03  0.12509000000E+03 0.  0.
         25    1    4    4    0    0 -0.44633169175E+02 -0.53573253535E+01  0.10272674028E+03  0.16799140452E+03  0.12509000000E+03 0.  0.
<mgrwt>
<rscale>  2 0.45407023E+03</rscale>
<asrwt>0</asrwt>
<pdfrwt beam="1">  1       21 0.71046126E-01 0.45407023E+03</pdfrwt>
<pdfrwt beam="2">  1       21 0.15690177E-01 0.45407023E+03</pdfrwt>
<totfact> 0.59747956E+04</totfact>
</mgrwt>
</event>
<event>
 7    0  0.4709932E-002  0.4038041E+03  0.7546771E-02  0.1042470E+00
         21   -1    0    0  502  501  0.00000000000E+00  0.00000000000E+00  0.56427151313E+02  0.56427151313E+02  0.00000000000E+00 0.  1.
         21   -1    0    0  501  502 -0.00000000000E+00 -0.00000000000E+00 -0.72242603478E+03  0.72242603478E+03  0.00000000000E+00 0.  1.
      99926    2    1    2    0    0  0.00000000000E+00 -0.71054273576E-14 -0.66599888346E+03  0.77885318609E+03  0.40380412666E+03 0.  0.
      99925    2    3    3    0    0  0.15670791404E+02 -0.45638265238E+02 -0.48088928856E+03  0.55028920121E+03  0.26312596254E+03 0.  0.
         25    1    4    4    0    0  0.31939659742E+01 -0.49535118583E+02 -0.31136415934E+03  0.33920359257E+03  0.12509000000E+03 0.  0.
         25    1    4    4    0    0  0.12476825430E+02  0.38968533456E+01 -0.16952512922E+03  0.21108560864E+03  0.12509000000E+03 0.  0.
         25    1    3    3    0    0 -0.15670791404E+02  0.45638265238E+02 -0.18510959491E+03  0.22856398488E+03  0.12509000000E+03 0.  0.
<mgrwt>
<rscale>  2 0.40380413E+03</rscale>
<asrwt>0</asrwt>
<pdfrwt beam="1">  1       21 0.82981112E-02 0.40380413E+03</pdfrwt>
<pdfrwt beam="2">  1       21 0.10623911E+00 0.40380413E+03</pdfrwt>
<totfact> 0.74542930E+04</totfact>
</mgrwt>
</event>
<event>
 7    0  0.4709932E-002  0.4598209E+03  0.7546771E-02  0.1024833E+00
         21   -1    0    0  502  501  0.00000000000E+00  0.00000000000E+00  0.24645626240E+03  0.24645626240E+03  0.00000000000E+00 0.  1.
         21   -1    0    0  501  502 -0.00000000000E+00 -0.00000000000E+00 -0.21447545171E+03  0.21447545171E+03  0.00000000000E+00 0.  1.
      99926    2    1    2    0    0  0.00000000000E+00  0.00000000000E+00  0.31980810689E+02  0.46093171411E+03  0.45982091386E+03 0.  0.
      99925    2    3    3    0    0  0.68088442847E+02  0.19451740393E+02 -0.74494792136E+02  0.28204915948E+03  0.26265537888E+03 0.  0.
         25    1    4    4    0    0 -0.37151842996E+01  0.18953754051E+02 -0.48190859731E+02  0.13543601607E+03  0.12509000000E+03 0.  0.
         25    1    3    3    0    0 -0.68088442847E+02 -0.19451740393E+02  0.10647560283E+03  0.17888255463E+03  0.12509000000E+03 0.  0.
         25    1    4    4    0    0  0.71803627146E+02  0.49798634169E+00 -0.26303932405E+02  0.14661314341E+03  0.12509000000E+03 0.  0.
<mgrwt>
<rscale>  2 0.45982091E+03</rscale>
<asrwt>0</asrwt>
<pdfrwt beam="1">  1       21 0.36243568E-01 0.45982091E+03</pdfrwt>
<pdfrwt beam="2">  1       21 0.31540508E-01 0.45982091E+03</pdfrwt>
<totfact> 0.65555339E+04</totfact>
</mgrwt>
</event>
<event>
 7    0  0.4709932E-002  0.4591928E+03  0.7546771E-02  0.1025016E+00
         21   -1    0    0  502  501  0.00000000000E+00  0.00000000000E+00  0.21119674959E+03  0.21119674959E+03  0.00000000000E+00 0.  1.
         21   -1    0    0  501  502 -0.00000000000E+00 -0.00000000000E+00 -0.24959906789E+03  0.24959906789E+03  0.00000000000E+00 0.  1.
      99926    2    1    2    0    0  0.00000000000E+00  0.00000000000E+00 -0.38402318304E+02  0.46079581748E+03  0.45919282155E+03 0.  0.
      99925    2    3    3    0    0 -0.10247734284E+03 -0.47131115845E+02  0.69869922470E+01  0.28635199991E+03  0.26310777624E+03 0.  0.
         25    1    4    4    0    0 -0.31476870571E+02  0.13697750822E+02 -0.42014087093E+01  0.12978282511E+03  0.12509000000E+03 0.  0.
         25    1    3    3    0    0  0.10247734284E+03  0.47131115845E+02 -0.45389310551E+02  0.17444381757E+03  0.12509000000E+03 0.  0.
         25    1    4    4    0    0 -0.71000472269E+02 -0.60828866667E+02  0.11188400956E+02  0.15656917480E+03  0.12509000000E+03 0.  0.
<mgrwt>
<rscale>  2 0.45919282E+03</rscale>
<asrwt>0</asrwt>
<pdfrwt beam="1">  1       21 0.31058346E-01 0.45919282E+03</pdfrwt>
<pdfrwt beam="2">  1       21 0.36705745E-01 0.45919282E+03</pdfrwt>
<totfact> 0.65891276E+04</totfact>
</mgrwt>
</event>
<event>
 7    0  0.4709932E-002  0.4635175E+03  0.7546771E-02  0.1023766E+00
         21   -1    0    0  502  501  0.00000000000E+00  0.00000000000E+00  0.44324213194E+03  0.44324213194E+03  0.00000000000E+00 0.  1.
         21   -1    0    0  501  502 -0.00000000000E+00 -0.00000000000E+00 -0.12118008710E+03  0.12118008710E+03  0.00000000000E+00 0.  1.
      99926    2    1    2    0    0  0.00000000000E+00 -0.17763568394E-14  0.32206204484E+03  0.56442221905E+03  0.46351750844E+03 0.  0.
      99925    2    3    3    0    0  0.34897958731E+02  0.14010394580E+02  0.61032054679E+02  0.27253470211E+03  0.26293743263E+03 0.  0.
         25    1    4    4    0    0  0.50013633282E+02 -0.76477264986E+01  0.11488056477E+02  0.13542280006E+03  0.12509000000E+03 0.  0.
         25    1    3    3    0    0 -0.34897958731E+02 -0.14010394580E+02  0.26102999016E+03  0.29188751694E+03  0.12509000000E+03 0.  0.
         25    1    4    4    0    0 -0.15115674551E+02  0.21658121079E+02  0.49543998201E+02  0.13711190205E+03  0.12509000000E+03 0.  0.
<mgrwt>
<rscale>  2 0.46351751E+03</rscale>
<asrwt>0</asrwt>
<pdfrwt beam="1">  1       21 0.65182666E-01 0.46351751E+03</pdfrwt>
<pdfrwt beam="2">  1       21 0.17820601E-01 0.46351751E+03</pdfrwt>
<totfact> 0.56986328E+04</totfact>
</mgrwt>
</event>
<event>
 7    0  0.4709932E-002  0.4560988E+03  0.7546771E-02  0.1025919E+00
         21   -1    0    0  502  501  0.00000000000E+00  0.00000000000E+00  0.97963923350E+03  0.97963923350E+03  0.00000000000E+00 0.  1.
         21   -1    0    0  501  502 -0.00000000000E+00 -0.00000000000E+00 -0.53087425744E+02  0.53087425744E+02  0.00000000000E+00 0.  1.
      99926    2    1    2    0    0  0.00000000000E+00  0.00000000000E+00  0.92655180775E+03  0.10327266592E+04  0.45609878344E+03 0.  0.
      99925    2    3    3    0    0 -0.95796977792E+01  0.64410609542E+02  0.79486032469E+03  0.83977419866E+03  0.26301572528E+03 0.  0.
         25    1    3    3    0    0  0.95796977792E+01 -0.64410609542E+02  0.13169148307E+03  0.19295246058E+03  0.12509000000E+03 0.  0.
         25    1    4    4    0    0 -0.15480422822E+02 -0.76444030204E+01  0.38692567999E+03  0.40700991428E+03  0.12509000000E+03 0.  0.
         25    1    4    4    0    0  0.59007250426E+01  0.72055012562E+02  0.40793464470E+03  0.43276428438E+03  0.12509000000E+03 0.  0.
<mgrwt>
<rscale>  2 0.45609878E+03</rscale>
<asrwt>0</asrwt>
<pdfrwt beam="1">  1       21 0.14406458E+00 0.45609878E+03</pdfrwt>
<pdfrwt beam="2">  1       21 0.78069750E-02 0.45609878E+03</pdfrwt>
<totfact> 0.37594149E+04</totfact>
</mgrwt>
</event>
<event>
 7    0  0.4709932E-002  0.4538740E+03  0.7546771E-02  0.1026573E+00
         21   -1    0    0  502  501  0.00000000000E+00  0.00000000000E+00  0.84897652094E+02  0.84897652094E+02  0.00000000000E+00 0.  1.
         21   -1    0    0  501  502 -0.00000000000E+00 -0.00000000000E+00 -0.60661737455E+03  0.60661737455E+03  0.00000000000E+00 0.  1.
      99926    2    1    2    0    0  0.00000000000E+00  0.00000000000E+00 -0.52171972246E+03  0.69151502664E+03  0.45387395087E+03 0.  0.
      99925    2    3    3    0    0  0.73045222447E+02 -0.80113390455E+02 -0.37206991702E+03  0.46836410861E+03  0.26301170170E+03 0.  0.
         25    1    4    4    0    0  0.42529703644E+02 -0.76311749678E+02 -0.23569980022E+03  0.28077422025E+03  0.12509000000E+03 0.  0.
         25    1    4    4    0    0  0.30515518803E+02 -0.38016407763E+01 -0.13637011680E+03  0.18758988836E+03  0.12509000000E+03 0.  0.
         25    1    3    3    0    0 -0.73045222447E+02  0.80113390455E+02 -0.14964980543E+03  0.22315091803E+03  0.12509000000E+03 0.  0.
<mgrwt>
<rscale>  2 0.45387395E+03</rscale>
<asrwt>0</asrwt>
<pdfrwt beam="1">  1       21 0.12484949E-01 0.45387395E+03</pdfrwt>
<pdfrwt beam="2">  1       21 0.89208439E-01 0.45387395E+03</pdfrwt>
<totfact> 0.53841797E+04</totfact>
</mgrwt>
</event>
<event>
 7    0  0.4709932E-002  0.4533950E+03  0.7546771E-02  0.1026714E+00
         21   -1    0    0  502  501  0.00000000000E+00  0.00000000000E+00  0.26996815260E+03  0.26996815260E+03  0.00000000000E+00 0. -1.
         21   -1    0    0  501  502 -0.00000000000E+00 -0.00000000000E+00 -0.19036230577E+03  0.19036230577E+03  0.00000000000E+00 0. -1.
      99926    2    1    2    0    0 -0.14210854715E-13 -0.71054273576E-14  0.79605846834E+02  0.46033045836E+03  0.45339501546E+03 0.  0.
      99925    2    3    3    0    0  0.10210036740E+03  0.36106227937E+02  0.77619610098E+02  0.29486264290E+03  0.26304187801E+03 0.  0.
         25    1    4    4    0    0  0.79637181595E+02  0.37002313942E+02  0.68373550018E+02  0.16743268012E+03  0.12509000000E+03 0.  0.
         25    1    3    3    0    0 -0.10210036740E+03 -0.36106227937E+02  0.19862367364E+01  0.16546781547E+03  0.12509000000E+03 0.  0.
         25    1    4    4    0    0  0.22463185806E+02 -0.89608600537E+00  0.92460600798E+01  0.12742996278E+03  0.12509000000E+03 0.  0.
<mgrwt>
<rscale>  2 0.45339502E+03</rscale>
<asrwt>0</asrwt>
<pdfrwt beam="1">  1       21 0.39701199E-01 0.45339502E+03</pdfrwt>
<pdfrwt beam="2">  1       21 0.27994456E-01 0.45339502E+03</pdfrwt>
<totfact> 0.69034730E+04</totfact>
</mgrwt>
</event>
<event>
 7    0  0.4709932E-002  0.4569775E+03  0.7546771E-02  0.1025661E+00
         21   -1    0    0  502  501  0.00000000000E+00  0.00000000000E+00  0.98641928594E+03  0.98641928594E+03  0.00000000000E+00 0.  1.
         21   -1    0    0  501  502 -0.00000000000E+00 -0.00000000000E+00 -0.52925886206E+02  0.52925886206E+02  0.00000000000E+00 0.  1.
      99926    2    1    2    0    0  0.00000000000E+00  0.00000000000E+00  0.93349339973E+03  0.10393451721E+04  0.45697752627E+03 0.  0.
      99925    2    3    3    0    0  0.81611819717E+01  0.97453339683E+02  0.72410260248E+03  0.77656052195E+03  0.26297890984E+03 0.  0.
         25    1    4    4    0    0 -0.20192254607E+02  0.49163587476E+02  0.45043080637E+03  0.47048932497E+03  0.12509000000E+03 0.  0.
         25    1    4    4    0    0  0.28353436579E+02  0.48289752207E+02  0.27367179611E+03  0.30607119698E+03  0.12509000000E+03 0.  0.
         25    1    3    3    0    0 -0.81611819717E+01 -0.97453339683E+02  0.20939079725E+03  0.26278465020E+03  0.12509000000E+03 0.  0.
<mgrwt>
<rscale>  2 0.45697753E+03</rscale>
<asrwt>0</asrwt>
<pdfrwt beam="1">  1       21 0.14506165E+00 0.45697753E+03</pdfrwt>
<pdfrwt beam="2">  1       21 0.77832192E-02 0.45697753E+03</pdfrwt>
<totfact> 0.37094853E+04</totfact>
</mgrwt>
</event>
<event>
 7    0  0.4709932E-002  0.4663622E+03  0.7546771E-02  0.1022952E+00
         21   -1    0    0  502  501  0.00000000000E+00  0.00000000000E+00  0.89712546369E+02  0.89712546369E+02  0.00000000000E+00 0.  1.
         21   -1    0    0  501  502 -0.00000000000E+00 -0.00000000000E+00 -0.60608499018E+03  0.60608499018E+03  0.00000000000E+00 0.  1.
      99926    2    1    2    0    0 -0.14210854715E-13  0.71054273576E-14 -0.51637244381E+03  0.69579753654E+03  0.46636221024E+03 0.  0.
      99925    2    3    3    0    0 -0.96311415281E+02  0.63869991264E+02 -0.25669930591E+03  0.38526104731E+03  0.26301383315E+03 0.  0.
         25    1    4    4    0    0 -0.78952267144E+02  0.13800462715E+02 -0.10685573007E+03  0.18300155302E+03  0.12509000000E+03 0.  0.
         25    1    4    4    0    0 -0.17359148136E+02  0.50069528549E+02 -0.14984357584E+03  0.20225949430E+03  0.12509000000E+03 0.  0.
         25    1    3    3    0    0  0.96311415281E+02 -0.63869991264E+02 -0.25967313790E+03  0.31053648923E+03  0.12509000000E+03 0.  0.
<mgrwt>
<rscale>  2 0.46636221E+03</rscale>
<asrwt>0</asrwt>
<pdfrwt beam="1">  1       21 0.13193021E-01 0.46636221E+03</pdfrwt>
<pdfrwt beam="2">  1       21 0.89130149E-01 0.46636221E+03</pdfrwt>
<totfact> 0.48632799E+04</totfact>
</mgrwt>
</event>
<event>
 7    0  0.4709932E-002  0.4589018E+03  0.7546771E-02  0.1025100E+00
         21   -1    0    0  502  501  0.00000000000E+00  0.00000000000E+00  0.42641883203E+03  0.42641883203E+03  0.00000000000E+00 0.  1.
         21   -1    0    0  501  502 -0.00000000000E+00 -0.00000000000E+00 -0.12346478578E+03  0.12346478578E+03  0.00000000000E+00 0.  1.
      99926    2    1    2    0    0  0.00000000000E+00  0.00000000000E+00  0.30295404624E+03  0.54988361781E+03  0.45890177489E+03 0.  0.
      99925    2    3    3    0    0  0.61065164127E+02 -0.84814396509E+02  0.12685925941E+03  0.30992670881E+03  0.26275246338E+03 0.  0.
         25    1    4    4    0    0  0.57599894683E+01 -0.45667480578E+02  0.26687876359E+02  0.13593545198E+03  0.12509000000E+03 0.  0.
         25    1    3    3    0    0 -0.61065164127E+02  0.84814396509E+02  0.17609478684E+03  0.23995690900E+03  0.12509000000E+03 0.  0.
         25    1    4    4    0    0  0.55305174659E+02 -0.39146915931E+02  0.10017138305E+03  0.17399125683E+03  0.12509000000E+03 0.  0.
<mgrwt>
<rscale>  2 0.45890177E+03</rscale>
<asrwt>0</asrwt>
<pdfrwt beam="1">  1       21 0.62708651E-01 0.45890177E+03</pdfrwt>
<pdfrwt beam="2">  1       21 0.18156586E-01 0.45890177E+03</pdfrwt>
<totfact> 0.60000376E+04</totfact>
</mgrwt>
</event>
<event>
 7    0  0.4709932E-002  0.4587247E+03  0.7546771E-02  0.1025152E+00
         21   -1    0    0  502  501  0.00000000000E+00  0.00000000000E+00  0.95320178506E+02  0.95320178506E+02  0.00000000000E+00 0.  1.
         21   -1    0    0  501  502 -0.00000000000E+00 -0.00000000000E+00 -0.55189883006E+03  0.55189883006E+03  0.00000000000E+00 0.  1.
      99926    2    1    2    0    0  0.00000000000E+00  0.00000000000E+00 -0.45657865156E+03  0.64721900857E+03  0.45872473227E+03 0.  0.
      99925    2    3    3    0    0  0.69662020559E+02  0.82681266046E+02 -0.34798170369E+03  0.44940648609E+03  0.26303219342E+03 0.  0.
         25    1    4    4    0    0  0.69655488061E+02  0.35420011168E+02 -0.21575370376E+03  0.26134963745E+03  0.12509000000E+03 0.  0.
         25    1    4    4    0    0  0.65324976842E-02  0.47261254878E+02 -0.13222799993E+03  0.18805684864E+03  0.12509000000E+03 0.  0.
         25    1    3    3    0    0 -0.69662020559E+02 -0.82681266046E+02 -0.10859694787E+03  0.19781252248E+03  0.12509000000E+03 0.  0.
<mgrwt>
<rscale>  2 0.45872473E+03</rscale>
<asrwt>0</asrwt>
<pdfrwt beam="1">  1       21 0.14017673E-01 0.45872473E+03</pdfrwt>
<pdfrwt beam="2">  1       21 0.81161593E-01 0.45872473E+03</pdfrwt>
<totfact> 0.54250028E+04</totfact>
</mgrwt>
</event>
<event>
 7    0  0.4709932E-002  0.4573100E+03  0.7546771E-02  0.1025564E+00
         21   -1    0    0  502  501  0.00000000000E+00  0.00000000000E+00  0.10900992480E+03  0.10900992480E+03  0.00000000000E+00 0. -1.
         21   -1    0    0  501  502 -0.00000000000E+00 -0.00000000000E+00 -0.47961798338E+03  0.47961798338E+03  0.00000000000E+00 0. -1.
      99926    2    1    2    0    0  0.00000000000E+00  0.00000000000E+00 -0.37060805858E+03  0.58862790817E+03  0.45731004931E+03 0.  0.
      99925    2    3    3    0    0  0.80792578237E+02 -0.44990266739E+02 -0.32154221952E+03  0.42551282775E+03  0.26290721338E+03 0.  0.
         25    1    3    3    0    0 -0.80792578237E+02  0.44990266739E+02 -0.49065839060E+02  0.16311508043E+03  0.12509000000E+03 0.  0.
         25    1    4    4    0    0  0.61915711722E+02 -0.52526307730E+02 -0.14339097037E+03  0.20688413870E+03  0.12509000000E+03 0.  0.
         25    1    4    4    0    0  0.18876866515E+02  0.75360409911E+01 -0.17815124914E+03  0.21862868905E+03  0.12509000000E+03 0.  0.
<mgrwt>
<rscale>  2 0.45731005E+03</rscale>
<asrwt>0</asrwt>
<pdfrwt beam="1">  1       21 0.16030871E-01 0.45731005E+03</pdfrwt>
<pdfrwt beam="2">  1       21 0.70532058E-01 0.45731005E+03</pdfrwt>
<totfact> 0.58311769E+04</totfact>
</mgrwt>
</event>
<event>
 7    0  0.4709932E-002  0.4558507E+03  0.7546771E-02  0.1025992E+00
         21   -1    0    0  502  501  0.00000000000E+00  0.00000000000E+00  0.66164427911E+02  0.66164427911E+02  0.00000000000E+00 0.  1.
         21   -1    0    0  501  502 -0.00000000000E+00 -0.00000000000E+00 -0.78516457617E+03  0.78516457617E+03  0.00000000000E+00 0.  1.
      99926    2    1    2    0    0  0.00000000000E+00  0.17763568394E-14 -0.71900014826E+03  0.85132900409E+03  0.45585069924E+03 0.  0.
      99925    2    3    3    0    0 -0.10984970507E+03 -0.13252414725E+02 -0.50430061172E+03  0.57932535835E+03  0.26278542511E+03 0.  0.
         25    1    4    4    0    0 -0.73609032895E+02 -0.43275698958E+02 -0.26409675430E+03  0.30444322882E+03  0.12509000000E+03 0.  0.
         25    1    3    3    0    0  0.10984970507E+03  0.13252414725E+02 -0.21469953655E+03  0.27200364573E+03  0.12509000000E+03 0.  0.
         25    1    4    4    0    0 -0.36240672175E+02  0.30023284232E+02 -0.24020385742E+03  0.27488212953E+03  0.12509000000E+03 0.  0.
<mgrwt>
<rscale>  2 0.45585070E+03</rscale>
<asrwt>0</asrwt>
<pdfrwt beam="1">  1       21 0.97300639E-02 0.45585070E+03</pdfrwt>
<pdfrwt beam="2">  1       21 0.11546537E+00 0.45585070E+03</pdfrwt>
<totfact> 0.45078413E+04</totfact>
</mgrwt>
</event>
<event>
 7    0  0.4709932E-002  0.4499406E+03  0.7546771E-02  0.1027740E+00
         21   -1    0    0  502  501  0.00000000000E+00  0.00000000000E+00  0.51398562711E+03  0.51398562711E+03  0.00000000000E+00 0.  1.
         21   -1    0    0  501  502 -0.00000000000E+00 -0.00000000000E+00 -0.98468982658E+02  0.98468982658E+02  0.00000000000E+00 0.  1.
      99926    2    1    2    0    0  0.00000000000E+00  0.44408920985E-15  0.41551664445E+03  0.61245460977E+03  0.44994062632E+03 0.  0.
      99925    2    3    3    0    0  0.89507094186E+02 -0.20941795309E+01  0.34572485434E+03  0.44353359993E+03  0.26302181252E+03 0.  0.
         25    1    4    4    0    0  0.13916302025E+02  0.75116199829E+01  0.20335630609E+03  0.23927261278E+03  0.12509000000E+03 0.  0.
         25    1    3    3    0    0 -0.89507094186E+02  0.20941795309E+01  0.69791790113E+02  0.16892100984E+03  0.12509000000E+03 0.  0.
         25    1    4    4    0    0  0.75590792162E+02 -0.96057995138E+01  0.14236854825E+03  0.20426098716E+03  0.12509000000E+03 0.  0.
<mgrwt>
<rscale>  2 0.44994063E+03</rscale>
<asrwt>0</asrwt>
<pdfrwt beam="1">  1       21 0.75586120E-01 0.44994063E+03</pdfrwt>
<pdfrwt beam="2">  1       21 0.14480733E-01 0.44994063E+03</pdfrwt>
<totfact> 0.60291471E+04</totfact>
</mgrwt>
</event>
<event>
 7    0  0.4709932E-002  0.4667182E+03  0.7546771E-02  0.1022851E+00
         21   -1    0    0  502  501  0.00000000000E+00  0.00000000000E+00  0.86828252480E+03  0.86828252480E+03  0.00000000000E+00 0. -1.
         21   -1    0    0  501  502 -0.00000000000E+00 -0.00000000000E+00 -0.62717454599E+02  0.62717454599E+02  0.00000000000E+00 0. -1.
      99926    2    1    2    0    0  0.17763568394E-14  0.00000000000E+00  0.80556507020E+03  0.93099997940E+03  0.46671820118E+03 0.  0.
      99925    2    3    3    0    0  0.63368982997E+01 -0.45487272778E+02  0.73119949607E+03  0.77839920948E+03  0.26295128447E+03 0.  0.
         25    1    4    4    0    0  0.18090219934E+02 -0.44794750863E+02  0.46656995056E+03  0.48545736438E+03  0.12509000000E+03 0.  0.
         25    1    4    4    0    0 -0.11753321634E+02 -0.69252191452E+00  0.26462954551E+03  0.29294184510E+03  0.12509000000E+03 0.  0.
         25    1    3    3    0    0 -0.63368982997E+01  0.45487272778E+02  0.74365574136E+02  0.15260076992E+03  0.12509000000E+03 0.  0.
<mgrwt>
<rscale>  2 0.46671820E+03</rscale>
<asrwt>0</asrwt>
<pdfrwt beam="1">  1       21 0.12768860E+00 0.46671820E+03</pdfrwt>
<pdfrwt beam="2">  1       21 0.92231556E-02 0.46671820E+03</pdfrwt>
<totfact> 0.38286760E+04</totfact>
</mgrwt>
</event>
<event>
 7    0  0.4709932E-002  0.4591416E+03  0.7546771E-02  0.1025030E+00
         21   -1    0    0  502  501  0.00000000000E+00  0.00000000000E+00  0.11707303610E+04  0.11707303610E+04  0.00000000000E+00 0.  1.
         21   -1    0    0  501  502 -0.00000000000E+00 -0.00000000000E+00 -0.45016994760E+02  0.45016994760E+02  0.00000000000E+00 0.  1.
      99926    2    1    2    0    0  0.00000000000E+00  0.00000000000E+00  0.11257133662E+04  0.12157473557E+04  0.45914164492E+03 0.  0.
      99925    2    3    3    0    0 -0.36751360043E+02 -0.10980532390E+03  0.65919637914E+03  0.71906488277E+03  0.26288128069E+03 0.  0.
         25    1    3    3    0    0  0.36751360043E+02  0.10980532390E+03  0.46651698707E+03  0.49668247296E+03  0.12509000000E+03 0.  0.
         25    1    4    4    0    0 -0.86991621883E+00 -0.27282348671E+02  0.23289331714E+03  0.26576660545E+03  0.12509000000E+03 0.  0.
         25    1    4    4    0    0 -0.35881443824E+02 -0.82522975227E+02  0.42630306200E+03  0.45329827732E+03  0.12509000000E+03 0.  0.
<mgrwt>
<rscale>  2 0.45914164E+03</rscale>
<asrwt>0</asrwt>
<pdfrwt beam="1">  1       21 0.17216621E+00 0.45914164E+03</pdfrwt>
<pdfrwt beam="2">  1       21 0.66201470E-02 0.45914164E+03</pdfrwt>
<totfact> 0.30659754E+04</totfact>
</mgrwt>
</event>
<event>
 7    0  0.4709932E-002  0.4487846E+03  0.7546771E-02  0.1028085E+00
         21   -1    0    0  502  501  0.00000000000E+00  0.00000000000E+00  0.65824417933E+03  0.65824417933E+03  0.00000000000E+00 0.  1.
         21   -1    0    0  501  502 -0.00000000000E+00 -0.00000000000E+00 -0.76494262823E+02  0.76494262823E+02  0.00000000000E+00 0.  1.
      99926    2    1    2    0    0  0.00000000000E+00  0.00000000000E+00  0.58174991651E+03  0.73473844216E+03  0.44878459535E+03 0.  0.
      99925    2    3    3    0    0  0.70048125163E+02 -0.24743923087E+02  0.49485153496E+03  0.56527505855E+03  0.26294267168E+03 0.  0.
         25    1    3    3    0    0 -0.70048125163E+02  0.24743923087E+02  0.86898381549E+02  0.16946338361E+03  0.12509000000E+03 0.  0.
         25    1    4    4    0    0  0.10860581783E+02 -0.12843855399E+02  0.30461630950E+03  0.32972946634E+03  0.12509000000E+03 0.  0.
         25    1    4    4    0    0  0.59187543381E+02 -0.11900067689E+02  0.19023522546E+03  0.23554559221E+03  0.12509000000E+03 0.  0.
<mgrwt>
<rscale>  2 0.44878460E+03</rscale>
<asrwt>0</asrwt>
<pdfrwt beam="1">  1       21 0.96800612E-01 0.44878460E+03</pdfrwt>
<pdfrwt beam="2">  1       21 0.11249157E-01 0.44878460E+03</pdfrwt>
<totfact> 0.53630335E+04</totfact>
</mgrwt>
</event>
<event>
 7    0  0.4709932E-002  0.4529595E+03  0.7546771E-02  0.1026843E+00
         21   -1    0    0  502  501  0.00000000000E+00  0.00000000000E+00  0.36811329054E+02  0.36811329054E+02  0.00000000000E+00 0. -1.
         21   -1    0    0  501  502 -0.00000000000E+00 -0.00000000000E+00 -0.13934045635E+04  0.13934045635E+04  0.00000000000E+00 0. -1.
      99926    2    1    2    0    0  0.00000000000E+00  0.00000000000E+00 -0.13565932345E+04  0.14302158926E+04  0.45295948558E+03 0.  0.
      99925    2    3    3    0    0  0.10442759166E+03  0.33622755472E+02 -0.91334783617E+03  0.95677148951E+03  0.26300532640E+03 0.  0.
         25    1    3    3    0    0 -0.10442759166E+03 -0.33622755472E+02 -0.44324539832E+03  0.47344440309E+03  0.12509000000E+03 0.  0.
         25    1    4    4    0    0  0.10795416057E+02  0.13401263393E+02 -0.44934932034E+03  0.46675309818E+03  0.12509000000E+03 0.  0.
         25    1    4    4    0    0  0.93632175602E+02  0.20221492079E+02 -0.46399851583E+03  0.49001839133E+03  0.12509000000E+03 0.  0.
<mgrwt>
<rscale>  2 0.45295949E+03</rscale>
<asrwt>0</asrwt>
<pdfrwt beam="1">  1       21 0.54134313E-02 0.45295949E+03</pdfrwt>
<pdfrwt beam="2">  1       21 0.20491242E+00 0.45295949E+03</pdfrwt>
<totfact> 0.25946795E+04</totfact>
</mgrwt>
</event>
<event>
 7    0  0.4709932E-002  0.4189041E+03  0.7546771E-02  0.1037424E+00
         21   -1    0    0  502  501  0.00000000000E+00  0.00000000000E+00  0.30783653571E+03  0.30783653571E+03  0.00000000000E+00 0.  1.
         21   -1    0    0  501  502 -0.00000000000E+00 -0.00000000000E+00 -0.14251120322E+03  0.14251120322E+03  0.00000000000E+00 0.  1.
      99926    2    1    2    0    0  0.00000000000E+00  0.00000000000E+00  0.16532533249E+03  0.45034773892E+03  0.41890407063E+03 0.  0.
      99925    2    3    3    0    0  0.64934841109E+02 -0.14844405462E+02  0.72203919516E+02  0.28077181015E+03  0.26302568966E+03 0.  0.
         25    1    3    3    0    0 -0.64934841109E+02  0.14844405462E+02  0.93121412974E+02  0.16957592877E+03  0.12509000000E+03 0.  0.
         25    1    4    4    0    0 -0.23511322266E+00 -0.51973966276E+01  0.78719399016E+01  0.12544538153E+03  0.12509000000E+03 0.  0.
         25    1    4    4    0    0  0.65169954332E+02 -0.96470088342E+01  0.64331979615E+02  0.15532642862E+03  0.12509000000E+03 0.  0.
<mgrwt>
<rscale>  2 0.41890407E+03</rscale>
<asrwt>0</asrwt>
<pdfrwt beam="1">  1       21 0.45270079E-01 0.41890407E+03</pdfrwt>
<pdfrwt beam="2">  1       21 0.20957530E-01 0.41890407E+03</pdfrwt>
<totfact> 0.92788482E+04</totfact>
</mgrwt>
</event>
<event>
 7    0  0.4709932E-002  0.4626225E+03  0.7546771E-02  0.1024023E+00
         21   -1    0    0  502  501  0.00000000000E+00  0.00000000000E+00  0.32137400776E+02  0.32137400776E+02  0.00000000000E+00 0.  1.
         21   -1    0    0  501  502 -0.00000000000E+00 -0.00000000000E+00 -0.16648790817E+04  0.16648790817E+04  0.00000000000E+00 0.  1.
      99926    2    1    2    0    0  0.00000000000E+00  0.71054273576E-14 -0.16327416809E+04  0.16970164824E+04  0.46262246505E+03 0.  0.
      99925    2    3    3    0    0  0.89915584413E+02 -0.32911558687E+02 -0.12864504826E+04  0.13165784650E+04  0.26316539906E+03 0.  0.
         25    1    4    4    0    0  0.52047775383E+02  0.19484915470E+02 -0.54909659805E+03  0.56590035779E+03  0.12509000000E+03 0.  0.
         25    1    4    4    0    0  0.37867809030E+02 -0.52396474156E+02 -0.73735388453E+03  0.75067810717E+03  0.12509000000E+03 0.  0.
         25    1    3    3    0    0 -0.89915584413E+02  0.32911558687E+02 -0.34629119832E+03  0.38043801748E+03  0.12509000000E+03 0.  0.
<mgrwt>
<rscale>  2 0.46262247E+03</rscale>
<asrwt>0</asrwt>
<pdfrwt beam="1">  1       21 0.47260882E-02 0.46262247E+03</pdfrwt>
<pdfrwt beam="2">  1       21 0.24483516E+00 0.46262247E+03</pdfrwt>
<totfact> 0.18221313E+04</totfact>
</mgrwt>
</event>
<event>
 7    0  0.4709932E-002  0.4560053E+03  0.7546771E-02  0.1025946E+00
         21   -1    0    0  502  501  0.00000000000E+00  0.00000000000E+00  0.97795445466E+02  0.97795445466E+02  0.00000000000E+00 0. -1.
         21   -1    0    0  501  502 -0.00000000000E+00 -0.00000000000E+00 -0.53157079095E+03  0.53157079095E+03  0.00000000000E+00 0. -1.
      99926    2    1    2    0    0  0.00000000000E+00 -0.13322676296E-14 -0.43377534548E+03  0.62936623642E+03  0.45600527321E+03 0.  0.
      99925    2    3    3    0    0  0.75645709674E+02  0.27205736941E+01 -0.39052150900E+03  0.47689303423E+03  0.26304038130E+03 0.  0.
         25    1    4    4    0    0  0.56752953099E+02 -0.32622480248E+02 -0.22433835897E+03  0.26506665446E+03  0.12509000000E+03 0.  0.
         25    1    3    3    0    0 -0.75645709674E+02 -0.27205736941E+01 -0.43253836485E+02  0.15247320218E+03  0.12509000000E+03 0.  0.
         25    1    4    4    0    0  0.18892756575E+02  0.35343053942E+02 -0.16618315003E+03  0.21182637977E+03  0.12509000000E+03 0.  0.
<mgrwt>
<rscale>  2 0.45600527E+03</rscale>
<asrwt>0</asrwt>
<pdfrwt beam="1">  1       21 0.14381683E-01 0.45600527E+03</pdfrwt>
<pdfrwt beam="2">  1       21 0.78172177E-01 0.45600527E+03</pdfrwt>
<totfact> 0.56456775E+04</totfact>
</mgrwt>
</event>
<event>
 7    0  0.4709932E-002  0.4543469E+03  0.7546771E-02  0.1026434E+00
         21   -1    0    0  502  501  0.00000000000E+00  0.00000000000E+00  0.86649289647E+03  0.86649289647E+03  0.00000000000E+00 0. -1.
         21   -1    0    0  501  502 -0.00000000000E+00 -0.00000000000E+00 -0.59559368302E+02  0.59559368302E+02  0.00000000000E+00 0. -1.
      99926    2    1    2    0    0 -0.53290705182E-14  0.00000000000E+00  0.80693352817E+03  0.92605226477E+03  0.45434686992E+03 0.  0.
      99925    2    3    3    0    0 -0.14789429931E+02 -0.29991423941E+02  0.28907783972E+03  0.39225433024E+03  0.26301948489E+03 0.  0.
         25    1    4    4    0    0  0.27838720209E+02 -0.35145304847E+02  0.14481915483E+03  0.19654587887E+03  0.12509000000E+03 0.  0.
         25    1    3    3    0    0  0.14789429931E+02  0.29991423941E+02  0.51785568845E+03  0.53379793453E+03  0.12509000000E+03 0.  0.
         25    1    4    4    0    0 -0.42628150140E+02  0.51538809062E+01  0.14425868489E+03  0.19570845137E+03  0.12509000000E+03 0.  0.
<mgrwt>
<rscale>  2 0.45434687E+03</rscale>
<asrwt>0</asrwt>
<pdfrwt beam="1">  1       21 0.12742542E+00 0.45434687E+03</pdfrwt>
<pdfrwt beam="2">  1       21 0.87587312E-02 0.45434687E+03</pdfrwt>
<totfact> 0.42341989E+04</totfact>
</mgrwt>
</event>
<event>
 7    0  0.4709932E-002  0.4504450E+03  0.7546771E-02  0.1027589E+00
         21   -1    0    0  502  501  0.00000000000E+00  0.00000000000E+00  0.13286571835E+04  0.13286571835E+04  0.00000000000E+00 0. -1.
         21   -1    0    0  501  502 -0.00000000000E+00 -0.00000000000E+00 -0.38177773177E+02  0.38177773177E+02  0.00000000000E+00 0. -1.
      99926    2    1    2    0    0  0.00000000000E+00  0.14210854715E-13  0.12904794103E+04  0.13668349567E+04  0.45044499145E+03 0.  0.
      99925    2    3    3    0    0 -0.67743619214E+02 -0.74373814157E+02  0.94176009650E+03  0.98294261485E+03  0.26295140722E+03 0.  0.
         25    1    3    3    0    0  0.67743619214E+02  0.74373814157E+02  0.34871931381E+03  0.38389234181E+03  0.12509000000E+03 0.  0.
         25    1    4    4    0    0 -0.19498884581E+02 -0.67629860004E+02  0.56628569169E+03  0.58419260281E+03  0.12509000000E+03 0.  0.
         25    1    4    4    0    0 -0.48244734633E+02 -0.67439541527E+01  0.37547440480E+03  0.39875001204E+03  0.12509000000E+03 0.  0.
<mgrwt>
<rscale>  2 0.45044499E+03</rscale>
<asrwt>0</asrwt>
<pdfrwt beam="1">  1       21 0.19539073E+00 0.45044499E+03</pdfrwt>
<pdfrwt beam="2">  1       21 0.56143793E-02 0.45044499E+03</pdfrwt>
<totfact> 0.28215156E+04</totfact>
</mgrwt>
</event>
<event>
 7    0  0.4709932E-002  0.4668995E+03  0.7546771E-02  0.1022799E+00
         21   -1    0    0  502  501  0.00000000000E+00  0.00000000000E+00  0.58846355449E+02  0.58846355449E+02  0.00000000000E+00 0. -1.
         21   -1    0    0  501  502 -0.00000000000E+00 -0.00000000000E+00 -0.92611982725E+03  0.92611982725E+03  0.00000000000E+00 0. -1.
      99926    2    1    2    0    0 -0.24424906542E-14  0.00000000000E+00 -0.86727347180E+03  0.98496618270E+03  0.46689946045E+03 0.  0.
      99925    2    3    3    0    0 -0.15954935163E+01  0.61088506233E+02 -0.76760734029E+03  0.81374936967E+03  0.26312099228E+03 0.  0.
         25    1    4    4    0    0  0.26522715122E+02  0.10486891764E+02 -0.44007056918E+03  0.45839180105E+03  0.12509000000E+03 0.  0.
         25    1    3    3    0    0  0.15954935163E+01 -0.61088506233E+02 -0.99666131514E+02  0.17121681303E+03  0.12509000000E+03 0.  0.
         25    1    4    4    0    0 -0.28118208638E+02  0.50601614469E+02 -0.32753677111E+03  0.35535756861E+03  0.12509000000E+03 0.  0.
<mgrwt>
<rscale>  2 0.46689946E+03</rscale>
<asrwt>0</asrwt>
<pdfrwt beam="1">  1       21 0.86538754E-02 0.46689946E+03</pdfrwt>
<pdfrwt beam="2">  1       21 0.13619410E+00 0.46689946E+03</pdfrwt>
<totfact> 0.36263752E+04</totfact>
</mgrwt>
</event>
<event>
 7    0  0.4709932E-002  0.4440652E+03  0.7546771E-02  0.1029507E+00
         21   -1    0    0  502  501  0.00000000000E+00  0.00000000000E+00  0.74547072297E+03  0.74547072297E+03  0.00000000000E+00 0. -1.
         21   -1    0    0  501  502 -0.00000000000E+00 -0.00000000000E+00 -0.66130659227E+02  0.66130659227E+02  0.00000000000E+00 0. -1.
      99926    2    1    2    0    0  0.71054273576E-14  0.00000000000E+00  0.67934006375E+03  0.81160138220E+03  0.44406517695E+03 0.  0.
      99925    2    3    3    0    0  0.56252837859E+02 -0.84250500831E+02  0.46150963426E+03  0.54075062483E+03  0.26297826352E+03 0.  0.
         25    1    4    4    0    0  0.48966672767E+02 -0.49843409757E+02  0.30753288461E+03  0.33927287507E+03  0.12509000000E+03 0.  0.
         25    1    4    4    0    0  0.72861650922E+01 -0.34407091074E+02  0.15397674965E+03  0.20147774977E+03  0.12509000000E+03 0.  0.
         25    1    3    3    0    0 -0.56252837859E+02  0.84250500831E+02  0.21783042948E+03  0.27085075737E+03  0.12509000000E+03 0.  0.
<mgrwt>
<rscale>  2 0.44406518E+03</rscale>
<asrwt>0</asrwt>
<pdfrwt beam="1">  1       21 0.10962804E+00 0.44406518E+03</pdfrwt>
<pdfrwt beam="2">  1       21 0.97250974E-02 0.44406518E+03</pdfrwt>
<totfact> 0.51486581E+04</totfact>
</mgrwt>
</event>
<event>
 7    0  0.4709932E-002  0.4543647E+03  0.7546771E-02  0.1026428E+00
         21   -1    0    0  502  501  0.00000000000E+00  0.00000000000E+00  0.21371936776E+03  0.21371936776E+03  0.00000000000E+00 0. -1.
         21   -1    0    0  501  502 -0.00000000000E+00 -0.00000000000E+00 -0.24149339058E+03  0.24149339058E+03  0.00000000000E+00 0. -1.
      99926    2    1    2    0    0  0.00000000000E+00 -0.71054273576E-14 -0.27774022818E+02  0.45521275834E+03  0.45436467623E+03 0.  0.
      99925    2    3    3    0    0  0.86403496608E+02  0.62147990675E+02 -0.54652020353E+02  0.28878598218E+03  0.26283562012E+03 0.  0.
         25    1    4    4    0    0  0.14820980077E+02  0.41285568451E+00 -0.35224415111E+02  0.13079793355E+03  0.12509000000E+03 0.  0.
         25    1    4    4    0    0  0.71582516531E+02  0.61735134991E+02 -0.19427605242E+02  0.15798804863E+03  0.12509000000E+03 0.  0.
         25    1    3    3    0    0 -0.86403496608E+02 -0.62147990675E+02  0.26877997535E+02  0.16642677616E+03  0.12509000000E+03 0.  0.
<mgrwt>
<rscale>  2 0.45436468E+03</rscale>
<asrwt>0</asrwt>
<pdfrwt beam="1">  1       21 0.31429319E-01 0.45436468E+03</pdfrwt>
<pdfrwt beam="2">  1       21 0.35513734E-01 0.45436468E+03</pdfrwt>
<totfact> 0.68878737E+04</totfact>
</mgrwt>
</event>
<event>
 7    0  0.4709932E-002  0.4470243E+03  0.7546771E-02  0.1028613E+00
         21   -1    0    0  502  501  0.00000000000E+00  0.00000000000E+00  0.25950131612E+03  0.25950131612E+03  0.00000000000E+00 0. -1.
         21   -1    0    0  501  502 -0.00000000000E+00 -0.00000000000E+00 -0.19251416548E+03  0.19251416548E+03  0.00000000000E+00 0. -1.
      99926    2    1    2    0    0 -0.13322676296E-14  0.71054273576E-14  0.66987150637E+02  0.45201548161E+03  0.44702429158E+03 0.  0.
      99925    2    3    3    0    0 -0.39602167089E+01 -0.33986101644E+02  0.14341154748E+03  0.30148663070E+03  0.26297638320E+03 0.  0.
         25    1    4    4    0    0  0.25052219060E+02  0.12146224145E+02  0.79567216720E+02  0.15084294653E+03  0.12509000000E+03 0.  0.
         25    1    3    3    0    0  0.39602167089E+01  0.33986101644E+02 -0.76424396843E+02  0.15052885090E+03  0.12509000000E+03 0.  0.
         25    1    4    4    0    0 -0.29012435769E+02 -0.46132325788E+02  0.63844330760E+02  0.15064368418E+03  0.12509000000E+03 0.  0.
<mgrwt>
<rscale>  2 0.44702429E+03</rscale>
<asrwt>0</asrwt>
<pdfrwt beam="1">  1       21 0.38161959E-01 0.44702429E+03</pdfrwt>
<pdfrwt beam="2">  1       21 0.28310906E-01 0.44702429E+03</pdfrwt>
<totfact> 0.73320015E+04</totfact>
</mgrwt>
</event>
<event>
 7    0  0.4709932E-002  0.4447760E+03  0.7546771E-02  0.1029291E+00
         21   -1    0    0  502  501  0.00000000000E+00  0.00000000000E+00  0.20228554326E+03  0.20228554326E+03  0.00000000000E+00 0. -1.
         21   -1    0    0  501  502 -0.00000000000E+00 -0.00000000000E+00 -0.24448814318E+03  0.24448814318E+03  0.00000000000E+00 0. -1.
      99926    2    1    2    0    0  0.00000000000E+00  0.35527136788E-14 -0.42202599915E+02  0.44677368644E+03  0.44477597446E+03 0.  0.
      99925    2    3    3    0    0  0.94933137297E+02 -0.23488480492E+02  0.66088729975E+01  0.28065903549E+03  0.26298632612E+03 0.  0.
         25    1    4    4    0    0  0.77860261358E+02  0.15874908707E+02  0.79536777328E+01  0.14840822792E+03  0.12509000000E+03 0.  0.
         25    1    3    3    0    0 -0.94933137297E+02  0.23488480492E+02 -0.48811472912E+02  0.16611465095E+03  0.12509000000E+03 0.  0.
         25    1    4    4    0    0  0.17072875939E+02 -0.39363389198E+02 -0.13448047353E+01  0.13225080757E+03  0.12509000000E+03 0.  0.
<mgrwt>
<rscale>  2 0.44477597E+03</rscale>
<asrwt>0</asrwt>
<pdfrwt beam="1">  1       21 0.29747874E-01 0.44477597E+03</pdfrwt>
<pdfrwt beam="2">  1       21 0.35954139E-01 0.44477597E+03</pdfrwt>
<totfact> 0.75093940E+04</totfact>
</mgrwt>
</event>
<event>
 7    0  0.4709932E-002  0.4412542E+03  0.7546771E-02  0.1030363E+00
         21   -1    0    0  502  501  0.00000000000E+00  0.00000000000E+00  0.33740249722E+03  0.33740249722E+03  0.00000000000E+00 0. -1.
         21   -1    0    0  501  502 -0.00000000000E+00 -0.00000000000E+00 -0.14426782728E+03  0.14426782728E+03  0.00000000000E+00 0. -1.
      99926    2    1    2    0    0 -0.66613381478E-15  0.00000000000E+00  0.19313466993E+03  0.48167032450E+03  0.44125423599E+03 0.  0.
      99925    2    3    3    0    0  0.15557706890E+01  0.29618178955E+02  0.22700305879E+03  0.34872585184E+03  0.26305830931E+03 0.  0.
         25    1    4    4    0    0 -0.13415772240E+02  0.12659895530E+02  0.16332393472E+03  0.20654895704E+03  0.12509000000E+03 0.  0.
         25    1    4    4    0    0  0.14971542929E+02  0.16958283425E+02  0.63679124063E+02  0.14217689480E+03  0.12509000000E+03 0.  0.
         25    1    3    3    0    0 -0.15557706890E+01 -0.29618178955E+02 -0.33868388856E+02  0.13294447266E+03  0.12509000000E+03 0.  0.
<mgrwt>
<rscale>  2 0.44125424E+03</rscale>
<asrwt>0</asrwt>
<pdfrwt beam="1">  1       21 0.49618014E-01 0.44125424E+03</pdfrwt>
<pdfrwt beam="2">  1       21 0.21215857E-01 0.44125424E+03</pdfrwt>
<totfact> 0.74368617E+04</totfact>
</mgrwt>
</event>
<event>
 7    0  0.4709932E-002  0.4251075E+03  0.7546771E-02  0.1035417E+00
         21   -1    0    0  502  501  0.00000000000E+00  0.00000000000E+00  0.26636756304E+03  0.26636756304E+03  0.00000000000E+00 0. -1.
         21   -1    0    0  501  502 -0.00000000000E+00 -0.00000000000E+00 -0.16961185730E+03  0.16961185730E+03  0.00000000000E+00 0. -1.
      99926    2    1    2    0    0  0.71054273576E-14  0.71054273576E-14  0.96755705744E+02  0.43597942033E+03  0.42510750212E+03 0.  0.
      99925    2    3    3    0    0 -0.34430260912E+02 -0.54792233195E+02  0.10948303954E+02  0.27106110726E+03  0.26299548822E+03 0.  0.
         25    1    3    3    0    0  0.34430260912E+02  0.54792233195E+02  0.85807401790E+02  0.16491831307E+03  0.12509000000E+03 0.  0.
         25    1    4    4    0    0 -0.29865225195E+02 -0.54219758010E+02 -0.22797269623E+02  0.14141759946E+03  0.12509000000E+03 0.  0.
         25    1    4    4    0    0 -0.45650357167E+01 -0.57247518470E+00  0.33745573577E+02  0.12964350780E+03  0.12509000000E+03 0.  0.
<mgrwt>
<rscale>  2 0.42510750E+03</rscale>
<asrwt>0</asrwt>
<pdfrwt beam="1">  1       21 0.39171701E-01 0.42510750E+03</pdfrwt>
<pdfrwt beam="2">  1       21 0.24942920E-01 0.42510750E+03</pdfrwt>
<totfact> 0.89450575E+04</totfact>
</mgrwt>
</event>
<event>
 7    0  0.4709932E-002  0.4054052E+03  0.7546771E-02  0.1041924E+00
         21   -1    0    0  502  501  0.00000000000E+00  0.00000000000E+00  0.72292948522E+03  0.72292948522E+03  0.00000000000E+00 0.  1.
         21   -1    0    0  501  502 -0.00000000000E+00 -0.00000000000E+00 -0.56835886184E+02  0.56835886184E+02  0.00000000000E+00 0.  1.
      99926    2    1    2    0    0  0.17763568394E-14  0.00000000000E+00  0.66609359904E+03  0.77976537141E+03  0.40540516988E+03 0.  0.
      99925    2    3    3    0    0  0.72094422220E+01 -0.52528725180E+02  0.47049541068E+03  0.54161121457E+03  0.26299340915E+03 0.  0.
         25    1    3    3    0    0 -0.72094422220E+01  0.52528725180E+02  0.19559818836E+03  0.23815415683E+03  0.12509000000E+03 0.  0.
         25    1    4    4    0    0 -0.83834819421E+01 -0.49830224118E+02  0.30542957611E+03  0.33389829000E+03  0.12509000000E+03 0.  0.
         25    1    4    4    0    0  0.15592924164E+02 -0.26985010612E+01  0.16506583457E+03  0.20771292457E+03  0.12509000000E+03 0.  0.
<mgrwt>
<rscale>  2 0.40540517E+03</rscale>
<asrwt>0</asrwt>
<pdfrwt beam="1">  1       21 0.10631315E+00 0.40540517E+03</pdfrwt>
<pdfrwt beam="2">  1       21 0.83582190E-02 0.40540517E+03</pdfrwt>
<totfact> 0.73440948E+04</totfact>
</mgrwt>
</event>
<event>
 7    0  0.4709932E-002  0.4472009E+03  0.7546771E-02  0.1028560E+00
         21   -1    0    0  502  501  0.00000000000E+00  0.00000000000E+00  0.16454564749E+03  0.16454564749E+03  0.00000000000E+00 0. -1.
         21   -1    0    0  501  502 -0.00000000000E+00 -0.00000000000E+00 -0.30384980826E+03  0.30384980826E+03  0.00000000000E+00 0. -1.
      99926    2    1    2    0    0 -0.17763568394E-14  0.00000000000E+00 -0.13930416077E+03  0.46839545575E+03  0.44720090984E+03 0.  0.
      99925    2    3    3    0    0  0.14310849785E+02  0.60332993121E+02 -0.17788478551E+03  0.32354780066E+03  0.26305001789E+03 0.  0.
         25    1    3    3    0    0 -0.14310849785E+02 -0.60332993121E+02  0.38580624744E+02  0.14484765509E+03  0.12509000000E+03 0.  0.
         25    1    4    4    0    0  0.42981883104E+02  0.50190573845E+02 -0.89884728389E+02  0.16761058581E+03  0.12509000000E+03 0.  0.
         25    1    4    4    0    0 -0.28671033319E+02  0.10142419275E+02 -0.88000057122E+02  0.15593721485E+03  0.12509000000E+03 0.  0.
<mgrwt>
<rscale>  2 0.44720091E+03</rscale>
<asrwt>0</asrwt>
<pdfrwt beam="1">  1       21 0.24197890E-01 0.44720091E+03</pdfrwt>
<pdfrwt beam="2">  1       21 0.44683795E-01 0.44720091E+03</pdfrwt>
<totfact> 0.71902825E+04</totfact>
</mgrwt>
</event>
<event>
 7    0  0.4709932E-002  0.4482228E+03  0.7546771E-02  0.1028253E+00
         21   -1    0    0  502  501  0.00000000000E+00  0.00000000000E+00  0.39403188593E+03  0.39403188593E+03  0.00000000000E+00 0.  1.
         21   -1    0    0  501  502 -0.00000000000E+00 -0.00000000000E+00 -0.12746665635E+03  0.12746665635E+03  0.00000000000E+00 0.  1.
      99926    2    1    2    0    0  0.00000000000E+00  0.00000000000E+00  0.26656522957E+03  0.52149854228E+03  0.44822283295E+03 0.  0.
      99925    2    3    3    0    0  0.71758433011E+02  0.71169467121E+02  0.20624493002E+03  0.34974170138E+03  0.26375731414E+03 0.  0.
         25    1    4    4    0    0 -0.53468179232E+01  0.32824522431E+02  0.79206633901E+02  0.15174727902E+03  0.12509000000E+03 0.  0.
         25    1    3    3    0    0 -0.71758433011E+02 -0.71169467121E+02  0.60320299552E+02  0.17175684090E+03  0.12509000000E+03 0.  0.
         25    1    4    4    0    0  0.77105250934E+02  0.38344944690E+02  0.12703829612E+03  0.19799442236E+03  0.12509000000E+03 0.  0.
<mgrwt>
<rscale>  2 0.44822283E+03</rscale>
<asrwt>0</asrwt>
<pdfrwt beam="1">  1       21 0.57945865E-01 0.44822283E+03</pdfrwt>
<pdfrwt beam="2">  1       21 0.18745097E-01 0.44822283E+03</pdfrwt>
<totfact> 0.67330871E+04</totfact>
</mgrwt>
</event>
<event>
 7    0  0.4709932E-002  0.4516581E+03  0.7546771E-02  0.1027229E+00
         21   -1    0    0  502  501  0.00000000000E+00  0.00000000000E+00  0.28336269141E+03  0.28336269141E+03  0.00000000000E+00 0.  1.
         21   -1    0    0  501  502 -0.00000000000E+00 -0.00000000000E+00 -0.17997695329E+03  0.17997695329E+03  0.00000000000E+00 0.  1.
      99926    2    1    2    0    0  0.00000000000E+00  0.26645352591E-14  0.10338573812E+03  0.46333964470E+03  0.45165807366E+03 0.  0.
      99925    2    3    3    0    0  0.60238905929E+02 -0.70113724214E+01 -0.28685522705E+02  0.27158925704E+03  0.26317290931E+03 0.  0.
         25    1    4    4    0    0  0.65112596803E+00 -0.29150866587E+02 -0.36196922820E+00  0.12844390258E+03  0.12509000000E+03 0.  0.
         25    1    4    4    0    0  0.59587779961E+02  0.22139494166E+02 -0.28323553477E+02  0.14314535446E+03  0.12509000000E+03 0.  0.
         25    1    3    3    0    0 -0.60238905929E+02  0.70113724214E+01  0.13207126082E+03  0.19175038766E+03  0.12509000000E+03 0.  0.
<mgrwt>
<rscale>  2 0.45165807E+03</rscale>
<asrwt>0</asrwt>
<pdfrwt beam="1">  1       21 0.41670985E-01 0.45165807E+03</pdfrwt>
<pdfrwt beam="2">  1       21 0.26467199E-01 0.45165807E+03</pdfrwt>
<totfact> 0.69765747E+04</totfact>
</mgrwt>
</event>
<event>
 6    0  0.4709932E-002  0.4556068E+03  0.7546771E-02  0.1026063E+00
         21   -1    0    0  502  501  0.00000000000E+00  0.00000000000E+00  0.15804079556E+03  0.15804079556E+03  0.00000000000E+00 0. -1.
         21   -1    0    0  501  502 -0.00000000000E+00 -0.00000000000E+00 -0.32836066052E+03  0.32836066052E+03  0.00000000000E+00 0. -1.
      99926    2    1    2    0    0  0.00000000000E+00  0.00000000000E+00 -0.17031986497E+03  0.48640145608E+03  0.45560676035E+03 0.  0.
         25    1    3    3    0    0 -0.69169216382E+02  0.10529592494E+02 -0.80124238706E+02  0.16420308932E+03  0.12509000000E+03 0.  0.
         25    1    3    3    0    0  0.10808884808E+03  0.37912548472E+02 -0.47210492770E+02  0.17605936254E+03  0.12509000000E+03 0.  0.
         25    1    3    3    0    0 -0.38919631698E+02 -0.48442140966E+02 -0.42985133492E+02  0.14613900422E+03  0.12509000000E+03 0.  0.
<mgrwt>
<rscale>  2 0.45560676E+03</rscale>
<asrwt>0</asrwt>
<pdfrwt beam="1">  1       21 0.23241293E-01 0.45560676E+03</pdfrwt>
<pdfrwt beam="2">  1       21 0.48288333E-01 0.45560676E+03</pdfrwt>
<totfact> 0.65918907E+04</totfact>
</mgrwt>
</event>
<event>
 7    0  0.4709932E-002  0.4655107E+03  0.7546771E-02  0.1023195E+00
         21   -1    0    0  502  501  0.00000000000E+00  0.00000000000E+00  0.24113298028E+03  0.24113298028E+03  0.00000000000E+00 0. -1.
         21   -1    0    0  501  502 -0.00000000000E+00 -0.00000000000E+00 -0.22466879190E+03  0.22466879190E+03  0.00000000000E+00 0. -1.
      99926    2    1    2    0    0  0.35527136788E-14  0.00000000000E+00  0.16464188376E+02  0.46580177218E+03  0.46551071036E+03 0.  0.
      99925    2    3    3    0    0 -0.14027354424E+02 -0.90085448565E+02  0.92391355256E+02  0.29339354301E+03  0.26311870674E+03 0.  0.
         25    1    3    3    0    0  0.14027354424E+02  0.90085448565E+02 -0.75927166881E+02  0.17240822917E+03  0.12509000000E+03 0.  0.
         25    1    4    4    0    0  0.28726295686E+02 -0.58923653652E+02  0.32278954543E+02  0.14486765005E+03  0.12509000000E+03 0.  0.
         25    1    4    4    0    0 -0.42753650109E+02 -0.31161794913E+02  0.60112400714E+02  0.14852589296E+03  0.12509000000E+03 0.  0.
<mgrwt>
<rscale>  2 0.46551071E+03</rscale>
<asrwt>0</asrwt>
<pdfrwt beam="1">  1       21 0.35460732E-01 0.46551071E+03</pdfrwt>
<pdfrwt beam="2">  1       21 0.33039528E-01 0.46551071E+03</pdfrwt>
<totfact> 0.62365023E+04</totfact>
</mgrwt>
</event>
<event>
 7    0  0.4709932E-002  0.4439009E+03  0.7546771E-02  0.1029557E+00
         21   -1    0    0  502  501  0.00000000000E+00  0.00000000000E+00  0.73052006508E+03  0.73052006508E+03  0.00000000000E+00 0. -1.
         21   -1    0    0  501  502 -0.00000000000E+00 -0.00000000000E+00 -0.67434165272E+02  0.67434165272E+02  0.00000000000E+00 0. -1.
      99926    2    1    2    0    0  0.00000000000E+00  0.00000000000E+00  0.66308589981E+03  0.79795423036E+03  0.44390093851E+03 0.  0.
      99925    2    3    3    0    0  0.47562414405E+02 -0.88100848726E+02  0.38274046314E+03  0.47505329388E+03  0.26298560245E+03 0.  0.
         25    1    4    4    0    0 -0.14433883667E+00 -0.75566371552E+02  0.21708229074E+03  0.26169166283E+03  0.12509000000E+03 0.  0.
         25    1    4    4    0    0  0.47706753242E+02 -0.12534477174E+02  0.16565817240E+03  0.21336163105E+03  0.12509000000E+03 0.  0.
         25    1    3    3    0    0 -0.47562414405E+02  0.88100848726E+02  0.28034543667E+03  0.32290093647E+03  0.12509000000E+03 0.  0.
<mgrwt>
<rscale>  2 0.44390094E+03</rscale>
<asrwt>0</asrwt>
<pdfrwt beam="1">  1       21 0.10742942E+00 0.44390094E+03</pdfrwt>
<pdfrwt beam="2">  1       21 0.99167894E-02 0.44390094E+03</pdfrwt>
<totfact> 0.52270408E+04</totfact>
</mgrwt>
</event>
<event>
 7    0  0.4709932E-002  0.4553737E+03  0.7546771E-02  0.1026132E+00
         21   -1    0    0  502  501  0.00000000000E+00  0.00000000000E+00  0.33993553769E+03  0.33993553769E+03  0.00000000000E+00 0.  1.
         21   -1    0    0  501  502 -0.00000000000E+00 -0.00000000000E+00 -0.15250333145E+03  0.15250333145E+03  0.00000000000E+00 0.  1.
      99926    2    1    2    0    0  0.00000000000E+00 -0.35527136788E-14  0.18743220624E+03  0.49243886914E+03  0.45537370138E+03 0.  0.
      99925    2    3    3    0    0  0.71883085703E+02  0.20122346086E+02  0.25106522153E+02  0.27433517216E+03  0.26278767553E+03 0.  0.
         25    1    3    3    0    0 -0.71883085703E+02 -0.20122346086E+02  0.16232568409E+03  0.21810369698E+03  0.12509000000E+03 0.  0.
         25    1    4    4    0    0 -0.29381291008E+01  0.19001467165E+02  0.22530987133E+02  0.12854898614E+03  0.12509000000E+03 0.  0.
         25    1    4    4    0    0  0.74821214804E+02  0.11208789205E+01  0.25755350199E+01  0.14578618602E+03  0.12509000000E+03 0.  0.
<mgrwt>
<rscale>  2 0.45537370E+03</rscale>
<asrwt>0</asrwt>
<pdfrwt beam="1">  1       21 0.49990520E-01 0.45537370E+03</pdfrwt>
<pdfrwt beam="2">  1       21 0.22426961E-01 0.45537370E+03</pdfrwt>
<totfact> 0.65610319E+04</totfact>
</mgrwt>
</event>
<event>
 7    0  0.4709932E-002  0.4541544E+03  0.7546771E-02  0.1026490E+00
         21   -1    0    0  502  501  0.00000000000E+00  0.00000000000E+00  0.15698882895E+04  0.15698882895E+04  0.00000000000E+00 0.  1.
         21   -1    0    0  501  502 -0.00000000000E+00 -0.00000000000E+00 -0.32845686852E+02  0.32845686852E+02  0.00000000000E+00 0.  1.
      99926    2    1    2    0    0  0.00000000000E+00 -0.71054273576E-14  0.15370426026E+04  0.16027339763E+04  0.45415441933E+03 0.  0.
      99925    2    3    3    0    0  0.10495970739E+03  0.39355329871E+02  0.93962273959E+03  0.98215087713E+03  0.26299062821E+03 0.  0.
         25    1    3    3    0    0 -0.10495970739E+03 -0.39355329871E+02  0.59741986304E+03  0.62058309920E+03  0.12509000000E+03 0.  0.
         25    1    4    4    0    0  0.85843185751E+02  0.34267278275E+02  0.59507471087E+03  0.61506480839E+03  0.12509000000E+03 0.  0.
         25    1    4    4    0    0  0.19116521640E+02  0.50880515964E+01  0.34454802871E+03  0.36708606874E+03  0.12509000000E+03 0.  0.
<mgrwt>
<rscale>  2 0.45415442E+03</rscale>
<asrwt>0</asrwt>
<pdfrwt beam="1">  1       21 0.23086587E+00 0.45415442E+03</pdfrwt>
<pdfrwt beam="2">  1       21 0.48302491E-02 0.45415442E+03</pdfrwt>
<totfact> 0.21508962E+04</totfact>
</mgrwt>
</event>
<event>
 7    0  0.4709932E-002  0.4653768E+03  0.7546771E-02  0.1023233E+00
         21   -1    0    0  502  501  0.00000000000E+00  0.00000000000E+00  0.10369270041E+04  0.10369270041E+04  0.00000000000E+00 0. -1.
         21   -1    0    0  501  502 -0.00000000000E+00 -0.00000000000E+00 -0.52215714957E+02  0.52215714957E+02  0.00000000000E+00 0. -1.
      99926    2    1    2    0    0  0.00000000000E+00  0.00000000000E+00  0.98471128914E+03  0.10891427191E+04  0.46537677156E+03 0.  0.
      99925    2    3    3    0    0  0.75620879091E+02 -0.83094828020E+02  0.49740534553E+03  0.57364503858E+03  0.26274185949E+03 0.  0.
         25    1    3    3    0    0 -0.75620879091E+02  0.83094828020E+02  0.48730594360E+03  0.51549768047E+03  0.12509000000E+03 0.  0.
         25    1    4    4    0    0  0.41766202146E+02 -0.77279112023E+02  0.22606318165E+03  0.27288925774E+03  0.12509000000E+03 0.  0.
         25    1    4    4    0    0  0.33854676945E+02 -0.58157159968E+01  0.27134216389E+03  0.30075578084E+03  0.12509000000E+03 0.  0.
<mgrwt>
<rscale>  2 0.46537677E+03</rscale>
<asrwt>0</asrwt>
<pdfrwt beam="1">  1       21 0.15248925E+00 0.46537677E+03</pdfrwt>
<pdfrwt beam="2">  1       21 0.76787823E-02 0.46537677E+03</pdfrwt>
<totfact> 0.33110073E+04</totfact>
</mgrwt>
</event>
<event>
 7    0  0.4709932E-002  0.4587511E+03  0.7546771E-02  0.1025144E+00
         21   -1    0    0  502  501  0.00000000000E+00  0.00000000000E+00  0.73724753065E+02  0.73724753065E+02  0.00000000000E+00 0. -1.
         21   -1    0    0  501  502 -0.00000000000E+00 -0.00000000000E+00 -0.71364295289E+03  0.71364295289E+03  0.00000000000E+00 0. -1.
      99926    2    1    2    0    0  0.00000000000E+00  0.00000000000E+00 -0.63991819982E+03  0.78736770596E+03  0.45875113288E+03 0.  0.
      99925    2    3    3    0    0  0.31535399803E+02  0.93928768449E+02 -0.50664167037E+03  0.57945609881E+03  0.26318528323E+03 0.  0.
         25    1    3    3    0    0 -0.31535399803E+02 -0.93928768449E+02 -0.13327652946E+03  0.20791160715E+03  0.12509000000E+03 0.  0.
         25    1    4    4    0    0 -0.11635013820E+02  0.50510014962E+02 -0.31204915639E+03  0.34015999068E+03  0.12509000000E+03 0.  0.
         25    1    4    4    0    0  0.43170413623E+02  0.43418753488E+02 -0.19459251398E+03  0.23929610812E+03  0.12509000000E+03 0.  0.
<mgrwt>
<rscale>  2 0.45875113E+03</rscale>
<asrwt>0</asrwt>
<pdfrwt beam="1">  1       21 0.10841876E-01 0.45875113E+03</pdfrwt>
<pdfrwt beam="2">  1       21 0.10494749E+00 0.45875113E+03</pdfrwt>
<totfact> 0.46983329E+04</totfact>
</mgrwt>
</event>
<event>
 7    0  0.4709932E-002  0.4636157E+03  0.7546771E-02  0.1023738E+00
         21   -1    0    0  502  501  0.00000000000E+00  0.00000000000E+00  0.63850290161E+02  0.63850290161E+02  0.00000000000E+00 0. -1.
         21   -1    0    0  501  502 -0.00000000000E+00 -0.00000000000E+00 -0.84157598424E+03  0.84157598424E+03  0.00000000000E+00 0. -1.
      99926    2    1    2    0    0  0.00000000000E+00  0.00000000000E+00 -0.77772569408E+03  0.90542627440E+03  0.46361566318E+03 0.  0.
      99925    2    3    3    0    0  0.33788917396E+02 -0.87734085031E+02 -0.63467399320E+03  0.69341151586E+03  0.26300093549E+03 0.  0.
         25    1    4    4    0    0 -0.37072792971E+01 -0.28332514356E+02 -0.38039665598E+03  0.40145435515E+03  0.12509000000E+03 0.  0.
         25    1    4    4    0    0  0.37496196694E+02 -0.59401570675E+02 -0.25427733722E+03  0.29195716071E+03  0.12509000000E+03 0.  0.
         25    1    3    3    0    0 -0.33788917396E+02  0.87734085031E+02 -0.14305170088E+03  0.21201475854E+03  0.12509000000E+03 0.  0.
<mgrwt>
<rscale>  2 0.46361566E+03</rscale>
<asrwt>0</asrwt>
<pdfrwt beam="1">  1       21 0.93897491E-02 0.46361566E+03</pdfrwt>
<pdfrwt beam="2">  1       21 0.12376117E+00 0.46361566E+03</pdfrwt>
<totfact> 0.40217757E+04</totfact>
</mgrwt>
</event>
<event>
 7    0  0.4709932E-002  0.4310429E+03  0.7546771E-02  0.1033531E+00
         21   -1    0    0  502  501  0.00000000000E+00  0.00000000000E+00  0.10880411272E+04  0.10880411272E+04  0.00000000000E+00 0.  1.
         21   -1    0    0  501  502 -0.00000000000E+00 -0.00000000000E+00 -0.42690947024E+02  0.42690947024E+02  0.00000000000E+00 0.  1.
      99926    2    1    2    0    0  0.00000000000E+00  0.00000000000E+00  0.10453501802E+04  0.11307320742E+04  0.43104294969E+03 0.  0.
      99925    2    3    3    0    0  0.59189072574E+02 -0.55070832105E+02  0.76986897459E+03  0.81756511301E+03  0.26301774298E+03 0.  0.
         25    1    4    4    0    0  0.48848529285E+02 -0.59426876630E+01  0.46900075099E+03  0.48788390718E+03  0.12509000000E+03 0.  0.
         25    1    4    4    0    0  0.10340543289E+02 -0.49128144442E+02  0.30086822360E+03  0.32968120584E+03  0.12509000000E+03 0.  0.
         25    1    3    3    0    0 -0.59189072574E+02  0.55070832105E+02  0.27548120557E+03  0.31316696120E+03  0.12509000000E+03 0.  0.
<mgrwt>
<rscale>  2 0.43104295E+03</rscale>
<asrwt>0</asrwt>
<pdfrwt beam="1">  1       21 0.16000603E+00 0.43104295E+03</pdfrwt>
<pdfrwt beam="2">  1       21 0.62780811E-02 0.43104295E+03</pdfrwt>
<totfact> 0.41690653E+04</totfact>
</mgrwt>
</event>
<event>
 7    0  0.4709932E-002  0.4606288E+03  0.7546771E-02  0.1024599E+00
         21   -1    0    0  502  501  0.00000000000E+00  0.00000000000E+00  0.38216055090E+03  0.38216055090E+03  0.00000000000E+00 0. -1.
         21   -1    0    0  501  502 -0.00000000000E+00 -0.00000000000E+00 -0.13880221795E+03  0.13880221795E+03  0.00000000000E+00 0. -1.
      99926    2    1    2    0    0  0.00000000000E+00  0.00000000000E+00  0.24335833295E+03  0.52096276884E+03  0.46062884007E+03 0.  0.
      99925    2    3    3    0    0  0.31297847058E+02  0.99895644576E+02  0.90073469798E+02  0.29712699778E+03  0.26308273948E+03 0.  0.
         25    1    4    4    0    0  0.43217463265E+01  0.77709014816E+02  0.77979351481E+02  0.16669029916E+03  0.12509000000E+03 0.  0.
         25    1    3    3    0    0 -0.31297847058E+02 -0.99895644576E+02  0.15328486315E+03  0.22383577106E+03  0.12509000000E+03 0.  0.
         25    1    4    4    0    0  0.26976100731E+02  0.22186629760E+02  0.12094118317E+02  0.13043669863E+03  0.12509000000E+03 0.  0.
<mgrwt>
<rscale>  2 0.46062884E+03</rscale>
<asrwt>0</asrwt>
<pdfrwt beam="1">  1       21 0.56200081E-01 0.46062884E+03</pdfrwt>
<pdfrwt beam="2">  1       21 0.20412091E-01 0.46062884E+03</pdfrwt>
<totfact> 0.61049266E+04</totfact>
</mgrwt>
</event>
<event>
 7    0  0.4709932E-002  0.4573488E+03  0.7546771E-02  0.1025553E+00
         21   -1    0    0  502  501  0.00000000000E+00  0.00000000000E+00  0.10081081200E+04  0.10081081200E+04  0.00000000000E+00 0. -1.
         21   -1    0    0  501  502 -0.00000000000E+00 -0.00000000000E+00 -0.51871399490E+02  0.51871399490E+02  0.00000000000E+00 0. -1.
      99926    2    1    2    0    0  0.00000000000E+00  0.00000000000E+00  0.95623672047E+03  0.10599795195E+04  0.45734879040E+03 0.  0.
      99925    2    3    3    0    0 -0.38907074942E+02  0.49178444456E+02  0.37573328187E+03  0.46284969252E+03  0.26291074319E+03 0.  0.
         25    1    3    3    0    0  0.38907074942E+02 -0.49178444456E+02  0.58050343860E+03  0.59712982693E+03  0.12509000000E+03 0.  0.
         25    1    4    4    0    0 -0.26312305843E+02  0.62661400479E+02  0.17470501699E+03  0.22536224087E+03  0.12509000000E+03 0.  0.
         25    1    4    4    0    0 -0.12594769100E+02 -0.13482956023E+02  0.20102826488E+03  0.23748745165E+03  0.12509000000E+03 0.  0.
<mgrwt>
<rscale>  2 0.45734879E+03</rscale>
<asrwt>0</asrwt>
<pdfrwt beam="1">  1       21 0.14825118E+00 0.45734879E+03</pdfrwt>
<pdfrwt beam="2">  1       21 0.76281476E-02 0.45734879E+03</pdfrwt>
<totfact> 0.36244363E+04</totfact>
</mgrwt>
</event>
<event>
 7    0  0.4709932E-002  0.4537175E+03  0.7546771E-02  0.1026619E+00
         21   -1    0    0  502  501  0.00000000000E+00  0.00000000000E+00  0.26684617867E+03  0.26684617867E+03  0.00000000000E+00 0.  1.
         21   -1    0    0  501  502 -0.00000000000E+00 -0.00000000000E+00 -0.19286355484E+03  0.19286355484E+03  0.00000000000E+00 0.  1.
      99926    2    1    2    0    0  0.14210854715E-13  0.00000000000E+00  0.73982623829E+02  0.45970973352E+03  0.45371754480E+03 0.  0.
      99925    2    3    3    0    0 -0.80518997189E+02  0.55719333198E+02  0.10152405258E+03  0.29848321151E+03  0.26305349513E+03 0.  0.
         25    1    4    4    0    0 -0.36293181748E+02 -0.13371819424E+02  0.42298714263E+02  0.13759611159E+03  0.12509000000E+03 0.  0.
         25    1    3    3    0    0  0.80518997189E+02 -0.55719333198E+02 -0.27541428752E+02  0.16122652201E+03  0.12509000000E+03 0.  0.
         25    1    4    4    0    0 -0.44225815442E+02  0.69091152622E+02  0.59225338319E+02  0.16088709992E+03  0.12509000000E+03 0.  0.
<mgrwt>
<rscale>  2 0.45371754E+03</rscale>
<asrwt>0</asrwt>
<pdfrwt beam="1">  1       21 0.39242085E-01 0.45371754E+03</pdfrwt>
<pdfrwt beam="2">  1       21 0.28362288E-01 0.45371754E+03</pdfrwt>
<totfact> 0.68903654E+04</totfact>
</mgrwt>
</event>
<event>
 7    0  0.4709932E-002  0.4588667E+03  0.7546771E-02  0.1025110E+00
         21   -1    0    0  502  501  0.00000000000E+00  0.00000000000E+00  0.14055056953E+03  0.14055056953E+03  0.00000000000E+00 0. -1.
         21   -1    0    0  501  502 -0.00000000000E+00 -0.00000000000E+00 -0.37452469004E+03  0.37452469004E+03  0.00000000000E+00 0. -1.
      99926    2    1    2    0    0  0.00000000000E+00 -0.35527136788E-14 -0.23397412051E+03  0.51507525958E+03  0.45886668430E+03 0.  0.
      99925    2    3    3    0    0  0.10734502337E+03  0.28422906799E+02 -0.10612914739E+03  0.30454578201E+03  0.26297133255E+03 0.  0.
         25    1    3    3    0    0 -0.10734502337E+03 -0.28422906799E+02 -0.12784497312E+03  0.21052947757E+03  0.12509000000E+03 0.  0.
         25    1    4    4    0    0  0.34123712094E+02 -0.36284484699E+00 -0.14025421627E+02  0.13041771327E+03  0.12509000000E+03 0.  0.
         25    1    4    4    0    0  0.73221311275E+02  0.28785751646E+02 -0.92103725767E+02  0.17412806874E+03  0.12509000000E+03 0.  0.
<mgrwt>
<rscale>  2 0.45886668E+03</rscale>
<asrwt>0</asrwt>
<pdfrwt beam="1">  1       21 0.20669202E-01 0.45886668E+03</pdfrwt>
<pdfrwt beam="2">  1       21 0.55077159E-01 0.45886668E+03</pdfrwt>
<totfact> 0.62290620E+04</totfact>
</mgrwt>
</event>
<event>
 7    0  0.4709932E-002  0.4417681E+03  0.7546771E-02  0.1030206E+00
         21   -1    0    0  502  501  0.00000000000E+00  0.00000000000E+00  0.18230658123E+03  0.18230658123E+03  0.00000000000E+00 0. -1.
         21   -1    0    0  501  502 -0.00000000000E+00 -0.00000000000E+00 -0.26762483376E+03  0.26762483376E+03  0.00000000000E+00 0. -1.
      99926    2    1    2    0    0  0.00000000000E+00  0.00000000000E+00 -0.85318252531E+02  0.44993141500E+03  0.44176812242E+03 0.  0.
      99925    2    3    3    0    0  0.24695821650E+02 -0.95530606874E+02 -0.72528180861E+02  0.29009689279E+03  0.26298267953E+03 0.  0.
         25    1    4    4    0    0  0.52837719434E+02 -0.49817468924E+02 -0.41616611696E+02  0.15050931956E+03  0.12509000000E+03 0.  0.
         25    1    3    3    0    0 -0.24695821650E+02  0.95530606874E+02 -0.12790071670E+02  0.15983452221E+03  0.12509000000E+03 0.  0.
         25    1    4    4    0    0 -0.28141897784E+02 -0.45713137950E+02 -0.30911569165E+02  0.13958757323E+03  0.12509000000E+03 0.  0.
<mgrwt>
<rscale>  2 0.44176812E+03</rscale>
<asrwt>0</asrwt>
<pdfrwt beam="1">  1       21 0.26809792E-01 0.44176812E+03</pdfrwt>
<pdfrwt beam="2">  1       21 0.39356593E-01 0.44176812E+03</pdfrwt>
<totfact> 0.76697134E+04</totfact>
</mgrwt>
</event>
<event>
 7    0  0.4709932E-002  0.4515180E+03  0.7546771E-02  0.1027270E+00
         21   -1    0    0  502  501  0.00000000000E+00  0.00000000000E+00  0.51404099488E+02  0.51404099488E+02  0.00000000000E+00 0.  1.
         21   -1    0    0  501  502 -0.00000000000E+00 -0.00000000000E+00 -0.99149934508E+03  0.99149934508E+03  0.00000000000E+00 0.  1.
      99926    2    1    2    0    0  0.14210854715E-13  0.00000000000E+00 -0.94009524559E+03  0.10429034446E+04  0.45151802168E+03 0.  0.
      99925    2    3    3    0    0 -0.93729715645E+02 -0.54148821144E+02 -0.63690386981E+03  0.69751978416E+03  0.26300181652E+03 0.  0.
         25    1    4    4    0    0 -0.12692911933E+02 -0.23526945454E+02 -0.35215234729E+03  0.37466439780E+03  0.12509000000E+03 0.  0.
         25    1    3    3    0    0  0.93729715645E+02  0.54148821144E+02 -0.30319137578E+03  0.34538366040E+03  0.12509000000E+03 0.  0.
         25    1    4    4    0    0 -0.81036803712E+02 -0.30621875690E+02 -0.28475152252E+03  0.32285538637E+03  0.12509000000E+03 0.  0.
<mgrwt>
<rscale>  2 0.45151802E+03</rscale>
<asrwt>0</asrwt>
<pdfrwt beam="1">  1       21 0.75594270E-02 0.45151802E+03</pdfrwt>
<pdfrwt beam="2">  1       21 0.14580871E+00 0.45151802E+03</pdfrwt>
<totfact> 0.38576753E+04</totfact>
</mgrwt>
</event>
<event>
 7    0  0.4709932E-002  0.4552034E+03  0.7546771E-02  0.1026182E+00
         21   -1    0    0  502  501  0.00000000000E+00  0.00000000000E+00  0.20028985424E+03  0.20028985424E+03  0.00000000000E+00 0. -1.
         21   -1    0    0  501  502 -0.00000000000E+00 -0.00000000000E+00 -0.25863779789E+03  0.25863779789E+03  0.00000000000E+00 0. -1.
      99926    2    1    2    0    0  0.00000000000E+00  0.71054273576E-14 -0.58347943659E+02  0.45892765213E+03  0.45520336923E+03 0.  0.
      99925    2    3    3    0    0 -0.99299370009E+02 -0.54513737398E+02 -0.35032755803E+02  0.28856563015E+03  0.26307929693E+03 0.  0.
         25    1    4    4    0    0 -0.49388157616E+02 -0.65814708964E+02 -0.33377114824E+02  0.15340243128E+03  0.12509000000E+03 0.  0.
         25    1    4    4    0    0 -0.49911212392E+02  0.11300971566E+02 -0.16556409796E+01  0.13516319887E+03  0.12509000000E+03 0.  0.
         25    1    3    3    0    0  0.99299370009E+02  0.54513737398E+02 -0.23315187856E+02  0.17036202198E+03  0.12509000000E+03 0.  0.
<mgrwt>
<rscale>  2 0.45520337E+03</rscale>
<asrwt>0</asrwt>
<pdfrwt beam="1">  1       21 0.29454391E-01 0.45520337E+03</pdfrwt>
<pdfrwt beam="2">  1       21 0.38034970E-01 0.45520337E+03</pdfrwt>
<totfact> 0.68148176E+04</totfact>
</mgrwt>
</event>
<event>
 7    0  0.4709932E-002  0.4561152E+03  0.7546771E-02  0.1025914E+00
         21   -1    0    0  502  501  0.00000000000E+00  0.00000000000E+00  0.27690449846E+03  0.27690449846E+03  0.00000000000E+00 0.  1.
         21   -1    0    0  501  502 -0.00000000000E+00 -0.00000000000E+00 -0.18782747677E+03  0.18782747677E+03  0.00000000000E+00 0.  1.
      99926    2    1    2    0    0  0.14210854715E-13  0.00000000000E+00  0.89077021687E+02  0.46473197523E+03  0.45611521901E+03 0.  0.
      99925    2    3    3    0    0 -0.98192013773E+02 -0.51694570684E+02  0.28389525315E+02  0.28684301964E+03  0.26298089771E+03 0.  0.
         25    1    3    3    0    0  0.98192013773E+02  0.51694570684E+02  0.60687496372E+02  0.17788895560E+03  0.12509000000E+03 0.  0.
         25    1    4    4    0    0 -0.27096755870E+02 -0.10901457626E+02  0.45588076999E+02  0.13630428028E+03  0.12509000000E+03 0.  0.
         25    1    4    4    0    0 -0.71095257903E+02 -0.40793113058E+02 -0.17198551684E+02  0.15053873936E+03  0.12509000000E+03 0.  0.
<mgrwt>
<rscale>  2 0.45611522E+03</rscale>
<asrwt>0</asrwt>
<pdfrwt beam="1">  1       21 0.40721250E-01 0.45611522E+03</pdfrwt>
<pdfrwt beam="2">  1       21 0.27621688E-01 0.45611522E+03</pdfrwt>
<totfact> 0.67232104E+04</totfact>
</mgrwt>
</event>
<event>
 7    0  0.4709932E-002  0.4501717E+03  0.7546771E-02  0.1027671E+00
         21   -1    0    0  502  501  0.00000000000E+00  0.00000000000E+00  0.16480132851E+03  0.16480132851E+03  0.00000000000E+00 0.  1.
         21   -1    0    0  501  502 -0.00000000000E+00 -0.00000000000E+00 -0.30742256963E+03  0.30742256963E+03  0.00000000000E+00 0.  1.
      99926    2    1    2    0    0  0.00000000000E+00  0.00000000000E+00 -0.14262124112E+03  0.47222389815E+03  0.45017173563E+03 0.  0.
      99925    2    3    3    0    0 -0.62752203464E+02 -0.86407719436E+02 -0.10927705198E+03  0.30440412557E+03  0.26327982178E+03 0.  0.
         25    1    4    4    0    0 -0.52840654236E+02 -0.16070129896E+02 -0.29404224612E+02  0.13986600852E+03  0.12509000000E+03 0.  0.
         25    1    4    4    0    0 -0.99115492287E+01 -0.70337589540E+02 -0.79872827368E+02  0.16453811705E+03  0.12509000000E+03 0.  0.
         25    1    3    3    0    0  0.62752203464E+02  0.86407719436E+02 -0.33344189138E+02  0.16781977257E+03  0.12509000000E+03 0.  0.
<mgrwt>
<rscale>  2 0.45017174E+03</rscale>
<asrwt>0</asrwt>
<pdfrwt beam="1">  1       21 0.24235490E-01 0.45017174E+03</pdfrwt>
<pdfrwt beam="2">  1       21 0.45209201E-01 0.45017174E+03</pdfrwt>
<totfact> 0.69911240E+04</totfact>
</mgrwt>
</event>
<event>
 7    0  0.4709932E-002  0.4508512E+03  0.7546771E-02  0.1027469E+00
         21   -1    0    0  502  501  0.00000000000E+00  0.00000000000E+00  0.15763935579E+03  0.15763935579E+03  0.00000000000E+00 0.  1.
         21   -1    0    0  501  502 -0.00000000000E+00 -0.00000000000E+00 -0.32236047913E+03  0.32236047913E+03  0.00000000000E+00 0.  1.
      99926    2    1    2    0    0  0.00000000000E+00  0.00000000000E+00 -0.16472112334E+03  0.47999983492E+03  0.45085118725E+03 0.  0.
      99925    2    3    3    0    0  0.23296238477E+02  0.68226128137E+02 -0.16979430540E+02  0.27342627616E+03  0.26320354888E+03 0.  0.
         25    1    3    3    0    0 -0.23296238477E+02 -0.68226128137E+02 -0.14774169280E+03  0.20657355876E+03  0.12509000000E+03 0.  0.
         25    1    4    4    0    0  0.31691887563E+02  0.18824485854E+02 -0.40677249986E+02  0.13660484534E+03  0.12509000000E+03 0.  0.
         25    1    4    4    0    0 -0.83956490854E+01  0.49401642283E+02  0.23697819446E+02  0.13682143082E+03  0.12509000000E+03 0.  0.
<mgrwt>
<rscale>  2 0.45085119E+03</rscale>
<asrwt>0</asrwt>
<pdfrwt beam="1">  1       21 0.23182258E-01 0.45085119E+03</pdfrwt>
<pdfrwt beam="2">  1       21 0.47405953E-01 0.45085119E+03</pdfrwt>
<totfact> 0.68942788E+04</totfact>
</mgrwt>
</event>
<event>
 7    0  0.4709932E-002  0.4469110E+03  0.7546771E-02  0.1028647E+00
         21   -1    0    0  502  501  0.00000000000E+00  0.00000000000E+00  0.32929307986E+03  0.32929307986E+03  0.00000000000E+00 0. -1.
         21   -1    0    0  501  502 -0.00000000000E+00 -0.00000000000E+00 -0.15163503200E+03  0.15163503200E+03  0.00000000000E+00 0. -1.
      99926    2    1    2    0    0  0.00000000000E+00  0.00000000000E+00  0.17765804786E+03  0.48092811187E+03  0.44691102785E+03 0.  0.
      99925    2    3    3    0    0 -0.42132077881E+02  0.29850957193E+02  0.13849791609E+02  0.26845024350E+03  0.26307323101E+03 0.  0.
         25    1    4    4    0    0 -0.47470377198E+02 -0.76266071760E+01  0.28281035784E+02  0.13696323205E+03  0.12509000000E+03 0.  0.
         25    1    4    4    0    0  0.53382993177E+01  0.37477564369E+02 -0.14431244175E+02  0.13148701145E+03  0.12509000000E+03 0.  0.
         25    1    3    3    0    0  0.42132077881E+02 -0.29850957193E+02  0.16380825625E+03  0.21247786837E+03  0.12509000000E+03 0.  0.
<mgrwt>
<rscale>  2 0.44691103E+03</rscale>
<asrwt>0</asrwt>
<pdfrwt beam="1">  1       21 0.48425453E-01 0.44691103E+03</pdfrwt>
<pdfrwt beam="2">  1       21 0.22299269E-01 0.44691103E+03</pdfrwt>
<totfact> 0.71088967E+04</totfact>
</mgrwt>
</event>
<event>
 7    0  0.4709932E-002  0.4348687E+03  0.7546771E-02  0.1032333E+00
         21   -1    0    0  502  501  0.00000000000E+00  0.00000000000E+00  0.20436982640E+02  0.20436982640E+02  0.00000000000E+00 0.  1.
         21   -1    0    0  501  502 -0.00000000000E+00 -0.00000000000E+00 -0.23133400249E+04  0.23133400249E+04  0.00000000000E+00 0.  1.
      99926    2    1    2    0    0  0.71054273576E-14  0.00000000000E+00 -0.22929030423E+04  0.23337770076E+04  0.43486866951E+03 0.  0.
      99925    2    3    3    0    0  0.48498283224E+02  0.77815896526E+02 -0.13850724246E+04  0.14127931121E+04  0.26296645972E+03 0.  0.
         25    1    4    4    0    0  0.23978518915E+02  0.78490935169E+02 -0.81810059696E+03  0.83166813761E+03  0.12509000000E+03 0.  0.
         25    1    3    3    0    0 -0.48498283224E+02 -0.77815896526E+02 -0.90783061767E+03  0.92098389546E+03  0.12509000000E+03 0.  0.
         25    1    4    4    0    0  0.24519764309E+02 -0.67503864237E+00 -0.56697182766E+03  0.58112497449E+03  0.12509000000E+03 0.  0.
<mgrwt>
<rscale>  2 0.43486867E+03</rscale>
<asrwt>0</asrwt>
<pdfrwt beam="1">  1       21 0.30054409E-02 0.43486867E+03</pdfrwt>
<pdfrwt beam="2">  1       21 0.34019680E+00 0.43486867E+03</pdfrwt>
<totfact> 0.10540837E+04</totfact>
</mgrwt>
</event>
<event>
 7    0  0.4709932E-002  0.4550975E+03  0.7546771E-02  0.1026213E+00
         21   -1    0    0  502  501  0.00000000000E+00  0.00000000000E+00  0.47533098532E+02  0.47533098532E+02  0.00000000000E+00 0.  1.
         21   -1    0    0  501  502 -0.00000000000E+00 -0.00000000000E+00 -0.10893133739E+04  0.10893133739E+04  0.00000000000E+00 0.  1.
      99926    2    1    2    0    0 -0.14210854715E-13  0.00000000000E+00 -0.10417802754E+04  0.11368464725E+04  0.45509752773E+03 0.  0.
      99925    2    3    3    0    0  0.80250193979E+02  0.38790087820E+02 -0.48100217311E+03  0.55541345598E+03  0.26301378672E+03 0.  0.
         25    1    3    3    0    0 -0.80250193979E+02 -0.38790087820E+02 -0.56077810231E+03  0.58143301650E+03  0.12509000000E+03 0.  0.
         25    1    4    4    0    0  0.46191718325E+02  0.16598293974E+02 -0.32295550451E+03  0.34979557487E+03  0.12509000000E+03 0.  0.
         25    1    4    4    0    0  0.34058475654E+02  0.22191793847E+02 -0.15804666860E+03  0.20561788111E+03  0.12509000000E+03 0.  0.
<mgrwt>
<rscale>  2 0.45509753E+03</rscale>
<asrwt>0</asrwt>
<pdfrwt beam="1">  1       21 0.69901620E-02 0.45509753E+03</pdfrwt>
<pdfrwt beam="2">  1       21 0.16019313E+00 0.45509753E+03</pdfrwt>
<totfact> 0.34198582E+04</totfact>
</mgrwt>
</event>
<event>
 7    0  0.4709932E-002  0.4583392E+03  0.7546771E-02  0.1025264E+00
         21   -1    0    0  502  501  0.00000000000E+00  0.00000000000E+00  0.47557980252E+03  0.47557980252E+03  0.00000000000E+00 0. -1.
         21   -1    0    0  501  502 -0.00000000000E+00 -0.00000000000E+00 -0.11043089062E+03  0.11043089062E+03  0.00000000000E+00 0. -1.
      99926    2    1    2    0    0  0.00000000000E+00  0.00000000000E+00  0.36514891189E+03  0.58601069314E+03  0.45833918076E+03 0.  0.
      99925    2    3    3    0    0 -0.40442999655E+02 -0.71451969887E+02  0.33419925805E+03  0.43321537451E+03  0.26314520025E+03 0.  0.
         25    1    4    4    0    0 -0.59396747662E+02 -0.47474662137E+02  0.19076002331E+03  0.24045521781E+03  0.12509000000E+03 0.  0.
         25    1    4    4    0    0  0.18953748007E+02 -0.23977307750E+02  0.14343923474E+03  0.19276015670E+03  0.12509000000E+03 0.  0.
         25    1    3    3    0    0  0.40442999655E+02  0.71451969887E+02  0.30949653847E+02  0.15279531863E+03  0.12509000000E+03 0.  0.
<mgrwt>
<rscale>  2 0.45833918E+03</rscale>
<asrwt>0</asrwt>
<pdfrwt beam="1">  1       21 0.69938206E-01 0.45833918E+03</pdfrwt>
<pdfrwt beam="2">  1       21 0.16239837E-01 0.45833918E+03</pdfrwt>
<totfact> 0.58001561E+04</totfact>
</mgrwt>
</event>
<event>
 7    0  0.4709932E-002  0.4537592E+03  0.7546771E-02  0.1026607E+00
         21   -1    0    0  502  501  0.00000000000E+00  0.00000000000E+00  0.52221962779E+03  0.52221962779E+03  0.00000000000E+00 0. -1.
         21   -1    0    0  501  502 -0.00000000000E+00 -0.00000000000E+00 -0.98568381491E+02  0.98568381491E+02  0.00000000000E+00 0. -1.
      99926    2    1    2    0    0  0.00000000000E+00  0.00000000000E+00  0.42365124630E+03  0.62078800928E+03  0.45375915856E+03 0.  0.
      99925    2    3    3    0    0  0.32887327252E+02 -0.63687385978E+02  0.38462107455E+03  0.47142763357E+03  0.26300757266E+03 0.  0.
         25    1    4    4    0    0  0.57065566231E+02 -0.30387483548E+02  0.19221079552E+03  0.23826954488E+03  0.12509000000E+03 0.  0.
         25    1    4    4    0    0 -0.24178238979E+02 -0.33299902430E+02  0.19241027903E+03  0.23315808868E+03  0.12509000000E+03 0.  0.
         25    1    3    3    0    0 -0.32887327252E+02  0.63687385978E+02  0.39030171752E+02  0.14936037571E+03  0.12509000000E+03 0.  0.
<mgrwt>
<rscale>  2 0.45375916E+03</rscale>
<asrwt>0</asrwt>
<pdfrwt beam="1">  1       21 0.76797003E-01 0.45375916E+03</pdfrwt>
<pdfrwt beam="2">  1       21 0.14495350E-01 0.45375916E+03</pdfrwt>
<totfact> 0.57982647E+04</totfact>
</mgrwt>
</event>
<event>
 7    0  0.4709932E-002  0.4587796E+03  0.7546771E-02  0.1025136E+00
         21   -1    0    0  502  501  0.00000000000E+00  0.00000000000E+00  0.12495777202E+03  0.12495777202E+03  0.00000000000E+00 0.  1.
         21   -1    0    0  501  502 -0.00000000000E+00 -0.00000000000E+00 -0.42109971188E+03  0.42109971188E+03  0.00000000000E+00 0.  1.
      99926    2    1    2    0    0  0.00000000000E+00  0.00000000000E+00 -0.29614193986E+03  0.54605748390E+03  0.45877960632E+03 0.  0.
      99925    2    3    3    0    0 -0.88408717070E+02 -0.10787431575E+02 -0.95654427234E+02  0.29351992084E+03  0.26281496256E+03 0.  0.
         25    1    4    4    0    0 -0.72763830135E+02 -0.28151627362E+02 -0.72064070674E+02  0.16409700631E+03  0.12509000000E+03 0.  0.
         25    1    3    3    0    0  0.88408717070E+02  0.10787431575E+02 -0.20048751263E+03  0.25253756305E+03  0.12509000000E+03 0.  0.
         25    1    4    4    0    0 -0.15644886936E+02  0.17364195787E+02 -0.23590356561E+02  0.12942291453E+03  0.12509000000E+03 0.  0.
<mgrwt>
<rscale>  2 0.45877961E+03</rscale>
<asrwt>0</asrwt>
<pdfrwt beam="1">  1       21 0.18376143E-01 0.45877961E+03</pdfrwt>
<pdfrwt beam="2">  1       21 0.61926427E-01 0.45877961E+03</pdfrwt>
<totfact> 0.60303933E+04</totfact>
</mgrwt>
</event>
<event>
 7    0  0.4709932E-002  0.4573138E+03  0.7546771E-02  0.1025563E+00
         21   -1    0    0  502  501  0.00000000000E+00  0.00000000000E+00  0.70962576322E+03  0.70962576322E+03  0.00000000000E+00 0. -1.
         21   -1    0    0  501  502 -0.00000000000E+00 -0.00000000000E+00 -0.73678225741E+02  0.73678225741E+02  0.00000000000E+00 0. -1.
      99926    2    1    2    0    0  0.17763568394E-14  0.14210854715E-13  0.63594753748E+03  0.78330398897E+03  0.45731375302E+03 0.  0.
      99925    2    3    3    0    0  0.13725000676E+02  0.11269326076E+03  0.43489559211E+03  0.52070631285E+03  0.26289302300E+03 0.  0.
         25    1    4    4    0    0 -0.92139409878E+01  0.36469830293E+02  0.14544827031E+03  0.19549335709E+03  0.12509000000E+03 0.  0.
         25    1    4    4    0    0  0.22938941663E+02  0.76223430463E+02  0.28944732180E+03  0.32521295576E+03  0.12509000000E+03 0.  0.
         25    1    3    3    0    0 -0.13725000676E+02 -0.11269326076E+03  0.20105194538E+03  0.26259767612E+03  0.12509000000E+03 0.  0.
<mgrwt>
<rscale>  2 0.45731375E+03</rscale>
<asrwt>0</asrwt>
<pdfrwt beam="1">  1       21 0.10435673E+00 0.45731375E+03</pdfrwt>
<pdfrwt beam="2">  1       21 0.10835034E-01 0.45731375E+03</pdfrwt>
<totfact> 0.47710653E+04</totfact>
</mgrwt>
</event>
<event>
 7    0  0.4709932E-002  0.4526978E+03  0.7546771E-02  0.1026921E+00
         21   -1    0    0  502  501  0.00000000000E+00  0.00000000000E+00  0.10750266130E+03  0.10750266130E+03  0.00000000000E+00 0. -1.
         21   -1    0    0  501  502 -0.00000000000E+00 -0.00000000000E+00 -0.47658190474E+03  0.47658190474E+03  0.00000000000E+00 0. -1.
      99926    2    1    2    0    0  0.00000000000E+00  0.00000000000E+00 -0.36907924344E+03  0.58408456605E+03  0.45269779363E+03 0.  0.
      99925    2    3    3    0    0  0.95223309521E+02 -0.15690744173E+02 -0.16170172897E+03  0.32338048142E+03  0.26289505223E+03 0.  0.
         25    1    4    4    0    0  0.85469064018E+02  0.10535245966E+02 -0.88150787547E+02  0.17559618947E+03  0.12509000000E+03 0.  0.
         25    1    3    3    0    0 -0.95223309521E+02  0.15690744173E+02 -0.20737751448E+03  0.26070408462E+03  0.12509000000E+03 0.  0.
         25    1    4    4    0    0  0.97542455030E+01 -0.26225990138E+02 -0.73550941420E+02  0.14778429195E+03  0.12509000000E+03 0.  0.
<mgrwt>
<rscale>  2 0.45269779E+03</rscale>
<asrwt>0</asrwt>
<pdfrwt beam="1">  1       21 0.15809215E-01 0.45269779E+03</pdfrwt>
<pdfrwt beam="2">  1       21 0.70085572E-01 0.45269779E+03</pdfrwt>
<totfact> 0.60767090E+04</totfact>
</mgrwt>
</event>
<event>
 7    0  0.4709932E-002  0.4488173E+03  0.7546771E-02  0.1028075E+00
         21   -1    0    0  502  501  0.00000000000E+00  0.00000000000E+00  0.29555946871E+03  0.29555946871E+03  0.00000000000E+00 0. -1.
         21   -1    0    0  501  502 -0.00000000000E+00 -0.00000000000E+00 -0.17038614812E+03  0.17038614812E+03  0.00000000000E+00 0. -1.
      99926    2    1    2    0    0  0.00000000000E+00  0.00000000000E+00  0.12517332059E+03  0.46594561682E+03  0.44881728760E+03 0.  0.
      99925    2    3    3    0    0  0.95016080930E+02  0.49836634046E+02  0.77578991276E+02  0.29440998201E+03  0.26295815616E+03 0.  0.
         25    1    4    4    0    0  0.52368234373E+02  0.11533238849E+01  0.71802231069E+02  0.15344976577E+03  0.12509000000E+03 0.  0.
         25    1    3    3    0    0 -0.95016080930E+02 -0.49836634046E+02  0.47594329314E+02  0.17153563481E+03  0.12509000000E+03 0.  0.
         25    1    4    4    0    0  0.42647846557E+02  0.48683310162E+02  0.57767602075E+01  0.14096021624E+03  0.12509000000E+03 0.  0.
<mgrwt>
<rscale>  2 0.44881729E+03</rscale>
<asrwt>0</asrwt>
<pdfrwt beam="1">  1       21 0.43464628E-01 0.44881729E+03</pdfrwt>
<pdfrwt beam="2">  1       21 0.25056786E-01 0.44881729E+03</pdfrwt>
<totfact> 0.71165496E+04</totfact>
</mgrwt>
</event>
<event>
 7    0  0.4709932E-002  0.4567200E+03  0.7546771E-02  0.1025737E+00
         21   -1    0    0  502  501  0.00000000000E+00  0.00000000000E+00  0.21771899193E+03  0.21771899193E+03  0.00000000000E+00 0. -1.
         21   -1    0    0  501  502 -0.00000000000E+00 -0.00000000000E+00 -0.23952111071E+03  0.23952111071E+03  0.00000000000E+00 0. -1.
      99926    2    1    2    0    0  0.00000000000E+00  0.00000000000E+00 -0.21802118774E+02  0.45724010264E+03  0.45672002263E+03 0.  0.
      99925    2    3    3    0    0  0.81896340944E+02 -0.60024321916E+02 -0.67339747056E+02  0.28981515357E+03  0.26296055184E+03 0.  0.
         25    1    3    3    0    0 -0.81896340944E+02  0.60024321916E+02  0.45537628281E+02  0.16742494907E+03  0.12509000000E+03 0.  0.
         25    1    4    4    0    0  0.19988690182E+02 -0.44949161688E+01 -0.40689649319E+01  0.12682198777E+03  0.12509000000E+03 0.  0.
         25    1    4    4    0    0  0.61907650762E+02 -0.55529405747E+02 -0.63270782124E+02  0.16299316580E+03  0.12509000000E+03 0.  0.
<mgrwt>
<rscale>  2 0.45672002E+03</rscale>
<asrwt>0</asrwt>
<pdfrwt beam="1">  1       21 0.32017499E-01 0.45672002E+03</pdfrwt>
<pdfrwt beam="2">  1       21 0.35223693E-01 0.45672002E+03</pdfrwt>
<totfact> 0.67451563E+04</totfact>
</mgrwt>
</event>
<event>
 7    0  0.4709932E-002  0.4534339E+03  0.7546771E-02  0.1026703E+00
         21   -1    0    0  502  501  0.00000000000E+00  0.00000000000E+00  0.78272446946E+02  0.78272446946E+02  0.00000000000E+00 0.  1.
         21   -1    0    0  501  502 -0.00000000000E+00 -0.00000000000E+00 -0.65668795714E+03  0.65668795714E+03  0.00000000000E+00 0.  1.
      99926    2    1    2    0    0  0.00000000000E+00  0.00000000000E+00 -0.57841551019E+03  0.73496040409E+03  0.45343389060E+03 0.  0.
      99925    2    3    3    0    0 -0.62728660391E+02 -0.43661603555E+02 -0.23322720811E+03  0.35993548164E+03  0.26328197789E+03 0.  0.
         25    1    4    4    0    0 -0.18545490325E+02 -0.52358536148E+02 -0.86382994332E+02  0.16184832816E+03  0.12509000000E+03 0.  0.
         25    1    3    3    0    0  0.62728660391E+02  0.43661603555E+02 -0.34518830208E+03  0.37502492244E+03  0.12509000000E+03 0.  0.
         25    1    4    4    0    0 -0.44183170066E+02  0.86969325931E+01 -0.14684421378E+03  0.19808715348E+03  0.12509000000E+03 0.  0.
<mgrwt>
<rscale>  2 0.45343389E+03</rscale>
<asrwt>0</asrwt>
<pdfrwt beam="1">  1       21 0.11510654E-01 0.45343389E+03</pdfrwt>
<pdfrwt beam="2">  1       21 0.96571754E-01 0.45343389E+03</pdfrwt>
<totfact> 0.51679035E+04</totfact>
</mgrwt>
</event>
<event>
 7    0  0.4709932E-002  0.4495298E+03  0.7546771E-02  0.1027862E+00
         21   -1    0    0  502  501  0.00000000000E+00  0.00000000000E+00  0.56390316123E+02  0.56390316123E+02  0.00000000000E+00 0.  1.
         21   -1    0    0  501  502 -0.00000000000E+00 -0.00000000000E+00 -0.89588548533E+03  0.89588548533E+03  0.00000000000E+00 0.  1.
      99926    2    1    2    0    0  0.00000000000E+00 -0.17763568394E-14 -0.83949516920E+03  0.95227580145E+03  0.44952982427E+03 0.  0.
      99925    2    3    3    0    0  0.56618414963E+02 -0.77760930766E+01 -0.33682402253E+03  0.43113100168E+03  0.26297795709E+03 0.  0.
         25    1    3    3    0    0 -0.56618414963E+02  0.77760930766E+01 -0.50267114667E+03  0.52114479977E+03  0.12509000000E+03 0.  0.
         25    1    4    4    0    0  0.26845506387E+02 -0.19099149403E+02 -0.10845609827E+03  0.16880667070E+03  0.12509000000E+03 0.  0.
         25    1    4    4    0    0  0.29772908576E+02  0.11323056327E+02 -0.22836792426E+03  0.26232433097E+03  0.12509000000E+03 0.  0.
<mgrwt>
<rscale>  2 0.44952982E+03</rscale>
<asrwt>0</asrwt>
<pdfrwt beam="1">  1       21 0.82926941E-02 0.44952982E+03</pdfrwt>
<pdfrwt beam="2">  1       21 0.13174786E+00 0.44952982E+03</pdfrwt>
<totfact> 0.42852627E+04</totfact>
</mgrwt>
</event>
<event>
 7    0  0.4709932E-002  0.4558809E+03  0.7546771E-02  0.1025983E+00
         21   -1    0    0  502  501  0.00000000000E+00  0.00000000000E+00  0.29909960531E+02  0.29909960531E+02  0.00000000000E+00 0. -1.
         21   -1    0    0  501  502 -0.00000000000E+00 -0.00000000000E+00 -0.17371087309E+04  0.17371087309E+04  0.00000000000E+00 0. -1.
      99926    2    1    2    0    0  0.00000000000E+00  0.17763568394E-14 -0.17071987704E+04  0.17670186914E+04  0.45588092120E+03 0.  0.
      99925    2    3    3    0    0 -0.11245415602E+03 -0.84064208216E+01 -0.11377935300E+04  0.11732287951E+04  0.26301156560E+03 0.  0.
         25    1    4    4    0    0 -0.48510691727E+02  0.17337124192E+02 -0.41613232872E+03  0.43756997862E+03  0.12509000000E+03 0.  0.
         25    1    4    4    0    0 -0.63943464289E+02 -0.25743545014E+02 -0.72166120132E+03  0.73565881652E+03  0.12509000000E+03 0.  0.
         25    1    3    3    0    0  0.11245415602E+03  0.84064208216E+01 -0.56940524032E+03  0.59378989627E+03  0.12509000000E+03 0.  0.
<mgrwt>
<rscale>  2 0.45588092E+03</rscale>
<asrwt>0</asrwt>
<pdfrwt beam="1">  1       21 0.43985215E-02 0.45588092E+03</pdfrwt>
<pdfrwt beam="2">  1       21 0.25545729E+00 0.45588092E+03</pdfrwt>
<totfact> 0.17779946E+04</totfact>
</mgrwt>
</event>
<event>
 7    0  0.4709932E-002  0.4548083E+03  0.7546771E-02  0.1026298E+00
         21   -1    0    0  502  501  0.00000000000E+00  0.00000000000E+00  0.10942659121E+03  0.10942659121E+03  0.00000000000E+00 0.  1.
         21   -1    0    0  501  502 -0.00000000000E+00 -0.00000000000E+00 -0.47257842998E+03  0.47257842998E+03  0.00000000000E+00 0.  1.
      99926    2    1    2    0    0  0.00000000000E+00  0.00000000000E+00 -0.36315183877E+03  0.58200502119E+03  0.45480829664E+03 0.  0.
      99925    2    3    3    0    0  0.95501275638E+02 -0.24815547201E+02 -0.29881869261E+03  0.41018369881E+03  0.26310026735E+03 0.  0.
         25    1    4    4    0    0  0.52075641084E+02 -0.53091458904E+02 -0.15933830733E+03  0.21579337267E+03  0.12509000000E+03 0.  0.
         25    1    4    4    0    0  0.43425634554E+02  0.28275911703E+02 -0.13948038528E+03  0.19439032614E+03  0.12509000000E+03 0.  0.
         25    1    3    3    0    0 -0.95501275638E+02  0.24815547201E+02 -0.64333146156E+02  0.17182132238E+03  0.12509000000E+03 0.  0.
<mgrwt>
<rscale>  2 0.45480830E+03</rscale>
<asrwt>0</asrwt>
<pdfrwt beam="1">  1       21 0.16092146E-01 0.45480830E+03</pdfrwt>
<pdfrwt beam="2">  1       21 0.69496829E-01 0.45480830E+03</pdfrwt>
<totfact> 0.59890514E+04</totfact>
</mgrwt>
</event>
<event>
 7    0  0.4709932E-002  0.4518589E+03  0.7546771E-02  0.1027169E+00
         21   -1    0    0  502  501  0.00000000000E+00  0.00000000000E+00  0.24254431944E+03  0.24254431944E+03  0.00000000000E+00 0. -1.
         21   -1    0    0  501  502 -0.00000000000E+00 -0.00000000000E+00 -0.21045275542E+03  0.21045275542E+03  0.00000000000E+00 0. -1.
      99926    2    1    2    0    0  0.00000000000E+00  0.00000000000E+00  0.32091564023E+02  0.45299707486E+03  0.45185891753E+03 0.  0.
      99925    2    3    3    0    0 -0.42003631596E+02  0.70767140203E+01  0.12204422479E+03  0.29314284681E+03  0.26310368846E+03 0.  0.
         25    1    3    3    0    0  0.42003631596E+02 -0.70767140203E+01 -0.89952660764E+02  0.15985422806E+03  0.12509000000E+03 0.  0.
         25    1    4    4    0    0 -0.64299282897E+01  0.16034450259E+02  0.99682724152E+02  0.16088070477E+03  0.12509000000E+03 0.  0.
         25    1    4    4    0    0 -0.35573703306E+02 -0.89577362388E+01  0.22361500635E+02  0.13226214204E+03  0.12509000000E+03 0.  0.
<mgrwt>
<rscale>  2 0.45185892E+03</rscale>
<asrwt>0</asrwt>
<pdfrwt beam="1">  1       21 0.35668282E-01 0.45185892E+03</pdfrwt>
<pdfrwt beam="2">  1       21 0.30948934E-01 0.45185892E+03</pdfrwt>
<totfact> 0.70441732E+04</totfact>
</mgrwt>
</event>
<event>
 7    0  0.4709932E-002  0.4551730E+03  0.7546771E-02  0.1026191E+00
         21   -1    0    0  502  501  0.00000000000E+00  0.00000000000E+00  0.21030659741E+03  0.21030659741E+03  0.00000000000E+00 0. -1.
         21   -1    0    0  501  502 -0.00000000000E+00 -0.00000000000E+00 -0.24628621604E+03  0.24628621604E+03  0.00000000000E+00 0. -1.
      99926    2    1    2    0    0  0.35527136788E-14  0.71054273576E-14 -0.35979618633E+02  0.45659281346E+03  0.45517300485E+03 0.  0.
      99925    2    3    3    0    0  0.28086818326E+02  0.30549095591E+02 -0.12854056954E+03  0.29554265252E+03  0.26287005314E+03 0.  0.
         25    1    3    3    0    0 -0.28086818326E+02 -0.30549095591E+02  0.92560950902E+02  0.16105016093E+03  0.12509000000E+03 0.  0.
         25    1    4    4    0    0 -0.86932706384E+01 -0.26446615114E+01 -0.30521671029E+02  0.12908000500E+03  0.12509000000E+03 0.  0.
         25    1    4    4    0    0  0.36780088964E+02  0.33193757103E+02 -0.98018898506E+02  0.16646264752E+03  0.12509000000E+03 0.  0.
<mgrwt>
<rscale>  2 0.45517300E+03</rscale>
<asrwt>0</asrwt>
<pdfrwt beam="1">  1       21 0.30927441E-01 0.45517300E+03</pdfrwt>
<pdfrwt beam="2">  1       21 0.36218561E-01 0.45517300E+03</pdfrwt>
<totfact> 0.68334919E+04</totfact>
</mgrwt>
</event>
<event>
 7    0  0.4709932E-002  0.4476583E+03  0.7546771E-02  0.1028423E+00
         21   -1    0    0  502  501  0.00000000000E+00  0.00000000000E+00  0.29933705662E+03  0.29933705662E+03  0.00000000000E+00 0. -1.
         21   -1    0    0  501  502 -0.00000000000E+00 -0.00000000000E+00 -0.16736811379E+03  0.16736811379E+03  0.00000000000E+00 0. -1.
      99926    2    1    2    0    0  0.00000000000E+00  0.17763568394E-14  0.13196894283E+03  0.46670517041E+03  0.44765825606E+03 0.  0.
      99925    2    3    3    0    0 -0.99641396983E+02 -0.10732547953E+02  0.12001151898E+03  0.30597532358E+03  0.26301052901E+03 0.  0.
         25    1    4    4    0    0 -0.10021676893E+02 -0.11893260468E+02  0.38308109103E+02  0.13174559945E+03  0.12509000000E+03 0.  0.
         25    1    3    3    0    0  0.99641396983E+02  0.10732547953E+02  0.11957423847E+02  0.16072984683E+03  0.12509000000E+03 0.  0.
         25    1    4    4    0    0 -0.89619720090E+02  0.11607125157E+01  0.81703409881E+02  0.17422972413E+03  0.12509000000E+03 0.  0.
<mgrwt>
<rscale>  2 0.44765826E+03</rscale>
<asrwt>0</asrwt>
<pdfrwt beam="1">  1       21 0.44020156E-01 0.44765826E+03</pdfrwt>
<pdfrwt beam="2">  1       21 0.24612958E-01 0.44765826E+03</pdfrwt>
<totfact> 0.71771888E+04</totfact>
</mgrwt>
</event>
<event>
 7    0  0.4709932E-002  0.4459012E+03  0.7546771E-02  0.1028951E+00
         21   -1    0    0  502  501  0.00000000000E+00  0.00000000000E+00  0.62146860545E+03  0.62146860545E+03  0.00000000000E+00 0. -1.
         21   -1    0    0  501  502 -0.00000000000E+00 -0.00000000000E+00 -0.79983058951E+02  0.79983058951E+02  0.00000000000E+00 0. -1.
      99926    2    1    2    0    0  0.71054273576E-14 -0.14210854715E-13  0.54148554650E+03  0.70145166440E+03  0.44590115544E+03 0.  0.
      99925    2    3    3    0    0  0.63601762732E+02 -0.80493434035E+02  0.32883001068E+03  0.43425461696E+03  0.26443055664E+03 0.  0.
         25    1    3    3    0    0 -0.63601762732E+02  0.80493434035E+02  0.21265553582E+03  0.26719704744E+03  0.12509000000E+03 0.  0.
         25    1    4    4    0    0  0.14619762255E+02  0.43049833878E+00  0.16337862888E+03  0.20628622652E+03  0.12509000000E+03 0.  0.
         25    1    4    4    0    0  0.48982000477E+02 -0.80923932374E+02  0.16545138179E+03  0.22796839044E+03  0.12509000000E+03 0.  0.
<mgrwt>
<rscale>  2 0.44590116E+03</rscale>
<asrwt>0</asrwt>
<pdfrwt beam="1">  1       21 0.91392440E-01 0.44590116E+03</pdfrwt>
<pdfrwt beam="2">  1       21 0.11762215E-01 0.44590116E+03</pdfrwt>
<totfact> 0.56781988E+04</totfact>
</mgrwt>
</event>
<event>
 7    0  0.4709932E-002  0.4438244E+03  0.7546771E-02  0.1029580E+00
         21   -1    0    0  502  501  0.00000000000E+00  0.00000000000E+00  0.11255482371E+03  0.11255482371E+03  0.00000000000E+00 0.  1.
         21   -1    0    0  501  502 -0.00000000000E+00 -0.00000000000E+00 -0.43752039148E+03  0.43752039148E+03  0.00000000000E+00 0.  1.
      99926    2    1    2    0    0  0.00000000000E+00  0.00000000000E+00 -0.32496556777E+03  0.55007521519E+03  0.44382442715E+03 0.  0.
      99925    2    3    3    0    0  0.51191364185E+02  0.57467113904E+02 -0.29022465220E+03  0.39915316822E+03  0.26300166921E+03 0.  0.
         25    1    4    4    0    0  0.34871219821E+02  0.45315617841E+02 -0.97888085343E+02  0.16881674249E+03  0.12509000000E+03 0.  0.
         25    1    4    4    0    0  0.16320144364E+02  0.12151496064E+02 -0.19233656686E+03  0.23033642573E+03  0.12509000000E+03 0.  0.
         25    1    3    3    0    0 -0.51191364185E+02 -0.57467113904E+02 -0.34740915570E+02  0.15092204697E+03  0.12509000000E+03 0.  0.
<mgrwt>
<rscale>  2 0.44382443E+03</rscale>
<asrwt>0</asrwt>
<pdfrwt beam="1">  1       21 0.16552180E-01 0.44382443E+03</pdfrwt>
<pdfrwt beam="2">  1       21 0.64341234E-01 0.44382443E+03</pdfrwt>
<totfact> 0.67647326E+04</totfact>
</mgrwt>
</event>
<event>
 7    0  0.4709932E-002  0.4480612E+03  0.7546771E-02  0.1028302E+00
         21   -1    0    0  502  501  0.00000000000E+00  0.00000000000E+00  0.96146589548E+03  0.96146589548E+03  0.00000000000E+00 0. -1.
         21   -1    0    0  501  502 -0.00000000000E+00 -0.00000000000E+00 -0.52201239969E+02  0.52201239969E+02  0.00000000000E+00 0. -1.
      99926    2    1    2    0    0  0.00000000000E+00 -0.14210854715E-13  0.90926465551E+03  0.10136671354E+04  0.44806120980E+03 0.  0.
      99925    2    3    3    0    0  0.35373352693E+02  0.93430768372E+02  0.49206782278E+03  0.56681001298E+03  0.26298719749E+03 0.  0.
         25    1    4    4    0    0  0.37678341864E+02  0.83833255692E+02  0.29066739007E+03  0.32951890986E+03  0.12509000000E+03 0.  0.
         25    1    4    4    0    0 -0.23049891707E+01  0.95975126795E+01  0.20140043270E+03  0.23729110312E+03  0.12509000000E+03 0.  0.
         25    1    3    3    0    0 -0.35373352693E+02 -0.93430768372E+02  0.41719683273E+03  0.44685712247E+03  0.12509000000E+03 0.  0.
<mgrwt>
<rscale>  2 0.44806121E+03</rscale>
<asrwt>0</asrwt>
<pdfrwt beam="1">  1       21 0.14139203E+00 0.44806121E+03</pdfrwt>
<pdfrwt beam="2">  1       21 0.76766535E-02 0.44806121E+03</pdfrwt>
<totfact> 0.40805815E+04</totfact>
</mgrwt>
</event>
<event>
 7    0  0.4709932E-002  0.4535620E+03  0.7546771E-02  0.1026665E+00
         21   -1    0    0  502  501  0.00000000000E+00  0.00000000000E+00  0.67057810423E+03  0.67057810423E+03  0.00000000000E+00 0.  1.
         21   -1    0    0  501  502 -0.00000000000E+00 -0.00000000000E+00 -0.76694445827E+02  0.76694445827E+02  0.00000000000E+00 0.  1.
      99926    2    1    2    0    0  0.00000000000E+00  0.71054273576E-14  0.59388365840E+03  0.74727255005E+03  0.45356197410E+03 0.  0.
      99925    2    3    3    0    0 -0.98180382452E+02 -0.41484337109E+02  0.31835082558E+03  0.42645143512E+03  0.26297003755E+03 0.  0.
         25    1    3    3    0    0  0.98180382452E+02  0.41484337109E+02  0.27553283282E+03  0.32082111493E+03  0.12509000000E+03 0.  0.
         25    1    4    4    0    0 -0.43816595806E+02  0.16271365184E+02  0.12522806978E+03  0.18306891859E+03  0.12509000000E+03 0.  0.
         25    1    4    4    0    0 -0.54363786646E+02 -0.57755702294E+02  0.19312275580E+03  0.24338251653E+03  0.12509000000E+03 0.  0.
<mgrwt>
<rscale>  2 0.45356197E+03</rscale>
<asrwt>0</asrwt>
<pdfrwt beam="1">  1       21 0.98614424E-01 0.45356197E+03</pdfrwt>
<pdfrwt beam="2">  1       21 0.11278595E-01 0.45356197E+03</pdfrwt>
<totfact> 0.50984198E+04</totfact>
</mgrwt>
</event>
<event>
 7    0  0.4709932E-002  0.4548966E+03  0.7546771E-02  0.1026272E+00
         21   -1    0    0  502  501  0.00000000000E+00  0.00000000000E+00  0.40007125993E+02  0.40007125993E+02  0.00000000000E+00 0. -1.
         21   -1    0    0  501  502 -0.00000000000E+00 -0.00000000000E+00 -0.12930880784E+04  0.12930880784E+04  0.00000000000E+00 0. -1.
      99926    2    1    2    0    0  0.00000000000E+00  0.00000000000E+00 -0.12530809524E+04  0.13330952044E+04  0.45489663737E+03 0.  0.
      99925    2    3    3    0    0  0.91682407313E+02  0.55986954156E+02 -0.90111459463E+03  0.94442049727E+03  0.26150021066E+03 0.  0.
         25    1    4    4    0    0  0.10615341113E+02  0.28643381649E+02 -0.47564156473E+03  0.49276316317E+03  0.12509000000E+03 0.  0.
         25    1    3    3    0    0 -0.91682407313E+02 -0.55986954156E+02 -0.35196635781E+03  0.38867470715E+03  0.12509000000E+03 0.  0.
         25    1    4    4    0    0  0.81067066200E+02  0.27343572507E+02 -0.42547302990E+03  0.45165733410E+03  0.12509000000E+03 0.  0.
<mgrwt>
<rscale>  2 0.45489664E+03</rscale>
<asrwt>0</asrwt>
<pdfrwt beam="1">  1       21 0.58834007E-02 0.45489664E+03</pdfrwt>
<pdfrwt beam="2">  1       21 0.19016002E+00 0.45489664E+03</pdfrwt>
<totfact> 0.28191185E+04</totfact>
</mgrwt>
</event>
<event>
 7    0  0.4709932E-002  0.4522800E+03  0.7546771E-02  0.1027044E+00
         21   -1    0    0  502  501  0.00000000000E+00  0.00000000000E+00  0.24498561578E+03  0.24498561578E+03  0.00000000000E+00 0.  1.
         21   -1    0    0  501  502 -0.00000000000E+00 -0.00000000000E+00 -0.20874406149E+03  0.20874406149E+03  0.00000000000E+00 0.  1.
      99926    2    1    2    0    0  0.00000000000E+00 -0.17763568394E-14  0.36241554287E+02  0.45372967726E+03  0.45227996835E+03 0.  0.
      99925    2    3    3    0    0 -0.44157549311E+02  0.10123040916E+02 -0.77876885820E+02  0.27845021015E+03  0.26347171588E+03 0.  0.
         25    1    4    4    0    0 -0.33466427385E+02 -0.20883621840E+02 -0.70530472052E+02  0.14892341324E+03  0.12509000000E+03 0.  0.
         25    1    4    4    0    0 -0.10691121925E+02  0.31006662756E+02 -0.73464137676E+01  0.12952679691E+03  0.12509000000E+03 0.  0.
         25    1    3    3    0    0  0.44157549311E+02 -0.10123040916E+02  0.11411844011E+03  0.17527946711E+03  0.12509000000E+03 0.  0.
<mgrwt>
<rscale>  2 0.45227997E+03</rscale>
<asrwt>0</asrwt>
<pdfrwt beam="1">  1       21 0.36027296E-01 0.45227997E+03</pdfrwt>
<pdfrwt beam="2">  1       21 0.30697656E-01 0.45227997E+03</pdfrwt>
<totfact> 0.70149068E+04</totfact>
</mgrwt>
</event>
<event>
 7    0  0.4709932E-002  0.4504982E+03  0.7546771E-02  0.1027574E+00
         21   -1    0    0  502  501  0.00000000000E+00  0.00000000000E+00  0.15938863317E+03  0.15938863317E+03  0.00000000000E+00 0.  1.
         21   -1    0    0  501  502 -0.00000000000E+00 -0.00000000000E+00 -0.31832361383E+03  0.31832361383E+03  0.00000000000E+00 0.  1.
      99926    2    1    2    0    0 -0.14210854715E-13  0.88817841970E-15 -0.15893498066E+03  0.47771224700E+03  0.45049823846E+03 0.  0.
      99925    2    3    3    0    0  0.10807325608E+03 -0.48386009164E+01 -0.86216142013E+02  0.29705019140E+03  0.26287326286E+03 0.  0.
         25    1    4    4    0    0  0.45550349120E+02  0.24121034365E+01 -0.83161465215E+02  0.15698404360E+03  0.12509000000E+03 0.  0.
         25    1    4    4    0    0  0.62522906963E+02 -0.72507043529E+01 -0.30546767981E+01  0.14006614780E+03  0.12509000000E+03 0.  0.
         25    1    3    3    0    0 -0.10807325608E+03  0.48386009164E+01 -0.72718838648E+02  0.18066205560E+03  0.12509000000E+03 0.  0.
<mgrwt>
<rscale>  2 0.45049824E+03</rscale>
<asrwt>0</asrwt>
<pdfrwt beam="1">  1       21 0.23439505E-01 0.45049824E+03</pdfrwt>
<pdfrwt beam="2">  1       21 0.46812295E-01 0.45049824E+03</pdfrwt>
<totfact> 0.69310760E+04</totfact>
</mgrwt>
</event>
<event>
 7    0  0.4709932E-002  0.4575076E+03  0.7546771E-02  0.1025507E+00
         21   -1    0    0  502  501  0.00000000000E+00  0.00000000000E+00  0.56154465053E+03  0.56154465053E+03  0.00000000000E+00 0. -1.
         21   -1    0    0  501  502 -0.00000000000E+00 -0.00000000000E+00 -0.93186374254E+02  0.93186374254E+02  0.00000000000E+00 0. -1.
      99926    2    1    2    0    0  0.00000000000E+00  0.00000000000E+00  0.46835827627E+03  0.65473102478E+03  0.45750763912E+03 0.  0.
      99925    2    3    3    0    0 -0.49187000752E+02  0.79476141656E+02  0.19702628645E+03  0.34167452040E+03  0.26303289186E+03 0.  0.
         25    1    3    3    0    0  0.49187000752E+02 -0.79476141656E+02  0.27133198982E+03  0.31305650438E+03  0.12509000000E+03 0.  0.
         25    1    4    4    0    0 -0.30351250653E+02  0.13603524077E+02  0.13218108888E+03  0.18500162876E+03  0.12509000000E+03 0.  0.
         25    1    4    4    0    0 -0.18835750099E+02  0.65872617579E+02  0.64845197570E+02  0.15667289164E+03  0.12509000000E+03 0.  0.
<mgrwt>
<rscale>  2 0.45750764E+03</rscale>
<asrwt>0</asrwt>
<pdfrwt beam="1">  1       21 0.82580094E-01 0.45750764E+03</pdfrwt>
<pdfrwt beam="2">  1       21 0.13703879E-01 0.45750764E+03</pdfrwt>
<totfact> 0.54346778E+04</totfact>
</mgrwt>
</event>
<event>
 7    0  0.4709932E-002  0.4562612E+03  0.7546771E-02  0.1025871E+00
         21   -1    0    0  502  501  0.00000000000E+00  0.00000000000E+00  0.26090233653E+03  0.26090233653E+03  0.00000000000E+00 0.  1.
         21   -1    0    0  501  502 -0.00000000000E+00 -0.00000000000E+00 -0.19947528949E+03  0.19947528949E+03  0.00000000000E+00 0.  1.
      99926    2    1    2    0    0  0.00000000000E+00 -0.71054273576E-14  0.61427047036E+02  0.46037762602E+03  0.45626119322E+03 0.  0.
      99925    2    3    3    0    0 -0.95067826598E+02  0.63069690506E+02  0.30182539037E+02  0.28821664062E+03  0.26294898508E+03 0.  0.
         25    1    4    4    0    0 -0.25731405461E+02  0.11720031823E+02 -0.16369077398E+02  0.12928619094E+03  0.12509000000E+03 0.  0.
         25    1    4    4    0    0 -0.69336421137E+02  0.51349658683E+02  0.46551616435E+02  0.15893044968E+03  0.12509000000E+03 0.  0.
         25    1    3    3    0    0  0.95067826598E+02 -0.63069690506E+02  0.31244507999E+02  0.17216098540E+03  0.12509000000E+03 0.  0.
<mgrwt>
<rscale>  2 0.45626119E+03</rscale>
<asrwt>0</asrwt>
<pdfrwt beam="1">  1       21 0.38367991E-01 0.45626119E+03</pdfrwt>
<pdfrwt beam="2">  1       21 0.29334601E-01 0.45626119E+03</pdfrwt>
<totfact> 0.67471880E+04</totfact>
</mgrwt>
</event>
<event>
 7    0  0.4709932E-002  0.4646008E+03  0.7546771E-02  0.1023455E+00
         21   -1    0    0  502  501  0.00000000000E+00  0.00000000000E+00  0.28383428822E+03  0.28383428822E+03  0.00000000000E+00 0.  1.
         21   -1    0    0  501  502 -0.00000000000E+00 -0.00000000000E+00 -0.19012314150E+03  0.19012314150E+03  0.00000000000E+00 0.  1.
      99926    2    1    2    0    0  0.71054273576E-14  0.00000000000E+00  0.93711146722E+02  0.47395742971E+03  0.46460075997E+03 0.  0.
      99925    2    3    3    0    0 -0.46212888543E+02 -0.10982108026E+03  0.30274808322E+02  0.28992488404E+03  0.26257108301E+03 0.  0.
         25    1    4    4    0    0  0.15045520579E+02 -0.55736598801E+02  0.15824122921E+01  0.13777862049E+03  0.12509000000E+03 0.  0.
         25    1    3    3    0    0  0.46212888543E+02  0.10982108026E+03  0.63436338400E+02  0.18403254567E+03  0.12509000000E+03 0.  0.
         25    1    4    4    0    0 -0.61258409122E+02 -0.54084481459E+02  0.28692396030E+02  0.15214626355E+03  0.12509000000E+03 0.  0.
<mgrwt>
<rscale>  2 0.46460076E+03</rscale>
<asrwt>0</asrwt>
<pdfrwt beam="1">  1       21 0.41740337E-01 0.46460076E+03</pdfrwt>
<pdfrwt beam="2">  1       21 0.27959285E-01 0.46460076E+03</pdfrwt>
<totfact> 0.62261387E+04</totfact>
</mgrwt>
</event>
<event>
 7    0  0.4709932E-002  0.4553622E+03  0.7546771E-02  0.1026135E+00
         21   -1    0    0  502  501  0.00000000000E+00  0.00000000000E+00  0.12775977789E+04  0.12775977789E+04  0.00000000000E+00 0. -1.
         21   -1    0    0  501  502 -0.00000000000E+00 -0.00000000000E+00 -0.40575111816E+02  0.40575111816E+02  0.00000000000E+00 0. -1.
      99926    2    1    2    0    0  0.71054273576E-14  0.13322676296E-14  0.12370226671E+04  0.13181728908E+04  0.45536215362E+03 0.  0.
      99925    2    3    3    0    0  0.43807778557E+02  0.11193086159E+01  0.10804051524E+04  0.11129975308E+04  0.26375715335E+03 0.  0.
         25    1    4    4    0    0 -0.46645268067E+01 -0.31547524565E+02  0.54403216377E+03  0.55913818277E+03  0.12509000000E+03 0.  0.
         25    1    3    3    0    0 -0.43807778557E+02 -0.11193086159E+01  0.15661751476E+03  0.20517535998E+03  0.12509000000E+03 0.  0.
         25    1    4    4    0    0  0.48472305364E+02  0.32666833181E+02  0.53637298860E+03  0.55385934801E+03  0.12509000000E+03 0.  0.
<mgrwt>
<rscale>  2 0.45536215E+03</rscale>
<asrwt>0</asrwt>
<pdfrwt beam="1">  1       21 0.18788200E+00 0.45536215E+03</pdfrwt>
<pdfrwt beam="2">  1       21 0.59669291E-02 0.45536215E+03</pdfrwt>
<totfact> 0.28511087E+04</totfact>
</mgrwt>
</event>
<event>
 7    0  0.4709932E-002  0.4498756E+03  0.7546771E-02  0.1027759E+00
         21   -1    0    0  502  501  0.00000000000E+00  0.00000000000E+00  0.42276910359E+03  0.42276910359E+03  0.00000000000E+00 0. -1.
         21   -1    0    0  501  502 -0.00000000000E+00 -0.00000000000E+00 -0.11968000837E+03  0.11968000837E+03  0.00000000000E+00 0. -1.
      99926    2    1    2    0    0  0.00000000000E+00  0.00000000000E+00  0.30308909522E+03  0.54244911196E+03  0.44987558217E+03 0.  0.
      99925    2    3    3    0    0 -0.16295320513E+02  0.10536674681E+03  0.21443642671E+03  0.35570197667E+03  0.26300803468E+03 0.  0.
         25    1    4    4    0    0  0.52583064673E-03  0.83010001720E+02  0.80453989888E+02  0.17032619580E+03  0.12509000000E+03 0.  0.
         25    1    4    4    0    0 -0.16295846343E+02  0.22356745094E+02  0.13398243682E+03  0.18537578088E+03  0.12509000000E+03 0.  0.
         25    1    3    3    0    0  0.16295320513E+02 -0.10536674681E+03  0.88652668506E+02  0.18674713529E+03  0.12509000000E+03 0.  0.
<mgrwt>
<rscale>  2 0.44987558E+03</rscale>
<asrwt>0</asrwt>
<pdfrwt beam="1">  1       21 0.62171926E-01 0.44987558E+03</pdfrwt>
<pdfrwt beam="2">  1       21 0.17600001E-01 0.44987558E+03</pdfrwt>
<totfact> 0.64962775E+04</totfact>
</mgrwt>
</event>
<event>
 7    0  0.4709932E-002  0.4510237E+03  0.7546771E-02  0.1027417E+00
         21   -1    0    0  502  501  0.00000000000E+00  0.00000000000E+00  0.91485106369E+03  0.91485106369E+03  0.00000000000E+00 0. -1.
         21   -1    0    0  501  502 -0.00000000000E+00 -0.00000000000E+00 -0.55588931115E+02  0.55588931115E+02  0.00000000000E+00 0. -1.
      99926    2    1    2    0    0  0.71054273576E-14  0.00000000000E+00  0.85926213257E+03  0.97043999480E+03  0.45102369232E+03 0.  0.
      99925    2    3    3    0    0 -0.50259954206E+02 -0.18525757034E+02  0.74842583613E+03  0.79493654931E+03  0.26251403500E+03 0.  0.
         25    1    4    4    0    0 -0.63741445058E+02 -0.21292791855E+02  0.40640125145E+03  0.43049487811E+03  0.12509000000E+03 0.  0.
         25    1    3    3    0    0  0.50259954206E+02  0.18525757034E+02  0.11083629644E+03  0.17550344549E+03  0.12509000000E+03 0.  0.
         25    1    4    4    0    0  0.13481490852E+02  0.27670348208E+01  0.34202458469E+03  0.36444167120E+03  0.12509000000E+03 0.  0.
<mgrwt>
<rscale>  2 0.45102369E+03</rscale>
<asrwt>0</asrwt>
<pdfrwt beam="1">  1       21 0.13453691E+00 0.45102369E+03</pdfrwt>
<pdfrwt beam="2">  1       21 0.81748434E-02 0.45102369E+03</pdfrwt>
<totfact> 0.41602319E+04</totfact>
</mgrwt>
</event>
<event>
 7    0  0.4709932E-002  0.4097019E+03  0.7546771E-02  0.1040471E+00
         21   -1    0    0  502  501  0.00000000000E+00  0.00000000000E+00  0.84957991678E+02  0.84957991678E+02  0.00000000000E+00 0. -1.
         21   -1    0    0  501  502 -0.00000000000E+00 -0.00000000000E+00 -0.49393715391E+03  0.49393715391E+03  0.00000000000E+00 0. -1.
      99926    2    1    2    0    0  0.00000000000E+00  0.35527136788E-14 -0.40897916223E+03  0.57889514558E+03  0.40970188484E+03 0.  0.
      99925    2    3    3    0    0  0.42360759982E+02  0.21318715213E+02 -0.21361744563E+03  0.34211966117E+03  0.26299149773E+03 0.  0.
         25    1    3    3    0    0 -0.42360759982E+02 -0.21318715213E+02 -0.19536171660E+03  0.23677548441E+03  0.12509000000E+03 0.  0.
         25    1    4    4    0    0  0.19229477179E+02 -0.29277774962E+02 -0.11368534520E+03  0.17262336665E+03  0.12509000000E+03 0.  0.
         25    1    4    4    0    0  0.23131282804E+02  0.50596490175E+02 -0.99932100426E+02  0.16949629452E+03  0.12509000000E+03 0.  0.
<mgrwt>
<rscale>  2 0.40970188E+03</rscale>
<asrwt>0</asrwt>
<pdfrwt beam="1">  1       21 0.12493823E-01 0.40970188E+03</pdfrwt>
<pdfrwt beam="2">  1       21 0.72637814E-01 0.40970188E+03</pdfrwt>
<totfact> 0.87301025E+04</totfact>
</mgrwt>
</event>
<event>
 7    0  0.4709932E-002  0.4528582E+03  0.7546771E-02  0.1026873E+00
         21   -1    0    0  502  501  0.00000000000E+00  0.00000000000E+00  0.41420136863E+03  0.41420136863E+03  0.00000000000E+00 0. -1.
         21   -1    0    0  501  502 -0.00000000000E+00 -0.00000000000E+00 -0.12378068678E+03  0.12378068678E+03  0.00000000000E+00 0. -1.
      99926    2    1    2    0    0  0.14210854715E-13  0.00000000000E+00  0.29042068186E+03  0.53798205541E+03  0.45285816708E+03 0.  0.
      99925    2    3    3    0    0 -0.71241974942E+02 -0.75989087905E+02  0.13698381171E+03  0.31428551610E+03  0.26298490544E+03 0.  0.
         25    1    3    3    0    0  0.71241974942E+02  0.75989087905E+02  0.15343687015E+03  0.22369653930E+03  0.12509000000E+03 0.  0.
         25    1    4    4    0    0 -0.96713453360E+01 -0.58910706986E+02  0.42402967263E+02  0.14494663173E+03  0.12509000000E+03 0.  0.
         25    1    4    4    0    0 -0.61570629606E+02 -0.17078380919E+02  0.94580844442E+02  0.16933888437E+03  0.12509000000E+03 0.  0.
<mgrwt>
<rscale>  2 0.45285817E+03</rscale>
<asrwt>0</asrwt>
<pdfrwt beam="1">  1       21 0.60911966E-01 0.45285817E+03</pdfrwt>
<pdfrwt beam="2">  1       21 0.18203042E-01 0.45285817E+03</pdfrwt>
<totfact> 0.63741356E+04</totfact>
</mgrwt>
</event>
<event>
 7    0  0.4709932E-002  0.4408341E+03  0.7546771E-02  0.1030491E+00
         21   -1    0    0  502  501  0.00000000000E+00  0.00000000000E+00  0.24836499772E+03  0.24836499772E+03  0.00000000000E+00 0.  1.
         21   -1    0    0  501  502 -0.00000000000E+00 -0.00000000000E+00 -0.19561403952E+03  0.19561403952E+03  0.00000000000E+00 0.  1.
      99926    2    1    2    0    0  0.35527136788E-14  0.00000000000E+00  0.52750958200E+02  0.44397903724E+03  0.44083412063E+03 0.  0.
      99925    2    3    3    0    0 -0.24153117310E+02 -0.88542918409E+02  0.72538808809E+02  0.28757478983E+03  0.26270546147E+03 0.  0.
         25    1    3    3    0    0  0.24153117310E+02  0.88542918409E+02 -0.19787850609E+02  0.15640424741E+03  0.12509000000E+03 0.  0.
         25    1    4    4    0    0 -0.35273363572E+01 -0.79085240521E+02  0.60336958066E+02  0.15985923176E+03  0.12509000000E+03 0.  0.
         25    1    4    4    0    0 -0.20625780953E+02 -0.94576778881E+01  0.12201850743E+02  0.12771555807E+03  0.12509000000E+03 0.  0.
<mgrwt>
<rscale>  2 0.44083412E+03</rscale>
<asrwt>0</asrwt>
<pdfrwt beam="1">  1       21 0.36524264E-01 0.44083412E+03</pdfrwt>
<pdfrwt beam="2">  1       21 0.28766770E-01 0.44083412E+03</pdfrwt>
<totfact> 0.77787514E+04</totfact>
</mgrwt>
</event>
<event>
 7    0  0.4709932E-002  0.4563748E+03  0.7546771E-02  0.1025838E+00
         21   -1    0    0  502  501  0.00000000000E+00  0.00000000000E+00  0.72069936249E+03  0.72069936249E+03  0.00000000000E+00 0. -1.
         21   -1    0    0  501  502 -0.00000000000E+00 -0.00000000000E+00 -0.72248564162E+02  0.72248564162E+02  0.00000000000E+00 0. -1.
      99926    2    1    2    0    0  0.00000000000E+00  0.00000000000E+00  0.64845079832E+03  0.79294792665E+03  0.45637482022E+03 0.  0.
      99925    2    3    3    0    0  0.88272515087E+02  0.26417050071E+02  0.52599080202E+03  0.59512513663E+03  0.26271221325E+03 0.  0.
         25    1    4    4    0    0  0.69598961349E+02 -0.14626384255E+02  0.24203898978E+03  0.28158183040E+03  0.12509000000E+03 0.  0.
         25    1    3    3    0    0 -0.88272515087E+02 -0.26417050071E+02  0.12245999631E+03  0.19782279001E+03  0.12509000000E+03 0.  0.
         25    1    4    4    0    0  0.18673553738E+02  0.41043434325E+02  0.28395181223E+03  0.31354330623E+03  0.12509000000E+03 0.  0.
<mgrwt>
<rscale>  2 0.45637482E+03</rscale>
<asrwt>0</asrwt>
<pdfrwt beam="1">  1       21 0.10598520E+00 0.45637482E+03</pdfrwt>
<pdfrwt beam="2">  1       21 0.10624789E-01 0.45637482E+03</pdfrwt>
<totfact> 0.47592216E+04</totfact>
</mgrwt>
</event>
<event>
 7    0  0.4709932E-002  0.4550832E+03  0.7546771E-02  0.1026217E+00
         21   -1    0    0  502  501  0.00000000000E+00  0.00000000000E+00  0.93046332247E+03  0.93046332247E+03  0.00000000000E+00 0. -1.
         21   -1    0    0  501  502 -0.00000000000E+00 -0.00000000000E+00 -0.55644513279E+02  0.55644513279E+02  0.00000000000E+00 0. -1.
      99926    2    1    2    0    0  0.00000000000E+00  0.00000000000E+00  0.87481880919E+03  0.98610783575E+03  0.45508319548E+03 0.  0.
      99925    2    3    3    0    0 -0.92552018638E+02 -0.46600493323E+02  0.45154163776E+03  0.53273320690E+03  0.26301584927E+03 0.  0.
         25    1    4    4    0    0 -0.27783019090E+02 -0.42312827999E+02  0.27924793197E+03  0.31014381691E+03  0.12509000000E+03 0.  0.
         25    1    4    4    0    0 -0.64768999549E+02 -0.42876653247E+01  0.17229370580E+03  0.22258938998E+03  0.12509000000E+03 0.  0.
         25    1    3    3    0    0  0.92552018638E+02  0.46600493323E+02  0.42327717143E+03  0.45337462885E+03  0.12509000000E+03 0.  0.
<mgrwt>
<rscale>  2 0.45508320E+03</rscale>
<asrwt>0</asrwt>
<pdfrwt beam="1">  1       21 0.13683283E+00 0.45508320E+03</pdfrwt>
<pdfrwt beam="2">  1       21 0.81830173E-02 0.45508320E+03</pdfrwt>
<totfact> 0.39685598E+04</totfact>
</mgrwt>
</event>
<event>
 7    0  0.4709932E-002  0.4463777E+03  0.7546771E-02  0.1028808E+00
         21   -1    0    0  502  501  0.00000000000E+00  0.00000000000E+00  0.19325834616E+02  0.19325834616E+02  0.00000000000E+00 0. -1.
         21   -1    0    0  501  502 -0.00000000000E+00 -0.00000000000E+00 -0.25775482235E+04  0.25775482235E+04  0.00000000000E+00 0. -1.
      99926    2    1    2    0    0  0.00000000000E+00 -0.44408920985E-14 -0.25582223888E+04  0.25968740581E+04  0.44637773547E+03 0.  0.
      99925    2    3    3    0    0 -0.75732745791E+02  0.56458530132E+01 -0.12025996425E+04  0.12333756668E+04  0.26306332114E+03 0.  0.
         25    1    3    3    0    0  0.75732745791E+02 -0.56458530132E+01 -0.13556227463E+04  0.13634983912E+04  0.12509000000E+03 0.  0.
         25    1    4    4    0    0 -0.60140309527E+02  0.32743303971E+02 -0.71007877771E+03  0.72425710866E+03  0.12509000000E+03 0.  0.
         25    1    4    4    0    0 -0.15592436264E+02 -0.27097450958E+02 -0.49252086481E+03  0.50911855819E+03  0.12509000000E+03 0.  0.
<mgrwt>
<rscale>  2 0.44637774E+03</rscale>
<asrwt>0</asrwt>
<pdfrwt beam="1">  1       21 0.28420343E-02 0.44637774E+03</pdfrwt>
<pdfrwt beam="2">  1       21 0.37905124E+00 0.44637774E+03</pdfrwt>
<totfact> 0.66236073E+03</totfact>
</mgrwt>
</event>
<event>
 7    0  0.4709932E-002  0.4549454E+03  0.7546771E-02  0.1026257E+00
         21   -1    0    0  502  501  0.00000000000E+00  0.00000000000E+00  0.11185329309E+03  0.11185329309E+03  0.00000000000E+00 0.  1.
         21   -1    0    0  501  502 -0.00000000000E+00 -0.00000000000E+00 -0.46260452786E+03  0.46260452786E+03  0.00000000000E+00 0.  1.
      99926    2    1    2    0    0  0.00000000000E+00  0.00000000000E+00 -0.35075123477E+03  0.57445782094E+03  0.45494544657E+03 0.  0.
      99925    2    3    3    0    0  0.96367333464E+02 -0.57706043590E+02 -0.23853340189E+03  0.37232667406E+03  0.26289221740E+03 0.  0.
         25    1    3    3    0    0 -0.96367333464E+02  0.57706043590E+02 -0.11221783288E+03  0.20213114689E+03  0.12509000000E+03 0.  0.
         25    1    4    4    0    0  0.18027846389E+02 -0.43657951246E+02 -0.14391953923E+03  0.19644684224E+03  0.12509000000E+03 0.  0.
         25    1    4    4    0    0  0.78339487075E+02 -0.14048092345E+02 -0.94613862655E+02  0.17587983182E+03  0.12509000000E+03 0.  0.
<mgrwt>
<rscale>  2 0.45494545E+03</rscale>
<asrwt>0</asrwt>
<pdfrwt beam="1">  1       21 0.16449014E-01 0.45494545E+03</pdfrwt>
<pdfrwt beam="2">  1       21 0.68030078E-01 0.45494545E+03</pdfrwt>
<totfact> 0.60304669E+04</totfact>
</mgrwt>
</event>
<event>
 7    0  0.4709932E-002  0.4634550E+03  0.7546771E-02  0.1023784E+00
         21   -1    0    0  502  501  0.00000000000E+00  0.00000000000E+00  0.12602925577E+03  0.12602925577E+03  0.00000000000E+00 0. -1.
         21   -1    0    0  501  502 -0.00000000000E+00 -0.00000000000E+00 -0.42607267942E+03  0.42607267942E+03  0.00000000000E+00 0. -1.
      99926    2    1    2    0    0  0.28421709430E-13 -0.17763568394E-14 -0.30004342365E+03  0.55210193519E+03  0.46345495009E+03 0.  0.
      99925    2    3    3    0    0 -0.11992445613E+03  0.10374858945E+02 -0.17350522183E+03  0.33727889756E+03  0.26298950523E+03 0.  0.
         25    1    4    4    0    0 -0.10091046585E+03  0.21323443237E+02 -0.10172502705E+03  0.19139775489E+03  0.12509000000E+03 0.  0.
         25    1    4    4    0    0 -0.19013990276E+02 -0.10948584292E+02 -0.71780194779E+02  0.14588114267E+03  0.12509000000E+03 0.  0.
         25    1    3    3    0    0  0.11992445613E+03 -0.10374858945E+02 -0.12653820182E+03  0.21482303763E+03  0.12509000000E+03 0.  0.
<mgrwt>
<rscale>  2 0.46345495E+03</rscale>
<asrwt>0</asrwt>
<pdfrwt beam="1">  1       21 0.18533714E-01 0.46345495E+03</pdfrwt>
<pdfrwt beam="2">  1       21 0.62657746E-01 0.46345495E+03</pdfrwt>
<totfact> 0.57765654E+04</totfact>
</mgrwt>
</event>
<event>
 7    0  0.4709932E-002  0.4488380E+03  0.7546771E-02  0.1028069E+00
         21   -1    0    0  502  501  0.00000000000E+00  0.00000000000E+00  0.13018905848E+03  0.13018905848E+03  0.00000000000E+00 0. -1.
         21   -1    0    0  501  502 -0.00000000000E+00 -0.00000000000E+00 -0.38685195474E+03  0.38685195474E+03  0.00000000000E+00 0. -1.
      99926    2    1    2    0    0  0.14210854715E-13  0.17763568394E-14 -0.25666289626E+03  0.51704101321E+03  0.44883801870E+03 0.  0.
      99925    2    3    3    0    0  0.75666136691E+02  0.52657051538E+01 -0.74907977809E+02  0.28372695369E+03  0.26293856168E+03 0.  0.
         25    1    4    4    0    0  0.51833910246E+02  0.34462546455E+02 -0.16746109215E+02  0.14072086424E+03  0.12509000000E+03 0.  0.
         25    1    3    3    0    0 -0.75666136691E+02 -0.52657051538E+01 -0.18175491845E+03  0.23331405953E+03  0.12509000000E+03 0.  0.
         25    1    4    4    0    0  0.23832226445E+02 -0.29196841301E+02 -0.58161868594E+02  0.14300608944E+03  0.12509000000E+03 0.  0.
<mgrwt>
<rscale>  2 0.44883802E+03</rscale>
<asrwt>0</asrwt>
<pdfrwt beam="1">  1       21 0.19145450E-01 0.44883802E+03</pdfrwt>
<pdfrwt beam="2">  1       21 0.56889993E-01 0.44883802E+03</pdfrwt>
<totfact> 0.67320669E+04</totfact>
</mgrwt>
</event>
<event>
 7    0  0.4709932E-002  0.4589358E+03  0.7546771E-02  0.1025090E+00
         21   -1    0    0  502  501  0.00000000000E+00  0.00000000000E+00  0.57881954620E+02  0.57881954620E+02  0.00000000000E+00 0.  1.
         21   -1    0    0  501  502 -0.00000000000E+00 -0.00000000000E+00 -0.90970541704E+03  0.90970541704E+03  0.00000000000E+00 0.  1.
      99926    2    1    2    0    0 -0.14210854715E-13 -0.35527136788E-14 -0.85182346242E+03  0.96758737166E+03  0.45893584592E+03 0.  0.
      99925    2    3    3    0    0  0.74206252429E+02  0.20787810216E+02 -0.34848849263E+03  0.44324750014E+03  0.26284104689E+03 0.  0.
         25    1    4    4    0    0  0.40321262934E+01 -0.22308945970E+01 -0.12657559567E+03  0.17801720269E+03  0.12509000000E+03 0.  0.
         25    1    3    3    0    0 -0.74206252429E+02 -0.20787810216E+02 -0.50333496978E+03  0.52433987151E+03  0.12509000000E+03 0.  0.
         25    1    4    4    0    0  0.70174126135E+02  0.23018704813E+02 -0.22191289697E+03  0.26523029746E+03  0.12509000000E+03 0.  0.
<mgrwt>
<rscale>  2 0.45893585E+03</rscale>
<asrwt>0</asrwt>
<pdfrwt beam="1">  1       21 0.85120528E-02 0.45893585E+03</pdfrwt>
<pdfrwt beam="2">  1       21 0.13378020E+00 0.45893585E+03</pdfrwt>
<totfact> 0.39216044E+04</totfact>
</mgrwt>
</event>
<event>
 7    0  0.4709932E-002  0.4528144E+03  0.7546771E-02  0.1026886E+00
         21   -1    0    0  502  501  0.00000000000E+00  0.00000000000E+00  0.17674452610E+03  0.17674452610E+03  0.00000000000E+00 0.  1.
         21   -1    0    0  501  502 -0.00000000000E+00 -0.00000000000E+00 -0.29002434781E+03  0.29002434781E+03  0.00000000000E+00 0.  1.
      99926    2    1    2    0    0  0.00000000000E+00  0.00000000000E+00 -0.11327982171E+03  0.46676887391E+03  0.45281438101E+03 0.  0.
      99925    2    3    3    0    0  0.41101011638E+02  0.32396748672E+02  0.29577035651E+02  0.26980585130E+03  0.26302386560E+03 0.  0.
         25    1    4    4    0    0  0.12258002418E+02  0.34967314635E+02  0.50151344362E+02  0.13976994368E+03  0.12509000000E+03 0.  0.
         25    1    3    3    0    0 -0.41101011638E+02 -0.32396748672E+02 -0.14285685736E+03  0.19696302261E+03  0.12509000000E+03 0.  0.
         25    1    4    4    0    0  0.28843009219E+02 -0.25705659626E+01 -0.20574308711E+02  0.13003590761E+03  0.12509000000E+03 0.  0.
<mgrwt>
<rscale>  2 0.45281438E+03</rscale>
<asrwt>0</asrwt>
<pdfrwt beam="1">  1       21 0.25991842E-01 0.45281438E+03</pdfrwt>
<pdfrwt beam="2">  1       21 0.42650639E-01 0.45281438E+03</pdfrwt>
<totfact> 0.68863045E+04</totfact>
</mgrwt>
</event>
<event>
 7    0  0.4709932E-002  0.4572918E+03  0.7546771E-02  0.1025570E+00
         21   -1    0    0  502  501  0.00000000000E+00  0.00000000000E+00  0.32335915191E+03  0.32335915191E+03  0.00000000000E+00 0. -1.
         21   -1    0    0  501  502 -0.00000000000E+00 -0.00000000000E+00 -0.16167458398E+03  0.16167458398E+03  0.00000000000E+00 0. -1.
      99926    2    1    2    0    0 -0.17763568394E-14 -0.14210854715E-13  0.16168456794E+03  0.48503373589E+03  0.45729183837E+03 0.  0.
      99925    2    3    3    0    0 -0.41299356251E+01  0.10041841012E+03  0.16113387677E+03  0.32456964389E+03  0.26321172853E+03 0.  0.
         25    1    3    3    0    0  0.41299356251E+01 -0.10041841012E+03  0.55069116822E+00  0.16046409199E+03  0.12509000000E+03 0.  0.
         25    1    4    4    0    0  0.26716230054E+02  0.20134193637E+02  0.64989860621E+02  0.14488040856E+03  0.12509000000E+03 0.  0.
         25    1    4    4    0    0 -0.30846165679E+02  0.80284216481E+02  0.96144016149E+02  0.17968923533E+03  0.12509000000E+03 0.  0.
<mgrwt>
<rscale>  2 0.45729184E+03</rscale>
<asrwt>0</asrwt>
<pdfrwt beam="1">  1       21 0.47552816E-01 0.45729184E+03</pdfrwt>
<pdfrwt beam="2">  1       21 0.23775674E-01 0.45729184E+03</pdfrwt>
<totfact> 0.65142245E+04</totfact>
</mgrwt>
</event>
<event>
 7    0  0.4709932E-002  0.4563656E+03  0.7546771E-02  0.1025841E+00
         21   -1    0    0  502  501  0.00000000000E+00  0.00000000000E+00  0.14242976563E+03  0.14242976563E+03  0.00000000000E+00 0.  1.
         21   -1    0    0  501  502 -0.00000000000E+00 -0.00000000000E+00 -0.36556543480E+03  0.36556543480E+03  0.00000000000E+00 0.  1.
      99926    2    1    2    0    0  0.00000000000E+00  0.00000000000E+00 -0.22313566917E+03  0.50799520042E+03  0.45636563937E+03 0.  0.
      99925    2    3    3    0    0  0.19808344292E+02  0.69885994395E+02 -0.23861763046E+03  0.36251797904E+03  0.26306746063E+03 0.  0.
         25    1    4    4    0    0 -0.56444169094E+01  0.11628242108E+01 -0.13618453671E+03  0.18500526409E+03  0.12509000000E+03 0.  0.
         25    1    4    4    0    0  0.25452761201E+02  0.68723170184E+02 -0.10243309376E+03  0.17751271495E+03  0.12509000000E+03 0.  0.
         25    1    3    3    0    0 -0.19808344292E+02 -0.69885994395E+02  0.15481961293E+02  0.14547722138E+03  0.12509000000E+03 0.  0.
<mgrwt>
<rscale>  2 0.45636564E+03</rscale>
<asrwt>0</asrwt>
<pdfrwt beam="1">  1       21 0.20945554E-01 0.45636564E+03</pdfrwt>
<pdfrwt beam="2">  1       21 0.53759622E-01 0.45636564E+03</pdfrwt>
<totfact> 0.64015865E+04</totfact>
</mgrwt>
</event>
<event>
 7    0  0.4709932E-002  0.4493404E+03  0.7546771E-02  0.1027919E+00
         21   -1    0    0  502  501  0.00000000000E+00  0.00000000000E+00  0.23523129911E+03  0.23523129911E+03  0.00000000000E+00 0. -1.
         21   -1    0    0  501  502 -0.00000000000E+00 -0.00000000000E+00 -0.21458329546E+03  0.21458329546E+03  0.00000000000E+00 0. -1.
      99926    2    1    2    0    0  0.00000000000E+00  0.00000000000E+00  0.20648003658E+02  0.44981459457E+03  0.44934043823E+03 0.  0.
      99925    2    3    3    0    0  0.17458042235E+01 -0.23082055482E+02 -0.92387340450E+02  0.27963725696E+03  0.26291775461E+03 0.  0.
         25    1    4    4    0    0  0.13548618871E+02  0.21986810903E+02 -0.65222249067E+02  0.14341699620E+03  0.12509000000E+03 0.  0.
         25    1    4    4    0    0 -0.11802814648E+02 -0.45068866384E+02 -0.27165091383E+02  0.13622026076E+03  0.12509000000E+03 0.  0.
         25    1    3    3    0    0 -0.17458042235E+01  0.23082055482E+02  0.11303534411E+03  0.17017733761E+03  0.12509000000E+03 0.  0.
<mgrwt>
<rscale>  2 0.44934044E+03</rscale>
<asrwt>0</asrwt>
<pdfrwt beam="1">  1       21 0.34592838E-01 0.44934044E+03</pdfrwt>
<pdfrwt beam="2">  1       21 0.31556367E-01 0.44934044E+03</pdfrwt>
<totfact> 0.72129927E+04</totfact>
</mgrwt>
</event>
<event>
 7    0  0.4709932E-002  0.4481810E+03  0.7546771E-02  0.1028266E+00
         21   -1    0    0  502  501  0.00000000000E+00  0.00000000000E+00  0.14229158783E+03  0.14229158783E+03  0.00000000000E+00 0.  1.
         21   -1    0    0  501  502 -0.00000000000E+00 -0.00000000000E+00 -0.35291302981E+03  0.35291302981E+03  0.00000000000E+00 0.  1.
      99926    2    1    2    0    0  0.00000000000E+00 -0.14210854715E-13 -0.21062144197E+03  0.49520461764E+03  0.44818101423E+03 0.  0.
      99925    2    3    3    0    0 -0.28023959911E+02  0.10264110637E+03 -0.14078215518E+03  0.31675133769E+03  0.26304230775E+03 0.  0.
         25    1    4    4    0    0 -0.91362026954E+01  0.93379106557E+02 -0.68055140963E+02  0.17053485876E+03  0.12509000000E+03 0.  0.
         25    1    3    3    0    0  0.28023959911E+02 -0.10264110637E+03 -0.69839286792E+02  0.17845327995E+03  0.12509000000E+03 0.  0.
         25    1    4    4    0    0 -0.18887757215E+02  0.92619998143E+01 -0.72727014217E+02  0.14621647893E+03  0.12509000000E+03 0.  0.
<mgrwt>
<rscale>  2 0.44818101E+03</rscale>
<asrwt>0</asrwt>
<pdfrwt beam="1">  1       21 0.20925234E-01 0.44818101E+03</pdfrwt>
<pdfrwt beam="2">  1       21 0.51898974E-01 0.44818101E+03</pdfrwt>
<totfact> 0.69283956E+04</totfact>
</mgrwt>
</event>
<event>
 7    0  0.4709932E-002  0.4345622E+03  0.7546771E-02  0.1032428E+00
         21   -1    0    0  502  501  0.00000000000E+00  0.00000000000E+00  0.56394745169E+02  0.56394745169E+02  0.00000000000E+00 0. -1.
         21   -1    0    0  501  502 -0.00000000000E+00 -0.00000000000E+00 -0.83715374921E+03  0.83715374921E+03  0.00000000000E+00 0. -1.
      99926    2    1    2    0    0 -0.14210854715E-13  0.22204460493E-15 -0.78075900404E+03  0.89354849438E+03  0.43456218130E+03 0.  0.
      99925    2    3    3    0    0  0.73046174571E+02  0.18381475117E+01 -0.38247431631E+03  0.46973565481E+03  0.26272773046E+03 0.  0.
         25    1    4    4    0    0  0.61793908326E+02 -0.11322229022E+02 -0.14994807180E+03  0.20513072006E+03  0.12509000000E+03 0.  0.
         25    1    4    4    0    0  0.11252266245E+02  0.13160376534E+02 -0.23252624452E+03  0.26460493475E+03  0.12509000000E+03 0.  0.
         25    1    3    3    0    0 -0.73046174571E+02 -0.18381475117E+01 -0.39828468773E+03  0.42381283957E+03  0.12509000000E+03 0.  0.
<mgrwt>
<rscale>  2 0.43456218E+03</rscale>
<asrwt>0</asrwt>
<pdfrwt beam="1">  1       21 0.82933456E-02 0.43456218E+03</pdfrwt>
<pdfrwt beam="2">  1       21 0.12311083E+00 0.43456218E+03</pdfrwt>
<totfact> 0.51230211E+04</totfact>
</mgrwt>
</event>
<event>
 7    0  0.4709932E-002  0.4537124E+03  0.7546771E-02  0.1026621E+00
         21   -1    0    0  502  501  0.00000000000E+00  0.00000000000E+00  0.87967102377E+03  0.87967102377E+03  0.00000000000E+00 0. -1.
         21   -1    0    0  501  502 -0.00000000000E+00 -0.00000000000E+00 -0.58503379470E+02  0.58503379470E+02  0.00000000000E+00 0. -1.
      99926    2    1    2    0    0  0.00000000000E+00  0.00000000000E+00  0.82116764430E+03  0.93817440324E+03  0.45371236577E+03 0.  0.
      99925    2    3    3    0    0 -0.78531839846E+02 -0.32505849111E+02  0.36702741217E+03  0.45951508950E+03  0.26309906137E+03 0.  0.
         25    1    4    4    0    0 -0.44823709300E+02  0.17969955661E+02  0.14455871544E+03  0.19717204298E+03  0.12509000000E+03 0.  0.
         25    1    3    3    0    0  0.78531839846E+02  0.32505849111E+02  0.45414023213E+03  0.47865931374E+03  0.12509000000E+03 0.  0.
         25    1    4    4    0    0 -0.33708130546E+02 -0.50475804772E+02  0.22246869673E+03  0.26234304652E+03  0.12509000000E+03 0.  0.
<mgrwt>
<rscale>  2 0.45371237E+03</rscale>
<asrwt>0</asrwt>
<pdfrwt beam="1">  1       21 0.12936338E+00 0.45371237E+03</pdfrwt>
<pdfrwt beam="2">  1       21 0.86034387E-02 0.45371237E+03</pdfrwt>
<totfact> 0.42045218E+04</totfact>
</mgrwt>
</event>
<event>
 7    0  0.4709932E-002  0.4510682E+03  0.7546771E-02  0.1027404E+00
         21   -1    0    0  502  501  0.00000000000E+00  0.00000000000E+00  0.13126140573E+03  0.13126140573E+03  0.00000000000E+00 0. -1.
         21   -1    0    0  501  502 -0.00000000000E+00 -0.00000000000E+00 -0.38751400327E+03  0.38751400327E+03  0.00000000000E+00 0. -1.
      99926    2    1    2    0    0  0.71054273576E-14 -0.71054273576E-14 -0.25625259754E+03  0.51877540901E+03  0.45106821130E+03 0.  0.
      99925    2    3    3    0    0 -0.42776651837E+02  0.38158115991E+02 -0.54473533457E+02  0.27454563490E+03  0.26291073777E+03 0.  0.
         25    1    3    3    0    0  0.42776651837E+02 -0.38158115991E+02 -0.20177906409E+03  0.24422977411E+03  0.12509000000E+03 0.  0.
         25    1    4    4    0    0 -0.50211054309E+02  0.48007298598E+02 -0.35513990010E+02  0.14742659964E+03  0.12509000000E+03 0.  0.
         25    1    4    4    0    0  0.74344024724E+01 -0.98491826076E+01 -0.18959543447E+02  0.12711903526E+03  0.12509000000E+03 0.  0.
<mgrwt>
<rscale>  2 0.45106821E+03</rscale>
<asrwt>0</asrwt>
<pdfrwt beam="1">  1       21 0.19303148E-01 0.45106821E+03</pdfrwt>
<pdfrwt beam="2">  1       21 0.56987354E-01 0.45106821E+03</pdfrwt>
<totfact> 0.66005762E+04</totfact>
</mgrwt>
</event>
<event>
 7    0  0.4709932E-002  0.4585551E+03  0.7546771E-02  0.1025201E+00
         21   -1    0    0  502  501  0.00000000000E+00  0.00000000000E+00  0.16295314398E+03  0.16295314398E+03  0.00000000000E+00 0. -1.
         21   -1    0    0  501  502 -0.00000000000E+00 -0.00000000000E+00 -0.32259695357E+03  0.32259695357E+03  0.00000000000E+00 0. -1.
      99926    2    1    2    0    0 -0.71054273576E-14  0.00000000000E+00 -0.15964380959E+03  0.48555009756E+03  0.45855506899E+03 0.  0.
      99925    2    3    3    0    0 -0.41526231786E+02 -0.10179261729E+03 -0.60084022025E+02  0.29152477895E+03  0.26323077741E+03 0.  0.
         25    1    4    4    0    0 -0.43787902088E+02 -0.63595113320E+02 -0.64751465451E+02  0.16062994486E+03  0.12509000000E+03 0.  0.
         25    1    3    3    0    0  0.41526231786E+02  0.10179261729E+03 -0.99559787568E+02  0.19402531861E+03  0.12509000000E+03 0.  0.
         25    1    4    4    0    0  0.22616703023E+01 -0.38197503973E+02  0.46674434269E+01  0.13089483409E+03  0.12509000000E+03 0.  0.
<mgrwt>
<rscale>  2 0.45855507E+03</rscale>
<asrwt>0</asrwt>
<pdfrwt beam="1">  1       21 0.23963698E-01 0.45855507E+03</pdfrwt>
<pdfrwt beam="2">  1       21 0.47440728E-01 0.45855507E+03</pdfrwt>
<totfact> 0.64459867E+04</totfact>
</mgrwt>
</event>
<event>
 7    0  0.4709932E-002  0.4511918E+03  0.7546771E-02  0.1027367E+00
         21   -1    0    0  502  501  0.00000000000E+00  0.00000000000E+00  0.97459633718E+02  0.97459633718E+02  0.00000000000E+00 0. -1.
         21   -1    0    0  501  502 -0.00000000000E+00 -0.00000000000E+00 -0.52220087502E+03  0.52220087502E+03  0.00000000000E+00 0. -1.
      99926    2    1    2    0    0 -0.71054273576E-14  0.00000000000E+00 -0.42474124130E+03  0.61966050873E+03  0.45119178187E+03 0.  0.
      99925    2    3    3    0    0 -0.58851316445E+02  0.49169199971E+02 -0.37574339595E+03  0.46496925293E+03  0.26293006465E+03 0.  0.
         25    1    4    4    0    0 -0.93375311669E+01  0.39973633749E+02 -0.23936107659E+03  0.27317817257E+03  0.12509000000E+03 0.  0.
         25    1    4    4    0    0 -0.49513785278E+02  0.91955662223E+01 -0.13638231937E+03  0.19179108036E+03  0.12509000000E+03 0.  0.
         25    1    3    3    0    0  0.58851316445E+02 -0.49169199971E+02 -0.48997845345E+02  0.15469125580E+03  0.12509000000E+03 0.  0.
<mgrwt>
<rscale>  2 0.45119178E+03</rscale>
<asrwt>0</asrwt>
<pdfrwt beam="1">  1       21 0.14332299E-01 0.45119178E+03</pdfrwt>
<pdfrwt beam="2">  1       21 0.76794248E-01 0.45119178E+03</pdfrwt>
<totfact> 0.59245739E+04</totfact>
</mgrwt>
</event>
<event>
 7    0  0.4709932E-002  0.4689110E+03  0.7546771E-02  0.1022228E+00
         21   -1    0    0  502  501  0.00000000000E+00  0.00000000000E+00  0.59086992925E+03  0.59086992925E+03  0.00000000000E+00 0. -1.
         21   -1    0    0  501  502 -0.00000000000E+00 -0.00000000000E+00 -0.93031284821E+02  0.93031284821E+02  0.00000000000E+00 0. -1.
      99926    2    1    2    0    0  0.71054273576E-14  0.00000000000E+00  0.49783864443E+03  0.68390121407E+03  0.46891103071E+03 0.  0.
      99925    2    3    3    0    0 -0.57063948984E+02  0.35294061444E+02  0.46467947332E+03  0.53813083376E+03  0.26297493468E+03 0.  0.
         25    1    4    4    0    0  0.72497176594E+01 -0.32938970613E+01  0.22521029887E+03  0.25774133348E+03  0.12509000000E+03 0.  0.
         25    1    3    3    0    0  0.57063948984E+02 -0.35294061444E+02  0.33159171105E+02  0.14577038031E+03  0.12509000000E+03 0.  0.
         25    1    4    4    0    0 -0.64313666644E+02  0.38587958505E+02  0.23946917445E+03  0.28038950029E+03  0.12509000000E+03 0.  0.
<mgrwt>
<rscale>  2 0.46891103E+03</rscale>
<asrwt>0</asrwt>
<pdfrwt beam="1">  1       21 0.86892635E-01 0.46891103E+03</pdfrwt>
<pdfrwt beam="2">  1       21 0.13681072E-01 0.46891103E+03</pdfrwt>
<totfact> 0.48273186E+04</totfact>
</mgrwt>
</event>
<event>
 7    0  0.4709932E-002  0.4530007E+03  0.7546771E-02  0.1026831E+00
         21   -1    0    0  502  501  0.00000000000E+00  0.00000000000E+00  0.24988991873E+03  0.24988991873E+03  0.00000000000E+00 0.  1.
         21   -1    0    0  501  502 -0.00000000000E+00 -0.00000000000E+00 -0.20530007368E+03  0.20530007368E+03  0.00000000000E+00 0.  1.
      99926    2    1    2    0    0  0.00000000000E+00 -0.71054273576E-14  0.44589845045E+02  0.45518999241E+03  0.45300074493E+03 0.  0.
      99925    2    3    3    0    0  0.10413850880E+03  0.34926320360E+02  0.46221059494E+02  0.28871222864E+03  0.26297088766E+03 0.  0.
         25    1    4    4    0    0  0.77976968654E+02 -0.70061445205E+00  0.50938648121E+02  0.15595881659E+03  0.12509000000E+03 0.  0.
         25    1    4    4    0    0  0.26161540144E+02  0.35626934812E+02 -0.47175886269E+01  0.13275341204E+03  0.12509000000E+03 0.  0.
         25    1    3    3    0    0 -0.10413850880E+03 -0.34926320360E+02 -0.16312144495E+01  0.16647776377E+03  0.12509000000E+03 0.  0.
<mgrwt>
<rscale>  2 0.45300074E+03</rscale>
<asrwt>0</asrwt>
<pdfrwt beam="1">  1       21 0.36748518E-01 0.45300074E+03</pdfrwt>
<pdfrwt beam="2">  1       21 0.30191187E-01 0.45300074E+03</pdfrwt>
<totfact> 0.69636039E+04</totfact>
</mgrwt>
</event>
<event>
 7    0  0.4709932E-002  0.4476983E+03  0.7546771E-02  0.1028411E+00
         21   -1    0    0  502  501  0.00000000000E+00  0.00000000000E+00  0.12028835620E+03  0.12028835620E+03  0.00000000000E+00 0.  1.
         21   -1    0    0  501  502 -0.00000000000E+00 -0.00000000000E+00 -0.41656934164E+03  0.41656934164E+03  0.00000000000E+00 0.  1.
      99926    2    1    2    0    0 -0.17763568394E-14  0.35527136788E-14 -0.29628098544E+03  0.53685769784E+03  0.44769829729E+03 0.  0.
      99925    2    3    3    0    0 -0.14575897812E+02 -0.12934036309E+02 -0.31315537688E+03  0.40913926034E+03  0.26258122208E+03 0.  0.
         25    1    4    4    0    0  0.14789484114E+02  0.22492206559E+02 -0.17899619800E+03  0.22002676018E+03  0.12509000000E+03 0.  0.
         25    1    4    4    0    0 -0.29365381926E+02 -0.35426242868E+02 -0.13415917888E+03  0.18911250016E+03  0.12509000000E+03 0.  0.
         25    1    3    3    0    0  0.14575897812E+02  0.12934036309E+02  0.16874391432E+02  0.12771843750E+03  0.12509000000E+03 0.  0.
<mgrwt>
<rscale>  2 0.44769830E+03</rscale>
<asrwt>0</asrwt>
<pdfrwt beam="1">  1       21 0.17689464E-01 0.44769830E+03</pdfrwt>
<pdfrwt beam="2">  1       21 0.61260198E-01 0.44769830E+03</pdfrwt>
<totfact> 0.66504093E+04</totfact>
</mgrwt>
</event>
<event>
 7    0  0.4709932E-002  0.4518207E+03  0.7546771E-02  0.1027180E+00
         21   -1    0    0  502  501  0.00000000000E+00  0.00000000000E+00  0.49855980814E+03  0.49855980814E+03  0.00000000000E+00 0. -1.
         21   -1    0    0  501  502 -0.00000000000E+00 -0.00000000000E+00 -0.10236582458E+03  0.10236582458E+03  0.00000000000E+00 0. -1.
      99926    2    1    2    0    0 -0.14210854715E-13  0.71054273576E-14  0.39619398356E+03  0.60092563273E+03  0.45182069835E+03 0.  0.
      99925    2    3    3    0    0  0.94455040068E+02 -0.56764904596E+02  0.24975535447E+03  0.37903424223E+03  0.26295476932E+03 0.  0.
         25    1    4    4    0    0  0.14536024565E+02 -0.93877309685E+01  0.84742711889E+02  0.15207978439E+03  0.12509000000E+03 0.  0.
         25    1    4    4    0    0  0.79919015503E+02 -0.47377173628E+02  0.16501264258E+03  0.22695445783E+03  0.12509000000E+03 0.  0.
         25    1    3    3    0    0 -0.94455040068E+02  0.56764904596E+02  0.14643862909E+03  0.22189139050E+03  0.12509000000E+03 0.  0.
<mgrwt>
<rscale>  2 0.45182070E+03</rscale>
<asrwt>0</asrwt>
<pdfrwt beam="1">  1       21 0.73317618E-01 0.45182070E+03</pdfrwt>
<pdfrwt beam="2">  1       21 0.15053798E-01 0.45182070E+03</pdfrwt>
<totfact> 0.60117268E+04</totfact>
</mgrwt>
</event>
<event>
 7    0  0.4709932E-002  0.4605391E+03  0.7546771E-02  0.1024625E+00
         21   -1    0    0  502  501  0.00000000000E+00  0.00000000000E+00  0.10704923475E+03  0.10704923475E+03  0.00000000000E+00 0. -1.
         21   -1    0    0  501  502 -0.00000000000E+00 -0.00000000000E+00 -0.49532404481E+03  0.49532404481E+03  0.00000000000E+00 0. -1.
      99926    2    1    2    0    0  0.00000000000E+00  0.00000000000E+00 -0.38827481007E+03  0.60237327956E+03  0.46053907521E+03 0.  0.
      99925    2    3    3    0    0 -0.94384299643E+02 -0.66707422199E+02 -0.27581681850E+03  0.39828363219E+03  0.26305257670E+03 0.  0.
         25    1    4    4    0    0 -0.44522850421E+02  0.64132025904E+01 -0.14602720667E+03  0.19747117907E+03  0.12509000000E+03 0.  0.
         25    1    4    4    0    0 -0.49861449222E+02 -0.73120624789E+02 -0.12978961183E+03  0.20081245312E+03  0.12509000000E+03 0.  0.
         25    1    3    3    0    0  0.94384299643E+02  0.66707422199E+02 -0.11245799157E+03  0.20408964737E+03  0.12509000000E+03 0.  0.
<mgrwt>
<rscale>  2 0.46053908E+03</rscale>
<asrwt>0</asrwt>
<pdfrwt beam="1">  1       21 0.15742534E-01 0.46053908E+03</pdfrwt>
<pdfrwt beam="2">  1       21 0.72841772E-01 0.46053908E+03</pdfrwt>
<totfact> 0.56039360E+04</totfact>
</mgrwt>
</event>
<event>
 7    0  0.4709932E-002  0.4411315E+03  0.7546771E-02  0.1030400E+00
         21   -1    0    0  502  501  0.00000000000E+00  0.00000000000E+00  0.37736010757E+03  0.37736010757E+03  0.00000000000E+00 0.  1.
         21   -1    0    0  501  502 -0.00000000000E+00 -0.00000000000E+00 -0.12891997074E+03  0.12891997074E+03  0.00000000000E+00 0.  1.
      99926    2    1    2    0    0  0.00000000000E+00  0.00000000000E+00  0.24844013683E+03  0.50628007832E+03  0.44113151793E+03 0.  0.
      99925    2    3    3    0    0 -0.20715999446E+02  0.22139115085E+02  0.49379519858E+02  0.26923170693E+03  0.26292219759E+03 0.  0.
         25    1    4    4    0    0 -0.42931687015E+02  0.83164743997E+01  0.80885217075E+00  0.13251587014E+03  0.12509000000E+03 0.  0.
         25    1    3    3    0    0  0.20715999446E+02 -0.22139115085E+02  0.19906061697E+03  0.23704837139E+03  0.12509000000E+03 0.  0.
         25    1    4    4    0    0  0.22215687569E+02  0.13822640685E+02  0.48570667688E+02  0.13671583679E+03  0.12509000000E+03 0.  0.
<mgrwt>
<rscale>  2 0.44113152E+03</rscale>
<asrwt>0</asrwt>
<pdfrwt beam="1">  1       21 0.55494133E-01 0.44113152E+03</pdfrwt>
<pdfrwt beam="2">  1       21 0.18958819E-01 0.44113152E+03</pdfrwt>
<totfact> 0.72486252E+04</totfact>
</mgrwt>
</event>
<event>
 7    0  0.4709932E-002  0.4529850E+03  0.7546771E-02  0.1026836E+00
         21   -1    0    0  502  501  0.00000000000E+00  0.00000000000E+00  0.23718064711E+03  0.23718064711E+03  0.00000000000E+00 0. -1.
         21   -1    0    0  501  502 -0.00000000000E+00 -0.00000000000E+00 -0.21628596674E+03  0.21628596674E+03  0.00000000000E+00 0. -1.
      99926    2    1    2    0    0 -0.71054273576E-14  0.00000000000E+00  0.20894680370E+02  0.45346661385E+03  0.45298496908E+03 0.  0.
      99925    2    3    3    0    0  0.58700351077E+02  0.69863474506E+02 -0.50632217247E+02  0.28290799792E+03  0.26295755851E+03 0.  0.
         25    1    4    4    0    0  0.35999059651E+02  0.70242012076E+02 -0.55381501013E+01  0.14801368775E+03  0.12509000000E+03 0.  0.
         25    1    3    3    0    0 -0.58700351077E+02 -0.69863474506E+02  0.71526897617E+02  0.17055861593E+03  0.12509000000E+03 0.  0.
         25    1    4    4    0    0  0.22701291426E+02 -0.37853756985E+00 -0.45094067145E+02  0.13489431016E+03  0.12509000000E+03 0.  0.
<mgrwt>
<rscale>  2 0.45298497E+03</rscale>
<asrwt>0</asrwt>
<pdfrwt beam="1">  1       21 0.34879507E-01 0.45298497E+03</pdfrwt>
<pdfrwt beam="2">  1       21 0.31806760E-01 0.45298497E+03</pdfrwt>
<totfact> 0.69773361E+04</totfact>
</mgrwt>
</event>
<event>
 7    0  0.4709932E-002  0.4525507E+03  0.7546771E-02  0.1026964E+00
         21   -1    0    0  502  501  0.00000000000E+00  0.00000000000E+00  0.27974863703E+02  0.27974863703E+02  0.00000000000E+00 0. -1.
         21   -1    0    0  501  502 -0.00000000000E+00 -0.00000000000E+00 -0.18302334593E+04  0.18302334593E+04  0.00000000000E+00 0. -1.
      99926    2    1    2    0    0  0.00000000000E+00 -0.71054273576E-14 -0.18022585955E+04  0.18582083230E+04  0.45255068917E+03 0.  0.
      99925    2    3    3    0    0  0.68093996690E+00  0.53717626869E+02 -0.73812816645E+03  0.78540492748E+03  0.26294802316E+03 0.  0.
         25    1    3    3    0    0 -0.68093996690E+00 -0.53717626869E+02 -0.10641304291E+04  0.10728033955E+04  0.12509000000E+03 0.  0.
         25    1    4    4    0    0 -0.98531290755E+01  0.64415774500E+02 -0.35044934926E+03  0.37776809110E+03  0.12509000000E+03 0.  0.
         25    1    4    4    0    0  0.10534069042E+02 -0.10698147631E+02 -0.38767881719E+03  0.40763683638E+03  0.12509000000E+03 0.  0.
<mgrwt>
<rscale>  2 0.45255069E+03</rscale>
<asrwt>0</asrwt>
<pdfrwt beam="1">  1       21 0.41139517E-02 0.45255069E+03</pdfrwt>
<pdfrwt beam="2">  1       21 0.26915191E+00 0.45255069E+03</pdfrwt>
<totfact> 0.16477105E+04</totfact>
</mgrwt>
</event>
<event>
 7    0  0.4709932E-002  0.4530031E+03  0.7546771E-02  0.1026830E+00
         21   -1    0    0  502  501  0.00000000000E+00  0.00000000000E+00  0.12822992421E+03  0.12822992421E+03  0.00000000000E+00 0. -1.
         21   -1    0    0  501  502 -0.00000000000E+00 -0.00000000000E+00 -0.40008570866E+03  0.40008570866E+03  0.00000000000E+00 0. -1.
      99926    2    1    2    0    0  0.00000000000E+00  0.14210854715E-13 -0.27185578445E+03  0.52831563287E+03  0.45300313508E+03 0.  0.
      99925    2    3    3    0    0 -0.15171581646E+02  0.86876313372E+02 -0.25044508123E+03  0.37377244464E+03  0.26306925124E+03 0.  0.
         25    1    3    3    0    0  0.15171581646E+02 -0.86876313372E+02 -0.21410703216E+02  0.15454318823E+03  0.12509000000E+03 0.  0.
         25    1    4    4    0    0  0.20935639908E+02  0.18447595500E+02 -0.14023657602E+03  0.18998005199E+03  0.12509000000E+03 0.  0.
         25    1    4    4    0    0 -0.36107221555E+02  0.68428717872E+02 -0.11020850521E+03  0.18379239266E+03  0.12509000000E+03 0.  0.
<mgrwt>
<rscale>  2 0.45300314E+03</rscale>
<asrwt>0</asrwt>
<pdfrwt beam="1">  1       21 0.18857342E-01 0.45300314E+03</pdfrwt>
<pdfrwt beam="2">  1       21 0.58836133E-01 0.45300314E+03</pdfrwt>
<totfact> 0.64332907E+04</totfact>
</mgrwt>
</event>
<event>
 7    0  0.4709932E-002  0.4492660E+03  0.7546771E-02  0.1027941E+00
         21   -1    0    0  502  501  0.00000000000E+00  0.00000000000E+00  0.22917138808E+03  0.22917138808E+03  0.00000000000E+00 0.  1.
         21   -1    0    0  501  502 -0.00000000000E+00 -0.00000000000E+00 -0.22018444542E+03  0.22018444542E+03  0.00000000000E+00 0.  1.
      99926    2    1    2    0    0  0.00000000000E+00  0.71054273576E-14  0.89869426560E+01  0.44935583350E+03  0.44926595682E+03 0.  0.
      99925    2    3    3    0    0 -0.82416548269E+02  0.58593676077E+02 -0.30875143240E+02  0.28363860357E+03  0.26319551033E+03 0.  0.
         25    1    4    4    0    0 -0.39869549672E+02  0.43317228386E+02  0.22966815388E+02  0.14014615933E+03  0.12509000000E+03 0.  0.
         25    1    3    3    0    0  0.82416548269E+02 -0.58593676077E+02  0.39862085896E+02  0.16571722993E+03  0.12509000000E+03 0.  0.
         25    1    4    4    0    0 -0.42546998598E+02  0.15276447691E+02 -0.53841958627E+02  0.14349244424E+03  0.12509000000E+03 0.  0.
<mgrwt>
<rscale>  2 0.44926596E+03</rscale>
<asrwt>0</asrwt>
<pdfrwt beam="1">  1       21 0.33701675E-01 0.44926596E+03</pdfrwt>
<pdfrwt beam="2">  1       21 0.32380065E-01 0.44926596E+03</pdfrwt>
<totfact> 0.72208828E+04</totfact>
</mgrwt>
</event>
<event>
 7    0  0.4709932E-002  0.4665421E+03  0.7546771E-02  0.1022901E+00
         21   -1    0    0  502  501  0.00000000000E+00  0.00000000000E+00  0.87902415152E+02  0.87902415152E+02  0.00000000000E+00 0. -1.
         21   -1    0    0  501  502 -0.00000000000E+00 -0.00000000000E+00 -0.61904309849E+03  0.61904309849E+03  0.00000000000E+00 0. -1.
      99926    2    1    2    0    0  0.00000000000E+00 -0.71054273576E-14 -0.53114068334E+03  0.70694551365E+03  0.46654210288E+03 0.  0.
      99925    2    3    3    0    0 -0.79964681987E+02  0.48221163638E+02 -0.45378274891E+03  0.53272901297E+03  0.26298628684E+03 0.  0.
         25    1    4    4    0    0 -0.13616588332E+02  0.49420021396E+02 -0.18771235641E+03  0.23132485133E+03  0.12509000000E+03 0.  0.
         25    1    3    3    0    0  0.79964681987E+02 -0.48221163638E+02 -0.77357934435E+02  0.17421650068E+03  0.12509000000E+03 0.  0.
         25    1    4    4    0    0 -0.66348093655E+02 -0.11988577577E+01 -0.26607039250E+03  0.30140416164E+03  0.12509000000E+03 0.  0.
<mgrwt>
<rscale>  2 0.46654210E+03</rscale>
<asrwt>0</asrwt>
<pdfrwt beam="1">  1       21 0.12926827E-01 0.46654210E+03</pdfrwt>
<pdfrwt beam="2">  1       21 0.91035744E-01 0.46654210E+03</pdfrwt>
<totfact> 0.48015731E+04</totfact>
</mgrwt>
</event>
<event>
 7    0  0.4709932E-002  0.4812657E+03  0.7546771E-02  0.1018788E+00
         21   -1    0    0  502  501  0.00000000000E+00  0.00000000000E+00  0.10676550248E+04  0.10676550248E+04  0.00000000000E+00 0.  1.
         21   -1    0    0  501  502 -0.00000000000E+00 -0.00000000000E+00 -0.54234894000E+02  0.54234894000E+02  0.00000000000E+00 0.  1.
      99926    2    1    2    0    0 -0.71054273576E-14 -0.71054273576E-14  0.10134201308E+04  0.11218899188E+04  0.48126565262E+03 0.  0.
      99925    2    3    3    0    0 -0.51323508545E+02 -0.62818379858E+02  0.87924632401E+03  0.92131482088E+03  0.26299553135E+03 0.  0.
         25    1    3    3    0    0  0.51323508545E+02  0.62818379858E+02  0.13417380680E+03  0.20057509792E+03  0.12509000000E+03 0.  0.
         25    1    4    4    0    0 -0.19172640129E+02 -0.70746312188E+02  0.42854487172E+03  0.45240562109E+03  0.12509000000E+03 0.  0.
         25    1    4    4    0    0 -0.32150868417E+02  0.79279323295E+01  0.45070145229E+03  0.46890919979E+03  0.12509000000E+03 0.  0.
<mgrwt>
<rscale>  2 0.48126565E+03</rscale>
<asrwt>0</asrwt>
<pdfrwt beam="1">  1       21 0.15700808E+00 0.48126565E+03</pdfrwt>
<pdfrwt beam="2">  1       21 0.79757204E-02 0.48126565E+03</pdfrwt>
<totfact> 0.28447627E+04</totfact>
</mgrwt>
</event>
<event>
 7    0  0.4709932E-002  0.4553911E+03  0.7546771E-02  0.1026126E+00
         21   -1    0    0  502  501  0.00000000000E+00  0.00000000000E+00  0.42583730018E+03  0.42583730018E+03  0.00000000000E+00 0. -1.
         21   -1    0    0  501  502 -0.00000000000E+00 -0.00000000000E+00 -0.12174901932E+03  0.12174901932E+03  0.00000000000E+00 0. -1.
      99926    2    1    2    0    0  0.71054273576E-14  0.00000000000E+00  0.30408828086E+03  0.54758631949E+03  0.45539114478E+03 0.  0.
      99925    2    3    3    0    0  0.63809732621E+02  0.88843774400E+02  0.22770712818E+03  0.36470251263E+03  0.26304465072E+03 0.  0.
         25    1    4    4    0    0  0.26438210327E+02  0.56202864847E+02  0.16519336595E+03  0.21631943333E+03  0.12509000000E+03 0.  0.
         25    1    3    3    0    0 -0.63809732621E+02 -0.88843774400E+02  0.76381152684E+02  0.18288380686E+03  0.12509000000E+03 0.  0.
         25    1    4    4    0    0  0.37371522295E+02  0.32640909553E+02  0.62513762224E+02  0.14838307930E+03  0.12509000000E+03 0.  0.
<mgrwt>
<rscale>  2 0.45539114E+03</rscale>
<asrwt>0</asrwt>
<pdfrwt beam="1">  1       21 0.62623132E-01 0.45539114E+03</pdfrwt>
<pdfrwt beam="2">  1       21 0.17904268E-01 0.45539114E+03</pdfrwt>
<totfact> 0.61834698E+04</totfact>
</mgrwt>
</event>
<event>
 7    0  0.4709932E-002  0.4541269E+03  0.7546771E-02  0.1026498E+00
         21   -1    0    0  502  501  0.00000000000E+00  0.00000000000E+00  0.85051543732E+03  0.85051543732E+03  0.00000000000E+00 0. -1.
         21   -1    0    0  501  502 -0.00000000000E+00 -0.00000000000E+00 -0.60619501225E+02  0.60619501225E+02  0.00000000000E+00 0. -1.
      99926    2    1    2    0    0  0.71054273576E-14 -0.14210854715E-13  0.78989593609E+03  0.91113493854E+03  0.45412694963E+03 0.  0.
      99925    2    3    3    0    0 -0.40803515214E+02  0.10022652842E+03  0.43432867905E+03  0.51897952772E+03  0.26265579167E+03 0.  0.
         25    1    3    3    0    0  0.40803515214E+02 -0.10022652842E+03  0.35556725705E+03  0.39215541082E+03  0.12509000000E+03 0.  0.
         25    1    4    4    0    0 -0.54850530468E+02  0.33996908380E+02  0.19339416664E+03  0.23919277218E+03  0.12509000000E+03 0.  0.
         25    1    4    4    0    0  0.14047015255E+02  0.66229620042E+02  0.24093451241E+03  0.27978675555E+03  0.12509000000E+03 0.  0.
<mgrwt>
<rscale>  2 0.45412695E+03</rscale>
<asrwt>0</asrwt>
<pdfrwt beam="1">  1       21 0.12507579E+00 0.45412695E+03</pdfrwt>
<pdfrwt beam="2">  1       21 0.89146331E-02 0.45412695E+03</pdfrwt>
<totfact> 0.43049283E+04</totfact>
</mgrwt>
</event>
<event>
 7    0  0.4709932E-002  0.4545389E+03  0.7546771E-02  0.1026377E+00
         21   -1    0    0  502  501  0.00000000000E+00  0.00000000000E+00  0.44624909130E+02  0.44624909130E+02  0.00000000000E+00 0. -1.
         21   -1    0    0  501  502 -0.00000000000E+00 -0.00000000000E+00 -0.11574568711E+04  0.11574568711E+04  0.00000000000E+00 0. -1.
      99926    2    1    2    0    0  0.00000000000E+00  0.71054273576E-14 -0.11128319620E+04  0.12020817802E+04  0.45453892108E+03 0.  0.
      99925    2    3    3    0    0  0.36764812806E+02  0.40072858072E+02 -0.43935078161E+03  0.51492685314E+03  0.26298872481E+03 0.  0.
         25    1    3    3    0    0 -0.36764812806E+02 -0.40072858072E+02 -0.67348118035E+03  0.68715492708E+03  0.12509000000E+03 0.  0.
         25    1    4    4    0    0  0.44057275816E+01  0.51484239535E+02 -0.26564316471E+03  0.29813392362E+03  0.12509000000E+03 0.  0.
         25    1    4    4    0    0  0.32359085224E+02 -0.11411381464E+02 -0.17370761689E+03  0.21679292952E+03  0.12509000000E+03 0.  0.
<mgrwt>
<rscale>  2 0.45453892E+03</rscale>
<asrwt>0</asrwt>
<pdfrwt beam="1">  1       21 0.65624866E-02 0.45453892E+03</pdfrwt>
<pdfrwt beam="2">  1       21 0.17021425E+00 0.45453892E+03</pdfrwt>
<totfact> 0.32205553E+04</totfact>
</mgrwt>
</event>
<event>
 7    0  0.4709932E-002  0.4506765E+03  0.7546771E-02  0.1027520E+00
         21   -1    0    0  502  501  0.00000000000E+00  0.00000000000E+00  0.29848529496E+02  0.29848529496E+02  0.00000000000E+00 0. -1.
         21   -1    0    0  501  502 -0.00000000000E+00 -0.00000000000E+00 -0.17011669062E+04  0.17011669062E+04  0.00000000000E+00 0. -1.
      99926    2    1    2    0    0  0.00000000000E+00  0.14210854715E-13 -0.16713183767E+04  0.17310154357E+04  0.45067651626E+03 0.  0.
      99925    2    3    3    0    0 -0.54237204851E+02 -0.86848523690E+02 -0.12002449690E+04  0.12329772805E+04  0.26298412164E+03 0.  0.
         25    1    4    4    0    0 -0.75803344312E+01 -0.45978814514E+01 -0.53391868678E+03  0.54844805969E+03  0.12509000000E+03 0.  0.
         25    1    4    4    0    0 -0.46656870420E+02 -0.82250642238E+02 -0.66632628218E+03  0.68452922080E+03  0.12509000000E+03 0.  0.
         25    1    3    3    0    0  0.54237204851E+02  0.86848523690E+02 -0.47107340775E+03  0.49803815521E+03  0.12509000000E+03 0.  0.
<mgrwt>
<rscale>  2 0.45067652E+03</rscale>
<asrwt>0</asrwt>
<pdfrwt beam="1">  1       21 0.43894892E-02 0.45067652E+03</pdfrwt>
<pdfrwt beam="2">  1       21 0.25017163E+00 0.45067652E+03</pdfrwt>
<totfact> 0.19261905E+04</totfact>
</mgrwt>
</event>
<event>
 7    0  0.4709932E-002  0.4578948E+03  0.7546771E-02  0.1025394E+00
         21   -1    0    0  502  501  0.00000000000E+00  0.00000000000E+00  0.52229206650E+03  0.52229206650E+03  0.00000000000E+00 0. -1.
         21   -1    0    0  501  502 -0.00000000000E+00 -0.00000000000E+00 -0.10035938455E+03  0.10035938455E+03  0.00000000000E+00 0. -1.
      99926    2    1    2    0    0  0.00000000000E+00  0.17763568394E-14  0.42193268195E+03  0.62265145104E+03  0.45789479292E+03 0.  0.
      99925    2    3    3    0    0  0.94239227864E+02 -0.12754450575E+02  0.35477108609E+03  0.45176582808E+03  0.26303256797E+03 0.  0.
         25    1    3    3    0    0 -0.94239227864E+02  0.12754450575E+02  0.67161595856E+02  0.17088562296E+03  0.12509000000E+03 0.  0.
         25    1    4    4    0    0  0.45950079464E+02 -0.21012329893E+02  0.11657709790E+03  0.17829934286E+03  0.12509000000E+03 0.  0.
         25    1    4    4    0    0  0.48289148400E+02  0.82578793178E+01  0.23819398819E+03  0.27346648521E+03  0.12509000000E+03 0.  0.
<mgrwt>
<rscale>  2 0.45789479E+03</rscale>
<asrwt>0</asrwt>
<pdfrwt beam="1">  1       21 0.76807656E-01 0.45789479E+03</pdfrwt>
<pdfrwt beam="2">  1       21 0.14758733E-01 0.45789479E+03</pdfrwt>
<totfact> 0.56013882E+04</totfact>
</mgrwt>
</event>
<event>
 7    0  0.4709932E-002  0.4518950E+03  0.7546771E-02  0.1027158E+00
         21   -1    0    0  502  501  0.00000000000E+00  0.00000000000E+00  0.14229853199E+03  0.14229853199E+03  0.00000000000E+00 0.  1.
         21   -1    0    0  501  502 -0.00000000000E+00 -0.00000000000E+00 -0.35876876681E+03  0.35876876681E+03  0.00000000000E+00 0.  1.
      99926    2    1    2    0    0  0.00000000000E+00  0.00000000000E+00 -0.21647023482E+03  0.50106729880E+03  0.45189498267E+03 0.  0.
      99925    2    3    3    0    0  0.48949248825E+02 -0.92214087026E+02 -0.98956179826E+02  0.30017795605E+03  0.26346729013E+03 0.  0.
         25    1    3    3    0    0 -0.48949248825E+02  0.92214087026E+02 -0.11751405500E+03  0.20088934274E+03  0.12509000000E+03 0.  0.
         25    1    4    4    0    0  0.63621345024E+02 -0.49884180146E+02 -0.36438019990E+02  0.15333409397E+03  0.12509000000E+03 0.  0.
         25    1    4    4    0    0 -0.14672096199E+02 -0.42329906879E+02 -0.62518159836E+02  0.14684386209E+03  0.12509000000E+03 0.  0.
<mgrwt>
<rscale>  2 0.45189498E+03</rscale>
<asrwt>0</asrwt>
<pdfrwt beam="1">  1       21 0.20926255E-01 0.45189498E+03</pdfrwt>
<pdfrwt beam="2">  1       21 0.52760113E-01 0.45189498E+03</pdfrwt>
<totfact> 0.66827691E+04</totfact>
</mgrwt>
</event>
<event>
 7    0  0.4709932E-002  0.4586862E+03  0.7546771E-02  0.1025163E+00
         21   -1    0    0  502  501  0.00000000000E+00  0.00000000000E+00  0.89073636388E+03  0.89073636388E+03  0.00000000000E+00 0. -1.
         21   -1    0    0  501  502 -0.00000000000E+00 -0.00000000000E+00 -0.59050301448E+02  0.59050301448E+02  0.00000000000E+00 0. -1.
      99926    2    1    2    0    0  0.00000000000E+00 -0.71054273576E-14  0.83168606243E+03  0.94978666533E+03  0.45868617070E+03 0.  0.
      99925    2    3    3    0    0  0.75960766385E+02 -0.58113826694E+02  0.38368557168E+03  0.47491910200E+03  0.26303285089E+03 0.  0.
         25    1    3    3    0    0 -0.75960766385E+02  0.58113826694E+02  0.44800049076E+03  0.47486756333E+03  0.12509000000E+03 0.  0.
         25    1    4    4    0    0  0.14245371326E+01 -0.69020857154E+01  0.16222148465E+03  0.20497069614E+03  0.12509000000E+03 0.  0.
         25    1    4    4    0    0  0.74536229252E+02 -0.51211740978E+02  0.22146408703E+03  0.26994840586E+03  0.12509000000E+03 0.  0.
<mgrwt>
<rscale>  2 0.45868617E+03</rscale>
<asrwt>0</asrwt>
<pdfrwt beam="1">  1       21 0.13099063E+00 0.45868617E+03</pdfrwt>
<pdfrwt beam="2">  1       21 0.86838684E-02 0.45868617E+03</pdfrwt>
<totfact> 0.39984381E+04</totfact>
</mgrwt>
</event>
<event>
 7    0  0.4709932E-002  0.4530272E+03  0.7546771E-02  0.1026823E+00
         21   -1    0    0  502  501  0.00000000000E+00  0.00000000000E+00  0.29291327779E+03  0.29291327779E+03  0.00000000000E+00 0. -1.
         21   -1    0    0  501  502 -0.00000000000E+00 -0.00000000000E+00 -0.17516584328E+03  0.17516584328E+03  0.00000000000E+00 0. -1.
      99926    2    1    2    0    0  0.00000000000E+00  0.14210854715E-13  0.11774743451E+03  0.46807912108E+03  0.45302715730E+03 0.  0.
      99925    2    3    3    0    0  0.34318973468E+02  0.73976181483E+02 -0.40164150922E+01  0.27540268106E+03  0.26302136373E+03 0.  0.
         25    1    4    4    0    0  0.51055049017E+02  0.22713565665E+02  0.15164430281E+02  0.13784045901E+03  0.12509000000E+03 0.  0.
         25    1    3    3    0    0 -0.34318973468E+02 -0.73976181483E+02  0.12176384960E+03  0.19267644001E+03  0.12509000000E+03 0.  0.
         25    1    4    4    0    0 -0.16736075549E+02  0.51262615818E+02 -0.19180845374E+02  0.13756222205E+03  0.12509000000E+03 0.  0.
<mgrwt>
<rscale>  2 0.45302716E+03</rscale>
<asrwt>0</asrwt>
<pdfrwt beam="1">  1       21 0.43075482E-01 0.45302716E+03</pdfrwt>
<pdfrwt beam="2">  1       21 0.25759683E-01 0.45302716E+03</pdfrwt>
<totfact> 0.68646928E+04</totfact>
</mgrwt>
</event>
<event>
 7    0  0.4709932E-002  0.4513596E+03  0.7546771E-02  0.1027317E+00
         21   -1    0    0  502  501  0.00000000000E+00  0.00000000000E+00  0.44015185099E+03  0.44015185099E+03  0.00000000000E+00 0. -1.
         21   -1    0    0  501  502 -0.00000000000E+00 -0.00000000000E+00 -0.11571316464E+03  0.11571316464E+03  0.00000000000E+00 0. -1.
      99926    2    1    2    0    0  0.00000000000E+00 -0.35527136788E-14  0.32443868635E+03  0.55586501563E+03  0.45135956221E+03 0.  0.
      99925    2    3    3    0    0  0.73020714036E+02  0.18198158150E+02  0.30312121642E+03  0.40833488223E+03  0.26304316482E+03 0.  0.
         25    1    3    3    0    0 -0.73020714036E+02 -0.18198158150E+02  0.21317469930E+02  0.14753013341E+03  0.12509000000E+03 0.  0.
         25    1    4    4    0    0  0.69459274724E+02  0.32479352280E+02  0.17972942870E+03  0.23201222987E+03  0.12509000000E+03 0.  0.
         25    1    4    4    0    0  0.35614393116E+01 -0.14281194130E+02  0.12339178773E+03  0.17632265236E+03  0.12509000000E+03 0.  0.
<mgrwt>
<rscale>  2 0.45135956E+03</rscale>
<asrwt>0</asrwt>
<pdfrwt beam="1">  1       21 0.64728213E-01 0.45135956E+03</pdfrwt>
<pdfrwt beam="2">  1       21 0.17016642E-01 0.45135956E+03</pdfrwt>
<totfact> 0.63283462E+04</totfact>
</mgrwt>
</event>
<event>
 7    0  0.4709932E-002  0.4539721E+03  0.7546771E-02  0.1026544E+00
         21   -1    0    0  502  501  0.00000000000E+00  0.00000000000E+00  0.50186281310E+03  0.50186281310E+03  0.00000000000E+00 0.  1.
         21   -1    0    0  501  502 -0.00000000000E+00 -0.00000000000E+00 -0.10266284101E+03  0.10266284101E+03  0.00000000000E+00 0.  1.
      99926    2    1    2    0    0  0.00000000000E+00  0.00000000000E+00  0.39919997209E+03  0.60452565411E+03  0.45397207928E+03 0.  0.
      99925    2    3    3    0    0 -0.57773749363E+01  0.11086109723E+03  0.27703523974E+03  0.39741387060E+03  0.26242274968E+03 0.  0.
         25    1    4    4    0    0 -0.26868490298E+02  0.88081384480E+02  0.13727071555E+03  0.20729448500E+03  0.12509000000E+03 0.  0.
         25    1    4    4    0    0  0.21091115362E+02  0.22779712747E+02  0.13976452419E+03  0.19011938560E+03  0.12509000000E+03 0.  0.
         25    1    3    3    0    0  0.57773749363E+01 -0.11086109723E+03  0.12216473236E+03  0.20711178352E+03  0.12509000000E+03 0.  0.
<mgrwt>
<rscale>  2 0.45397208E+03</rscale>
<asrwt>0</asrwt>
<pdfrwt beam="1">  1       21 0.73803354E-01 0.45397208E+03</pdfrwt>
<pdfrwt beam="2">  1       21 0.15097477E-01 0.45397208E+03</pdfrwt>
<totfact> 0.58877237E+04</totfact>
</mgrwt>
</event>
<event>
 7    0  0.4709932E-002  0.4777955E+03  0.7546771E-02  0.1019743E+00
         21   -1    0    0  502  501  0.00000000000E+00  0.00000000000E+00  0.14026049849E+03  0.14026049849E+03  0.00000000000E+00 0.  1.
         21   -1    0    0  501  502 -0.00000000000E+00 -0.00000000000E+00 -0.40690105651E+03  0.40690105651E+03  0.00000000000E+00 0.  1.
      99926    2    1    2    0    0  0.00000000000E+00  0.00000000000E+00 -0.26664055803E+03  0.54716155500E+03  0.47779554214E+03 0.  0.
      99925    2    3    3    0    0 -0.55111654387E+02 -0.10666368536E+03 -0.97890021141E+02  0.30521385812E+03  0.26298024018E+03 0.  0.
         25    1    3    3    0    0  0.55111654387E+02  0.10666368536E+03 -0.16875053689E+03  0.24194769688E+03  0.12509000000E+03 0.  0.
         25    1    4    4    0    0 -0.36743899048E+02 -0.26407835004E+02 -0.14505118386E+02  0.13381104000E+03  0.12509000000E+03 0.  0.
         25    1    4    4    0    0 -0.18367755339E+02 -0.80255850357E+02 -0.83384902755E+02  0.17140281812E+03  0.12509000000E+03 0.  0.
<mgrwt>
<rscale>  2 0.47779554E+03</rscale>
<asrwt>0</asrwt>
<pdfrwt beam="1">  1       21 0.20626544E-01 0.47779554E+03</pdfrwt>
<pdfrwt beam="2">  1       21 0.59838389E-01 0.47779554E+03</pdfrwt>
<totfact> 0.52008962E+04</totfact>
</mgrwt>
</event>
<event>
 7    0  0.4709932E-002  0.4496142E+03  0.7546771E-02  0.1027837E+00
         21   -1    0    0  502  501  0.00000000000E+00  0.00000000000E+00  0.17404099354E+03  0.17404099354E+03  0.00000000000E+00 0.  1.
         21   -1    0    0  501  502 -0.00000000000E+00 -0.00000000000E+00 -0.29038122830E+03  0.29038122830E+03  0.00000000000E+00 0.  1.
      99926    2    1    2    0    0 -0.71054273576E-14  0.14210854715E-13 -0.11634023476E+03  0.46442222184E+03  0.44961422343E+03 0.  0.
      99925    2    3    3    0    0 -0.63374996076E+02  0.70612521717E+02 -0.12690693052E+03  0.30706377272E+03  0.26302143097E+03 0.  0.
         25    1    3    3    0    0  0.63374996076E+02 -0.70612521717E+02  0.10566695760E+02  0.15735844912E+03  0.12509000000E+03 0.  0.
         25    1    4    4    0    0 -0.52362091824E+02  0.24697106837E+01 -0.48149266789E+02  0.14392271580E+03  0.12509000000E+03 0.  0.
         25    1    4    4    0    0 -0.11012904252E+02  0.68142811033E+02 -0.78757663729E+02  0.16314105692E+03  0.12509000000E+03 0.  0.
<mgrwt>
<rscale>  2 0.44961422E+03</rscale>
<asrwt>0</asrwt>
<pdfrwt beam="1">  1       21 0.25594264E-01 0.44961422E+03</pdfrwt>
<pdfrwt beam="2">  1       21 0.42703122E-01 0.44961422E+03</pdfrwt>
<totfact> 0.70830959E+04</totfact>
</mgrwt>
</event>
<event>
 7    0  0.4709932E-002  0.4414136E+03  0.7546771E-02  0.1030314E+00
         21   -1    0    0  502  501  0.00000000000E+00  0.00000000000E+00  0.10710435346E+03  0.10710435346E+03  0.00000000000E+00 0. -1.
         21   -1    0    0  501  502 -0.00000000000E+00 -0.00000000000E+00 -0.45480409674E+03  0.45480409674E+03  0.00000000000E+00 0. -1.
      99926    2    1    2    0    0  0.00000000000E+00 -0.35527136788E-14 -0.34769974329E+03  0.56190845020E+03  0.44141363246E+03 0.  0.
      99925    2    3    3    0    0  0.18073907241E+01 -0.24180666894E+02 -0.34483039340E+03  0.43445762603E+03  0.26316811602E+03 0.  0.
         25    1    3    3    0    0 -0.18073907241E+01  0.24180666894E+02 -0.28693498864E+01  0.12745082417E+03  0.12509000000E+03 0.  0.
         25    1    4    4    0    0  0.98990692131E-01 -0.46450599740E+02 -0.13991939095E+03  0.19334583543E+03  0.12509000000E+03 0.  0.
         25    1    4    4    0    0  0.17084000319E+01  0.22269932846E+02 -0.20491100245E+03  0.24111179060E+03  0.12509000000E+03 0.  0.
<mgrwt>
<rscale>  2 0.44141363E+03</rscale>
<asrwt>0</asrwt>
<pdfrwt beam="1">  1       21 0.15750640E-01 0.44141363E+03</pdfrwt>
<pdfrwt beam="2">  1       21 0.66882956E-01 0.44141363E+03</pdfrwt>
<totfact> 0.68116241E+04</totfact>
</mgrwt>
</event>
<event>
 7    0  0.4709932E-002  0.4523507E+03  0.7546771E-02  0.1027023E+00
         21   -1    0    0  502  501  0.00000000000E+00  0.00000000000E+00  0.11279813941E+03  0.11279813941E+03  0.00000000000E+00 0. -1.
         21   -1    0    0  501  502 -0.00000000000E+00 -0.00000000000E+00 -0.45351187155E+03  0.45351187155E+03  0.00000000000E+00 0. -1.
      99926    2    1    2    0    0  0.14210854715E-13  0.00000000000E+00 -0.34071373214E+03  0.56631001096E+03  0.45235072814E+03 0.  0.
      99925    2    3    3    0    0 -0.82025461056E+02  0.42926898106E+02 -0.13912460129E+03  0.31164045915E+03  0.26304605348E+03 0.  0.
         25    1    4    4    0    0 -0.79228051861E+02  0.26087894122E+02 -0.55789920439E+02  0.16036734625E+03  0.12509000000E+03 0.  0.
         25    1    4    4    0    0 -0.27974091951E+01  0.16839003984E+02 -0.83334680849E+02  0.15127311290E+03  0.12509000000E+03 0.  0.
         25    1    3    3    0    0  0.82025461056E+02 -0.42926898106E+02 -0.20158913085E+03  0.25466955181E+03  0.12509000000E+03 0.  0.
<mgrwt>
<rscale>  2 0.45235073E+03</rscale>
<asrwt>0</asrwt>
<pdfrwt beam="1">  1       21 0.16587962E-01 0.45235073E+03</pdfrwt>
<pdfrwt beam="2">  1       21 0.66692923E-01 0.45235073E+03</pdfrwt>
<totfact> 0.62092183E+04</totfact>
</mgrwt>
</event>
<event>
 7    0  0.4709932E-002  0.4576660E+03  0.7546771E-02  0.1025460E+00
         21   -1    0    0  502  501  0.00000000000E+00  0.00000000000E+00  0.88615760651E+02  0.88615760651E+02  0.00000000000E+00 0.  1.
         21   -1    0    0  501  502 -0.00000000000E+00 -0.00000000000E+00 -0.59091673741E+03  0.59091673741E+03  0.00000000000E+00 0.  1.
      99926    2    1    2    0    0  0.00000000000E+00  0.14210854715E-13 -0.50230097676E+03  0.67953249807E+03  0.45766597500E+03 0.  0.
      99925    2    3    3    0    0 -0.56215420519E+02 -0.84608040275E+02 -0.39706927558E+03  0.48707493646E+03  0.26317159828E+03 0.  0.
         25    1    3    3    0    0  0.56215420519E+02  0.84608040275E+02 -0.10523170119E+03  0.19245756160E+03  0.12509000000E+03 0.  0.
         25    1    4    4    0    0 -0.12225318606E+02 -0.78703861780E+02 -0.23060835601E+03  0.27417417500E+03  0.12509000000E+03 0.  0.
         25    1    4    4    0    0 -0.43990101912E+02 -0.59041784956E+01 -0.16646091957E+03  0.21290076147E+03  0.12509000000E+03 0.  0.
<mgrwt>
<rscale>  2 0.45766597E+03</rscale>
<asrwt>0</asrwt>
<pdfrwt beam="1">  1       21 0.13031730E-01 0.45766597E+03</pdfrwt>
<pdfrwt beam="2">  1       21 0.86899517E-01 0.45766597E+03</pdfrwt>
<totfact> 0.52908717E+04</totfact>
</mgrwt>
</event>
<event>
 7    0  0.4709932E-002  0.4493116E+03  0.7546771E-02  0.1027928E+00
         21   -1    0    0  502  501  0.00000000000E+00  0.00000000000E+00  0.68084989149E+02  0.68084989149E+02  0.00000000000E+00 0.  1.
         21   -1    0    0  501  502 -0.00000000000E+00 -0.00000000000E+00 -0.74128272398E+03  0.74128272398E+03  0.00000000000E+00 0.  1.
      99926    2    1    2    0    0  0.00000000000E+00 -0.16653345369E-14 -0.67319773483E+03  0.80936771313E+03  0.44931158996E+03 0.  0.
      99925    2    3    3    0    0 -0.23832418338E+02 -0.59091827810E+00 -0.61518299167E+03  0.66943361481E+03  0.26291237712E+03 0.  0.
         25    1    3    3    0    0  0.23832418338E+02  0.59091827810E+00 -0.58014743154E+02  0.13993409832E+03  0.12509000000E+03 0.  0.
         25    1    4    4    0    0 -0.39012289999E+02 -0.30340370248E+02 -0.30932490982E+03  0.33730091131E+03  0.12509000000E+03 0.  0.
         25    1    4    4    0    0  0.15179871660E+02  0.29749451970E+02 -0.30585808186E+03  0.33213270350E+03  0.12509000000E+03 0.  0.
<mgrwt>
<rscale>  2 0.44931159E+03</rscale>
<asrwt>0</asrwt>
<pdfrwt beam="1">  1       21 0.10012498E-01 0.44931159E+03</pdfrwt>
<pdfrwt beam="2">  1       21 0.10901217E+00 0.44931159E+03</pdfrwt>
<totfact> 0.49487380E+04</totfact>
</mgrwt>
</event>
<event>
 6    0  0.4709932E-002  0.4577843E+03  0.7546771E-02  0.1025426E+00
         21   -1    0    0  502  501  0.00000000000E+00  0.00000000000E+00  0.87548776620E+03  0.87548776620E+03  0.00000000000E+00 0. -1.
         21   -1    0    0  501  502 -0.00000000000E+00 -0.00000000000E+00 -0.59842762019E+02  0.59842762019E+02  0.00000000000E+00 0. -1.
      99926    2    1    2    0    0 -0.88817841970E-15  0.00000000000E+00  0.81564500419E+03  0.93533052822E+03  0.45778425505E+03 0.  0.
         25    1    3    3    0    0 -0.63152981358E+01  0.24771521062E+02  0.52747139505E+03  0.54270350279E+03  0.12509000000E+03 0.  0.
         25    1    3    3    0    0 -0.33233771332E+02 -0.60308314228E+01  0.17871712099E+03  0.22074458525E+03  0.12509000000E+03 0.  0.
         25    1    3    3    0    0  0.39549069468E+02 -0.18740689639E+02  0.10945648815E+03  0.17188244018E+03  0.12509000000E+03 0.  0.
<mgrwt>
<rscale>  2 0.45778426E+03</rscale>
<asrwt>0</asrwt>
<pdfrwt beam="1">  1       21 0.12874819E+00 0.45778426E+03</pdfrwt>
<pdfrwt beam="2">  1       21 0.88004067E-02 0.45778426E+03</pdfrwt>
<totfact> 0.40843906E+04</totfact>
</mgrwt>
</event>
<event>
 7    0  0.4709932E-002  0.4499755E+03  0.7546771E-02  0.1027729E+00
         21   -1    0    0  502  501  0.00000000000E+00  0.00000000000E+00  0.17717415895E+03  0.17717415895E+03  0.00000000000E+00 0. -1.
         21   -1    0    0  501  502 -0.00000000000E+00 -0.00000000000E+00 -0.28570474731E+03  0.28570474731E+03  0.00000000000E+00 0. -1.
      99926    2    1    2    0    0  0.17763568394E-14  0.00000000000E+00 -0.10853058836E+03  0.46287890625E+03  0.44997554738E+03 0.  0.
      99925    2    3    3    0    0 -0.97840845635E+01 -0.10779300699E+03 -0.62967271092E+02  0.29130214603E+03  0.26301521323E+03 0.  0.
         25    1    4    4    0    0 -0.23160466261E+02 -0.17273896783E+02 -0.16115327675E+02  0.12939090615E+03  0.12509000000E+03 0.  0.
         25    1    3    3    0    0  0.97840845635E+01  0.10779300699E+03 -0.45563317270E+02  0.17157676022E+03  0.12509000000E+03 0.  0.
         25    1    4    4    0    0  0.13376381697E+02 -0.90519110205E+02 -0.46851943417E+02  0.16191123989E+03  0.12509000000E+03 0.  0.
<mgrwt>
<rscale>  2 0.44997555E+03</rscale>
<asrwt>0</asrwt>
<pdfrwt beam="1">  1       21 0.26055024E-01 0.44997555E+03</pdfrwt>
<pdfrwt beam="2">  1       21 0.42015404E-01 0.44997555E+03</pdfrwt>
<totfact> 0.70747061E+04</totfact>
</mgrwt>
</event>
<event>
 7    0  0.4709932E-002  0.4537749E+03  0.7546771E-02  0.1026602E+00
         21   -1    0    0  502  501  0.00000000000E+00  0.00000000000E+00  0.26269345435E+03  0.26269345435E+03  0.00000000000E+00 0. -1.
         21   -1    0    0  501  502 -0.00000000000E+00 -0.00000000000E+00 -0.19596193397E+03  0.19596193397E+03  0.00000000000E+00 0. -1.
      99926    2    1    2    0    0  0.00000000000E+00  0.71054273576E-14  0.66731520375E+02  0.45865538832E+03  0.45377491052E+03 0.  0.
      99925    2    3    3    0    0  0.90172136601E+02 -0.48749736992E+02 -0.42815668963E+01  0.28202606533E+03  0.26270290945E+03 0.  0.
         25    1    4    4    0    0  0.21150385689E+02 -0.55365905587E+02 -0.10916476084E+02  0.13885027860E+03  0.12509000000E+03 0.  0.
         25    1    3    3    0    0 -0.90172136601E+02  0.48749736992E+02  0.71013087271E+02  0.17662932299E+03  0.12509000000E+03 0.  0.
         25    1    4    4    0    0  0.69021750912E+02  0.66161685952E+01  0.66349091872E+01  0.14317578673E+03  0.12509000000E+03 0.  0.
<mgrwt>
<rscale>  2 0.45377491E+03</rscale>
<asrwt>0</asrwt>
<pdfrwt beam="1">  1       21 0.38631390E-01 0.45377491E+03</pdfrwt>
<pdfrwt beam="2">  1       21 0.28817931E-01 0.45377491E+03</pdfrwt>
<totfact> 0.68949837E+04</totfact>
</mgrwt>
</event>
<event>
 7    0  0.4709932E-002  0.4514532E+03  0.7546771E-02  0.1027290E+00
         21   -1    0    0  502  501  0.00000000000E+00  0.00000000000E+00  0.81165157583E+03  0.81165157583E+03  0.00000000000E+00 0.  1.
         21   -1    0    0  501  502 -0.00000000000E+00 -0.00000000000E+00 -0.62776326805E+02  0.62776326805E+02  0.00000000000E+00 0.  1.
      99926    2    1    2    0    0  0.00000000000E+00  0.00000000000E+00  0.74887524902E+03  0.87442790263E+03  0.45145322936E+03 0.  0.
      99925    2    3    3    0    0 -0.99263523091E+02  0.46800632266E+02  0.47551269157E+03  0.55439955684E+03  0.26306463574E+03 0.  0.
         25    1    4    4    0    0 -0.40130025801E+02  0.28761392627E+01  0.29360629977E+03  0.32166886469E+03  0.12509000000E+03 0.  0.
         25    1    3    3    0    0  0.99263523091E+02 -0.46800632266E+02  0.27336255745E+03  0.32002834580E+03  0.12509000000E+03 0.  0.
         25    1    4    4    0    0 -0.59133497290E+02  0.43924493004E+02  0.18190639181E+03  0.23273069215E+03  0.12509000000E+03 0.  0.
<mgrwt>
<rscale>  2 0.45145323E+03</rscale>
<asrwt>0</asrwt>
<pdfrwt beam="1">  1       21 0.11936052E+00 0.45145323E+03</pdfrwt>
<pdfrwt beam="2">  1       21 0.92318132E-02 0.45145323E+03</pdfrwt>
<totfact> 0.45611819E+04</totfact>
</mgrwt>
</event>
<event>
 7    0  0.4709932E-002  0.4572365E+03  0.7546771E-02  0.1025586E+00
         21   -1    0    0  502  501  0.00000000000E+00  0.00000000000E+00  0.12000539151E+03  0.12000539151E+03  0.00000000000E+00 0. -1.
         21   -1    0    0  501  502 -0.00000000000E+00 -0.00000000000E+00 -0.43553294988E+03  0.43553294988E+03  0.00000000000E+00 0. -1.
      99926    2    1    2    0    0 -0.35527136788E-14  0.88817841970E-15 -0.31552755837E+03  0.55553834139E+03  0.45723649096E+03 0.  0.
      99925    2    3    3    0    0 -0.15950014295E+02 -0.73503600564E+01 -0.59987502785E+02  0.27048280495E+03  0.26316157875E+03 0.  0.
         25    1    3    3    0    0  0.15950014295E+02  0.73503600564E+01 -0.25554005559E+03  0.28505553645E+03  0.12509000000E+03 0.  0.
         25    1    4    4    0    0  0.68794132696E+01 -0.35410812570E+02 -0.51458244007E+02  0.13998825290E+03  0.12509000000E+03 0.  0.
         25    1    4    4    0    0 -0.22829427564E+02  0.28060452513E+02 -0.85292587781E+01  0.13049455205E+03  0.12509000000E+03 0.  0.
<mgrwt>
<rscale>  2 0.45723649E+03</rscale>
<asrwt>0</asrwt>
<pdfrwt beam="1">  1       21 0.17647851E-01 0.45723649E+03</pdfrwt>
<pdfrwt beam="2">  1       21 0.64048964E-01 0.45723649E+03</pdfrwt>
<totfact> 0.60425810E+04</totfact>
</mgrwt>
</event>
<event>
 7    0  0.4709932E-002  0.4455874E+03  0.7546771E-02  0.1029046E+00
         21   -1    0    0  502  501  0.00000000000E+00  0.00000000000E+00  0.29375176063E+03  0.29375176063E+03  0.00000000000E+00 0.  1.
         21   -1    0    0  501  502 -0.00000000000E+00 -0.00000000000E+00 -0.16897612460E+03  0.16897612460E+03  0.00000000000E+00 0.  1.
      99926    2    1    2    0    0  0.00000000000E+00  0.00000000000E+00  0.12477563603E+03  0.46272788523E+03  0.44558740604E+03 0.  0.
      99925    2    3    3    0    0 -0.17143079318E+02 -0.37957901948E+02 -0.19362986942E+02  0.26738680347E+03  0.26341239515E+03 0.  0.
         25    1    4    4    0    0 -0.34443869366E+02  0.83230040210E+01 -0.26570193535E+02  0.13269941905E+03  0.12509000000E+03 0.  0.
         25    1    4    4    0    0  0.17300790048E+02 -0.46280905969E+02  0.72072065928E+01  0.13468738441E+03  0.12509000000E+03 0.  0.
         25    1    3    3    0    0  0.17143079318E+02  0.37957901948E+02  0.14413862298E+03  0.19534108176E+03  0.12509000000E+03 0.  0.
<mgrwt>
<rscale>  2 0.44558741E+03</rscale>
<asrwt>0</asrwt>
<pdfrwt beam="1">  1       21 0.43198788E-01 0.44558741E+03</pdfrwt>
<pdfrwt beam="2">  1       21 0.24849430E-01 0.44558741E+03</pdfrwt>
<totfact> 0.73302949E+04</totfact>
</mgrwt>
</event>
<event>
 7    0  0.4709932E-002  0.4421884E+03  0.7546771E-02  0.1030077E+00
         21   -1    0    0  502  501  0.00000000000E+00  0.00000000000E+00  0.14307722520E+03  0.14307722520E+03  0.00000000000E+00 0.  1.
         21   -1    0    0  501  502 -0.00000000000E+00 -0.00000000000E+00 -0.34165215968E+03  0.34165215968E+03  0.00000000000E+00 0.  1.
      99926    2    1    2    0    0  0.00000000000E+00  0.00000000000E+00 -0.19857493448E+03  0.48472938487E+03  0.44218838967E+03 0.  0.
      99925    2    3    3    0    0  0.97375293976E+02 -0.66042529859E+01 -0.99597756780E+02  0.29772790402E+03  0.26305251879E+03 0.  0.
         25    1    4    4    0    0  0.49652037999E+02 -0.36499915071E+02 -0.75078003221E+02  0.15837229349E+03  0.12509000000E+03 0.  0.
         25    1    4    4    0    0  0.47723255977E+02  0.29895662085E+02 -0.24519753559E+02  0.13935561053E+03  0.12509000000E+03 0.  0.
         25    1    3    3    0    0 -0.97375293976E+02  0.66042529859E+01 -0.98977177700E+02  0.18700148085E+03  0.12509000000E+03 0.  0.
<mgrwt>
<rscale>  2 0.44218839E+03</rscale>
<asrwt>0</asrwt>
<pdfrwt beam="1">  1       21 0.21040769E-01 0.44218839E+03</pdfrwt>
<pdfrwt beam="2">  1       21 0.50242964E-01 0.44218839E+03</pdfrwt>
<totfact> 0.73558933E+04</totfact>
</mgrwt>
</event>
<event>
 7    0  0.4709932E-002  0.4533356E+03  0.7546771E-02  0.1026732E+00
         21   -1    0    0  502  501  0.00000000000E+00  0.00000000000E+00  0.44438912173E+02  0.44438912173E+02  0.00000000000E+00 0. -1.
         21   -1    0    0  501  502 -0.00000000000E+00 -0.00000000000E+00 -0.11561553915E+04  0.11561553915E+04  0.00000000000E+00 0. -1.
      99926    2    1    2    0    0  0.00000000000E+00  0.00000000000E+00 -0.11117164793E+04  0.12005943037E+04  0.45333558387E+03 0.  0.
      99925    2    3    3    0    0 -0.82874512867E+02 -0.14642168813E+01 -0.89847140058E+03  0.93984288848E+03  0.26302750532E+03 0.  0.
         25    1    4    4    0    0 -0.29267142549E+02 -0.61350195004E+01 -0.30612019729E+03  0.33204109292E+03  0.12509000000E+03 0.  0.
         25    1    3    3    0    0  0.82874512867E+02  0.14642168813E+01 -0.21324507873E+03  0.26075141518E+03  0.12509000000E+03 0.  0.
         25    1    4    4    0    0 -0.53607370318E+02  0.46708026192E+01 -0.59235120329E+03  0.60780179557E+03  0.12509000000E+03 0.  0.
<mgrwt>
<rscale>  2 0.45333558E+03</rscale>
<asrwt>0</asrwt>
<pdfrwt beam="1">  1       21 0.65351339E-02 0.45333558E+03</pdfrwt>
<pdfrwt beam="2">  1       21 0.17002286E+00 0.45333558E+03</pdfrwt>
<totfact> 0.32557193E+04</totfact>
</mgrwt>
</event>
<event>
 7    0  0.4709932E-002  0.4570413E+03  0.7546771E-02  0.1025643E+00
         21   -1    0    0  502  501  0.00000000000E+00  0.00000000000E+00  0.66939102639E+02  0.66939102639E+02  0.00000000000E+00 0. -1.
         21   -1    0    0  501  502 -0.00000000000E+00 -0.00000000000E+00 -0.78013715803E+03  0.78013715803E+03  0.00000000000E+00 0. -1.
      99926    2    1    2    0    0  0.00000000000E+00  0.00000000000E+00 -0.71319805540E+03  0.84707626067E+03  0.45704127295E+03 0.  0.
      99925    2    3    3    0    0 -0.80423281249E+02 -0.63291379447E+02 -0.54542455061E+03  0.61411883991E+03  0.26302149389E+03 0.  0.
         25    1    3    3    0    0  0.80423281249E+02  0.63291379447E+02 -0.16777350478E+03  0.23295742076E+03  0.12509000000E+03 0.  0.
         25    1    4    4    0    0 -0.96447055932E+01 -0.24580147028E+02 -0.19246494063E+03  0.23105727741E+03  0.12509000000E+03 0.  0.
         25    1    4    4    0    0 -0.70778575656E+02 -0.38711232419E+02 -0.35295960998E+03  0.38306156250E+03  0.12509000000E+03 0.  0.
<mgrwt>
<rscale>  2 0.45704127E+03</rscale>
<asrwt>0</asrwt>
<pdfrwt beam="1">  1       21 0.98439863E-02 0.45704127E+03</pdfrwt>
<pdfrwt beam="2">  1       21 0.11472605E+00 0.45704127E+03</pdfrwt>
<totfact> 0.44847957E+04</totfact>
</mgrwt>
</event>
<event>
 7    0  0.4709932E-002  0.4601399E+03  0.7546771E-02  0.1024741E+00
         21   -1    0    0  502  501  0.00000000000E+00  0.00000000000E+00  0.74762209395E+02  0.74762209395E+02  0.00000000000E+00 0.  1.
         21   -1    0    0  501  502 -0.00000000000E+00 -0.00000000000E+00 -0.70800714320E+03  0.70800714320E+03  0.00000000000E+00 0.  1.
      99926    2    1    2    0    0  0.00000000000E+00  0.00000000000E+00 -0.63324493381E+03  0.78276935260E+03  0.46013988435E+03 0.  0.
      99925    2    3    3    0    0 -0.11225243812E+03  0.32729012420E+02 -0.42243094859E+03  0.51117803724E+03  0.26302714937E+03 0.  0.
         25    1    3    3    0    0  0.11225243812E+03 -0.32729012420E+02 -0.21081398522E+03  0.27159131536E+03  0.12509000000E+03 0.  0.
         25    1    4    4    0    0 -0.58910335117E+02 -0.22808721533E+01 -0.14581585944E+03  0.20096119756E+03  0.12509000000E+03 0.  0.
         25    1    4    4    0    0 -0.53342103002E+02  0.35009884574E+02 -0.27661508915E+03  0.31021683968E+03  0.12509000000E+03 0.  0.
<mgrwt>
<rscale>  2 0.46013988E+03</rscale>
<asrwt>0</asrwt>
<pdfrwt beam="1">  1       21 0.10994443E-01 0.46013988E+03</pdfrwt>
<pdfrwt beam="2">  1       21 0.10411869E+00 0.46013988E+03</pdfrwt>
<totfact> 0.46696999E+04</totfact>
</mgrwt>
</event>
<event>
 7    0  0.4709932E-002  0.4480223E+03  0.7546771E-02  0.1028313E+00
         21   -1    0    0  502  501  0.00000000000E+00  0.00000000000E+00  0.18355591718E+04  0.18355591718E+04  0.00000000000E+00 0.  1.
         21   -1    0    0  501  502 -0.00000000000E+00 -0.00000000000E+00 -0.27338263520E+02  0.27338263520E+02  0.00000000000E+00 0.  1.
      99926    2    1    2    0    0  0.00000000000E+00  0.00000000000E+00  0.18082209082E+04  0.18628974353E+04  0.44802232241E+03 0.  0.
      99925    2    3    3    0    0 -0.10539149755E+03 -0.12113819966E+02  0.11828834957E+04  0.12164080695E+04  0.26302303104E+03 0.  0.
         25    1    4    4    0    0 -0.73365355856E+02 -0.11304899173E+02  0.47244075424E+03  0.49432585462E+03  0.12509000000E+03 0.  0.
         25    1    4    4    0    0 -0.32026141695E+02 -0.80892079290E+00  0.71044274145E+03  0.72208221491E+03  0.12509000000E+03 0.  0.
         25    1    3    3    0    0  0.10539149755E+03  0.12113819966E+02  0.62533741255E+03  0.64648936575E+03  0.12509000000E+03 0.  0.
<mgrwt>
<rscale>  2 0.44802232E+03</rscale>
<asrwt>0</asrwt>
<pdfrwt beam="1">  1       21 0.26993509E+00 0.44802232E+03</pdfrwt>
<pdfrwt beam="2">  1       21 0.40203341E-02 0.44802232E+03</pdfrwt>
<totfact> 0.16981269E+04</totfact>
</mgrwt>
</event>
<event>
 7    0  0.4709932E-002  0.4182068E+03  0.7546771E-02  0.1037651E+00
         21   -1    0    0  502  501  0.00000000000E+00  0.00000000000E+00  0.64785480603E+03  0.64785480603E+03  0.00000000000E+00 0. -1.
         21   -1    0    0  501  502 -0.00000000000E+00 -0.00000000000E+00 -0.67490800555E+02  0.67490800555E+02  0.00000000000E+00 0. -1.
      99926    2    1    2    0    0  0.00000000000E+00  0.00000000000E+00  0.58036400547E+03  0.71534560658E+03  0.41820683640E+03 0.  0.
      99925    2    3    3    0    0 -0.12995493746E+02 -0.62093098071E+02  0.44152758543E+03  0.51799440868E+03  0.26333849516E+03 0.  0.
         25    1    4    4    0    0 -0.25979594990E+02 -0.21620060448E+02  0.28562486084E+03  0.31364220953E+03  0.12509000000E+03 0.  0.
         25    1    3    3    0    0  0.12995493746E+02  0.62093098071E+02  0.13883642004E+03  0.19735119791E+03  0.12509000000E+03 0.  0.
         25    1    4    4    0    0  0.12984101244E+02 -0.40473037623E+02  0.15590272459E+03  0.20435219915E+03  0.12509000000E+03 0.  0.
<mgrwt>
<rscale>  2 0.41820684E+03</rscale>
<asrwt>0</asrwt>
<pdfrwt beam="1">  1       21 0.95272762E-01 0.41820684E+03</pdfrwt>
<pdfrwt beam="2">  1       21 0.99251181E-02 0.41820684E+03</pdfrwt>
<totfact> 0.70328132E+04</totfact>
</mgrwt>
</event>
<event>
 7    0  0.4709932E-002  0.4470078E+03  0.7546771E-02  0.1028618E+00
         21   -1    0    0  502  501  0.00000000000E+00  0.00000000000E+00  0.80927235807E+02  0.80927235807E+02  0.00000000000E+00 0.  1.
         21   -1    0    0  501  502 -0.00000000000E+00 -0.00000000000E+00 -0.61727039374E+03  0.61727039374E+03  0.00000000000E+00 0.  1.
      99926    2    1    2    0    0  0.00000000000E+00 -0.17763568394E-14 -0.53634315793E+03  0.69819762955E+03  0.44700777045E+03 0.  0.
      99925    2    3    3    0    0 -0.34257930422E+02 -0.12589217948E+02 -0.49460376744E+03  0.56137007741E+03  0.26300453007E+03 0.  0.
         25    1    4    4    0    0 -0.31298194951E+02 -0.43652660174E+02 -0.23737256740E+03  0.27363913390E+03  0.12509000000E+03 0.  0.
         25    1    3    3    0    0  0.34257930422E+02  0.12589217948E+02 -0.41739390487E+02  0.13682755214E+03  0.12509000000E+03 0.  0.
         25    1    4    4    0    0 -0.29597354714E+01  0.31063442226E+02 -0.25723120005E+03  0.28773094351E+03  0.12509000000E+03 0.  0.
<mgrwt>
<rscale>  2 0.44700777E+03</rscale>
<asrwt>0</asrwt>
<pdfrwt beam="1">  1       21 0.11901064E-01 0.44700777E+03</pdfrwt>
<pdfrwt beam="2">  1       21 0.90775060E-01 0.44700777E+03</pdfrwt>
<totfact> 0.56469896E+04</totfact>
</mgrwt>
</event>
<event>
 7    0  0.4709932E-002  0.4558330E+03  0.7546771E-02  0.1025997E+00
         21   -1    0    0  502  501  0.00000000000E+00  0.00000000000E+00  0.33908146848E+03  0.33908146848E+03  0.00000000000E+00 0. -1.
         21   -1    0    0  501  502 -0.00000000000E+00 -0.00000000000E+00 -0.15319602016E+03  0.15319602016E+03  0.00000000000E+00 0. -1.
      99926    2    1    2    0    0  0.00000000000E+00  0.00000000000E+00  0.18588544831E+03  0.49227748864E+03  0.45583300224E+03 0.  0.
      99925    2    3    3    0    0  0.27343054331E+02 -0.11050065560E+03  0.11850152104E+03  0.31021667665E+03  0.26312304816E+03 0.  0.
         25    1    3    3    0    0 -0.27343054331E+02  0.11050065560E+03  0.67383927276E+02  0.18206081199E+03  0.12509000000E+03 0.  0.
         25    1    4    4    0    0  0.51816466025E+02 -0.68516235264E+02  0.74034164533E+02  0.16884308178E+03  0.12509000000E+03 0.  0.
         25    1    4    4    0    0 -0.24473411695E+02 -0.41984420340E+02  0.44467356506E+02  0.14137359487E+03  0.12509000000E+03 0.  0.
<mgrwt>
<rscale>  2 0.45583300E+03</rscale>
<asrwt>0</asrwt>
<pdfrwt beam="1">  1       21 0.49864922E-01 0.45583300E+03</pdfrwt>
<pdfrwt beam="2">  1       21 0.22528826E-01 0.45583300E+03</pdfrwt>
<totfact> 0.65383218E+04</totfact>
</mgrwt>
</event>
<event>
 7    0  0.4709932E-002  0.4563159E+03  0.7546771E-02  0.1025855E+00
         21   -1    0    0  502  501  0.00000000000E+00  0.00000000000E+00  0.13994019257E+03  0.13994019257E+03  0.00000000000E+00 0.  1.
         21   -1    0    0  501  502 -0.00000000000E+00 -0.00000000000E+00 -0.37198779802E+03  0.37198779802E+03  0.00000000000E+00 0.  1.
      99926    2    1    2    0    0  0.00000000000E+00  0.00000000000E+00 -0.23204760546E+03  0.51192799059E+03  0.45631587343E+03 0.  0.
      99925    2    3    3    0    0 -0.65008034224E+02  0.87448052209E+02 -0.10669324033E+03  0.30399908133E+03  0.26298058401E+03 0.  0.
         25    1    4    4    0    0 -0.31582721966E+01  0.66588689701E+02 -0.70631855229E+02  0.15836791137E+03  0.12509000000E+03 0.  0.
         25    1    3    3    0    0  0.65008034224E+02 -0.87448052209E+02 -0.12535436513E+03  0.20792890926E+03  0.12509000000E+03 0.  0.
         25    1    4    4    0    0 -0.61849762028E+02  0.20859362507E+02 -0.36061385097E+02  0.14563116995E+03  0.12509000000E+03 0.  0.
<mgrwt>
<rscale>  2 0.45631587E+03</rscale>
<asrwt>0</asrwt>
<pdfrwt beam="1">  1       21 0.20579440E-01 0.45631587E+03</pdfrwt>
<pdfrwt beam="2">  1       21 0.54704087E-01 0.45631587E+03</pdfrwt>
<totfact> 0.63771982E+04</totfact>
</mgrwt>
</event>
<event>
 7    0  0.4709932E-002  0.4520184E+03  0.7546771E-02  0.1027122E+00
         21   -1    0    0  502  501  0.00000000000E+00  0.00000000000E+00  0.16869875503E+03  0.16869875503E+03  0.00000000000E+00 0.  1.
         21   -1    0    0  501  502 -0.00000000000E+00 -0.00000000000E+00 -0.30278919729E+03  0.30278919729E+03  0.00000000000E+00 0.  1.
      99926    2    1    2    0    0  0.00000000000E+00  0.00000000000E+00 -0.13409044226E+03  0.47148795232E+03  0.45201840945E+03 0.  0.
      99925    2    3    3    0    0 -0.51504774253E+02  0.38445715063E+02  0.89940685295E+01  0.27086018728E+03  0.26297059343E+03 0.  0.
         25    1    3    3    0    0  0.51504774253E+02 -0.38445715063E+02 -0.14308451079E+03  0.20062776504E+03  0.12509000000E+03 0.  0.
         25    1    4    4    0    0 -0.53752669944E+02 -0.77661034099E+01  0.15984893079E+02  0.13730508656E+03  0.12509000000E+03 0.  0.
         25    1    4    4    0    0  0.22478956910E+01  0.46211818472E+02 -0.69908245496E+01  0.13355510072E+03  0.12509000000E+03 0.  0.
<mgrwt>
<rscale>  2 0.45201841E+03</rscale>
<asrwt>0</asrwt>
<pdfrwt beam="1">  1       21 0.24808641E-01 0.45201841E+03</pdfrwt>
<pdfrwt beam="2">  1       21 0.44527823E-01 0.45201841E+03</pdfrwt>
<totfact> 0.68941888E+04</totfact>
</mgrwt>
</event>
<event>
 7    0  0.4709932E-002  0.4542276E+03  0.7546771E-02  0.1026469E+00
         21   -1    0    0  502  501  0.00000000000E+00  0.00000000000E+00  0.14356765238E+04  0.14356765238E+04  0.00000000000E+00 0.  1.
         21   -1    0    0  501  502 -0.00000000000E+00 -0.00000000000E+00 -0.35927791851E+02  0.35927791851E+02  0.00000000000E+00 0.  1.
      99926    2    1    2    0    0  0.35527136788E-14 -0.14210854715E-13  0.13997487320E+04  0.14716043157E+04  0.45422764035E+03 0.  0.
      99925    2    3    3    0    0  0.21552289880E+02 -0.10010986502E+03  0.10351525211E+04  0.10727755412E+04  0.26233591741E+03 0.  0.
         25    1    4    4    0    0  0.38319775143E+02 -0.74353151192E+02  0.48851247979E+03  0.51116410992E+03  0.12509000000E+03 0.  0.
         25    1    4    4    0    0 -0.16767485262E+02 -0.25756713830E+02  0.54664004136E+03  0.56161143132E+03  0.12509000000E+03 0.  0.
         25    1    3    3    0    0 -0.21552289880E+02  0.10010986502E+03  0.36459621084E+03  0.39882877445E+03  0.12509000000E+03 0.  0.
<mgrwt>
<rscale>  2 0.45422764E+03</rscale>
<asrwt>0</asrwt>
<pdfrwt beam="1">  1       21 0.21112886E+00 0.45422764E+03</pdfrwt>
<pdfrwt beam="2">  1       21 0.52834997E-02 0.45422764E+03</pdfrwt>
<totfact> 0.24631157E+04</totfact>
</mgrwt>
</event>
<event>
 7    0  0.4709932E-002  0.4522419E+03  0.7546771E-02  0.1027056E+00
         21   -1    0    0  502  501  0.00000000000E+00  0.00000000000E+00  0.16383239414E+04  0.16383239414E+04  0.00000000000E+00 0. -1.
         21   -1    0    0  501  502 -0.00000000000E+00 -0.00000000000E+00 -0.31209147985E+02  0.31209147985E+02  0.00000000000E+00 0. -1.
      99926    2    1    2    0    0  0.14210854715E-13  0.00000000000E+00  0.16071147934E+04  0.16695330894E+04  0.45224194558E+03 0.  0.
      99925    2    3    3    0    0 -0.61531264723E+02 -0.99541558439E+01  0.67675975953E+03  0.72873918054E+03  0.26300539799E+03 0.  0.
         25    1    4    4    0    0 -0.34051657027E+02  0.46599034501E+01  0.44523463593E+03  0.46374844385E+03  0.12509000000E+03 0.  0.
         25    1    4    4    0    0 -0.27479607696E+02 -0.14614059294E+02  0.23152512361E+03  0.26499073668E+03  0.12509000000E+03 0.  0.
         25    1    3    3    0    0  0.61531264723E+02  0.99541558439E+01  0.93035503391E+03  0.94079390887E+03  0.12509000000E+03 0.  0.
<mgrwt>
<rscale>  2 0.45224195E+03</rscale>
<asrwt>0</asrwt>
<pdfrwt beam="1">  1       21 0.24092993E+00 0.45224195E+03</pdfrwt>
<pdfrwt beam="2">  1       21 0.45895817E-02 0.45224195E+03</pdfrwt>
<totfact> 0.20335188E+04</totfact>
</mgrwt>
</event>
<event>
 7    0  0.4709932E-002  0.4503052E+03  0.7546771E-02  0.1027631E+00
         21   -1    0    0  502  501  0.00000000000E+00  0.00000000000E+00  0.71689979157E+03  0.71689979157E+03  0.00000000000E+00 0. -1.
         21   -1    0    0  501  502 -0.00000000000E+00 -0.00000000000E+00 -0.70712373949E+02  0.70712373949E+02  0.00000000000E+00 0. -1.
      99926    2    1    2    0    0  0.00000000000E+00  0.00000000000E+00  0.64618741762E+03  0.78761216552E+03  0.45030516828E+03 0.  0.
      99925    2    3    3    0    0  0.58226536060E+02  0.74471348787E+02  0.31587415567E+03  0.42197481730E+03  0.26334379226E+03 0.  0.
         25    1    3    3    0    0 -0.58226536060E+02 -0.74471348787E+02  0.33031326195E+03  0.36563734822E+03  0.12509000000E+03 0.  0.
         25    1    4    4    0    0  0.14320306339E+02 -0.32447788097E+01  0.14974502022E+03  0.19566982124E+03  0.12509000000E+03 0.  0.
         25    1    4    4    0    0  0.43906229722E+02  0.77716127597E+02  0.16612913546E+03  0.22630499607E+03  0.12509000000E+03 0.  0.
<mgrwt>
<rscale>  2 0.45030517E+03</rscale>
<asrwt>0</asrwt>
<pdfrwt beam="1">  1       21 0.10542644E+00 0.45030517E+03</pdfrwt>
<pdfrwt beam="2">  1       21 0.10398879E-01 0.45030517E+03</pdfrwt>
<totfact> 0.50194016E+04</totfact>
</mgrwt>
</event>
<event>
 7    0  0.4709932E-002  0.4531626E+03  0.7546771E-02  0.1026783E+00
         21   -1    0    0  502  501  0.00000000000E+00  0.00000000000E+00  0.47693029024E+03  0.47693029024E+03  0.00000000000E+00 0.  1.
         21   -1    0    0  501  502 -0.00000000000E+00 -0.00000000000E+00 -0.10764482926E+03  0.10764482926E+03  0.00000000000E+00 0.  1.
      99926    2    1    2    0    0 -0.35527136788E-14  0.00000000000E+00  0.36928546098E+03  0.58457511950E+03  0.45316257420E+03 0.  0.
      99925    2    3    3    0    0 -0.31620741232E+02  0.97898223939E+02  0.28785179267E+03  0.40329389058E+03  0.26306534190E+03 0.  0.
         25    1    3    3    0    0  0.31620741232E+02 -0.97898223939E+02  0.81433668305E+02  0.18128122892E+03  0.12509000000E+03 0.  0.
         25    1    4    4    0    0 -0.40291907530E+02  0.40202486944E+02  0.18826998554E+03  0.23309391525E+03  0.12509000000E+03 0.  0.
         25    1    4    4    0    0  0.86711662985E+01  0.57695736995E+02  0.99581807130E+02  0.17019997533E+03  0.12509000000E+03 0.  0.
<mgrwt>
<rscale>  2 0.45316257E+03</rscale>
<asrwt>0</asrwt>
<pdfrwt beam="1">  1       21 0.70136807E-01 0.45316257E+03</pdfrwt>
<pdfrwt beam="2">  1       21 0.15830122E-01 0.45316257E+03</pdfrwt>
<totfact> 0.60512009E+04</totfact>
</mgrwt>
</event>
<event>
 7    0  0.4709932E-002  0.4600574E+03  0.7546771E-02  0.1024765E+00
         21   -1    0    0  502  501  0.00000000000E+00  0.00000000000E+00  0.46469648258E+02  0.46469648258E+02  0.00000000000E+00 0. -1.
         21   -1    0    0  501  502 -0.00000000000E+00 -0.00000000000E+00 -0.11386616533E+04  0.11386616533E+04  0.00000000000E+00 0. -1.
      99926    2    1    2    0    0 -0.14210854715E-13 -0.71054273576E-14 -0.10921920050E+04  0.11851313015E+04  0.46005741604E+03 0.  0.
      99925    2    3    3    0    0  0.10165319263E+03  0.50594428161E+02 -0.76529767339E+03  0.81716312372E+03  0.26302447441E+03 0.  0.
         25    1    3    3    0    0 -0.10165319263E+03 -0.50594428161E+02 -0.32689433163E+03  0.36796817782E+03  0.12509000000E+03 0.  0.
         25    1    4    4    0    0  0.80611315175E+01  0.27468282175E+02 -0.32671945678E+03  0.35101652369E+03  0.12509000000E+03 0.  0.
         25    1    4    4    0    0  0.93592061116E+02  0.23126145987E+02 -0.43857821661E+03  0.46614660003E+03  0.12509000000E+03 0.  0.
<mgrwt>
<rscale>  2 0.46005742E+03</rscale>
<asrwt>0</asrwt>
<pdfrwt beam="1">  1       21 0.68337725E-02 0.46005742E+03</pdfrwt>
<pdfrwt beam="2">  1       21 0.16745023E+00 0.46005742E+03</pdfrwt>
<totfact> 0.31376136E+04</totfact>
</mgrwt>
</event>
<event>
 7    0  0.4709932E-002  0.4511848E+03  0.7546771E-02  0.1027369E+00
         21   -1    0    0  502  501  0.00000000000E+00  0.00000000000E+00  0.23635707650E+03  0.23635707650E+03  0.00000000000E+00 0.  1.
         21   -1    0    0  501  502 -0.00000000000E+00 -0.00000000000E+00 -0.21531801712E+03  0.21531801712E+03  0.00000000000E+00 0.  1.
      99926    2    1    2    0    0  0.14210854715E-13  0.35527136788E-14  0.21039059375E+02  0.45167509362E+03  0.45118482707E+03 0.  0.
      99925    2    3    3    0    0 -0.10524562493E+03  0.21442272270E+02 -0.70169513863E+01  0.28442958413E+03  0.26327654303E+03 0.  0.
         25    1    3    3    0    0  0.10524562493E+03 -0.21442272270E+02  0.28056010762E+02  0.16724550950E+03  0.12509000000E+03 0.  0.
         25    1    4    4    0    0 -0.33709863621E+02 -0.23725273188E+02 -0.18408728420E+02  0.13298734103E+03  0.12509000000E+03 0.  0.
         25    1    4    4    0    0 -0.71535761311E+02  0.45167545458E+02  0.11391777034E+02  0.15144224309E+03  0.12509000000E+03 0.  0.
<mgrwt>
<rscale>  2 0.45118483E+03</rscale>
<asrwt>0</asrwt>
<pdfrwt beam="1">  1       21 0.34758394E-01 0.45118483E+03</pdfrwt>
<pdfrwt beam="2">  1       21 0.31664414E-01 0.45118483E+03</pdfrwt>
<totfact> 0.70924623E+04</totfact>
</mgrwt>
</event>
<event>
 7    0  0.4709932E-002  0.4558192E+03  0.7546771E-02  0.1026001E+00
         21   -1    0    0  502  501  0.00000000000E+00  0.00000000000E+00  0.12518053154E+03  0.12518053154E+03  0.00000000000E+00 0.  1.
         21   -1    0    0  501  502 -0.00000000000E+00 -0.00000000000E+00 -0.41494294771E+03  0.41494294771E+03  0.00000000000E+00 0.  1.
      99926    2    1    2    0    0 -0.14210854715E-13  0.00000000000E+00 -0.28976241617E+03  0.54012347924E+03  0.45581916919E+03 0.  0.
      99925    2    3    3    0    0  0.84847604533E+02 -0.73549419925E+02 -0.15950932394E+03  0.32746880777E+03  0.26302844422E+03 0.  0.
         25    1    4    4    0    0  0.23147430085E+00 -0.39478481832E+02 -0.74147485790E+02  0.15067833904E+03  0.12509000000E+03 0.  0.
         25    1    4    4    0    0  0.84616130232E+02 -0.34070938093E+02 -0.85361838154E+02  0.17679046872E+03  0.12509000000E+03 0.  0.
         25    1    3    3    0    0 -0.84847604533E+02  0.73549419925E+02 -0.13025309223E+03  0.21265467148E+03  0.12509000000E+03 0.  0.
<mgrwt>
<rscale>  2 0.45581917E+03</rscale>
<asrwt>0</asrwt>
<pdfrwt beam="1">  1       21 0.18408902E-01 0.45581917E+03</pdfrwt>
<pdfrwt beam="2">  1       21 0.61021020E-01 0.45581917E+03</pdfrwt>
<totfact> 0.62120222E+04</totfact>
</mgrwt>
</event>
<event>
 7    0  0.4709932E-002  0.4627638E+03  0.7546771E-02  0.1023983E+00
         21   -1    0    0  502  501  0.00000000000E+00  0.00000000000E+00  0.14454560393E+03  0.14454560393E+03  0.00000000000E+00 0.  1.
         21   -1    0    0  501  502 -0.00000000000E+00 -0.00000000000E+00 -0.37038548126E+03  0.37038548126E+03  0.00000000000E+00 0.  1.
      99926    2    1    2    0    0 -0.14210854715E-13 -0.35527136788E-14 -0.22583987734E+03  0.51493108519E+03  0.46276384074E+03 0.  0.
      99925    2    3    3    0    0  0.85018207062E+02  0.26953894334E+02 -0.23102470460E+03  0.36121381718E+03  0.26296083289E+03 0.  0.
         25    1    3    3    0    0 -0.85018207062E+02 -0.26953894334E+02  0.51848272610E+01  0.15371726801E+03  0.12509000000E+03 0.  0.
         25    1    4    4    0    0  0.45699154285E+02  0.29748835024E+02 -0.16580898464E+03  0.21474061883E+03  0.12509000000E+03 0.  0.
         25    1    4    4    0    0  0.39319052777E+02 -0.27949406899E+01 -0.65215719955E+02  0.14647319835E+03  0.12509000000E+03 0.  0.
<mgrwt>
<rscale>  2 0.46276384E+03</rscale>
<asrwt>0</asrwt>
<pdfrwt beam="1">  1       21 0.21256707E-01 0.46276384E+03</pdfrwt>
<pdfrwt beam="2">  1       21 0.54468452E-01 0.46276384E+03</pdfrwt>
<totfact> 0.60424173E+04</totfact>
</mgrwt>
</event>
<event>
 7    0  0.4709932E-002  0.4652439E+03  0.7546771E-02  0.1023271E+00
         21   -1    0    0  502  501  0.00000000000E+00  0.00000000000E+00  0.23430411027E+03  0.23430411027E+03  0.00000000000E+00 0.  1.
         21   -1    0    0  501  502 -0.00000000000E+00 -0.00000000000E+00 -0.23095189082E+03  0.23095189082E+03  0.00000000000E+00 0.  1.
      99926    2    1    2    0    0  0.00000000000E+00 -0.17763568394E-14  0.33522194535E+01  0.46525600109E+03  0.46524392438E+03 0.  0.
      99925    2    3    3    0    0 -0.10210362346E+03 -0.86231916016E+01  0.69252020742E+02  0.29064271045E+03  0.26301679301E+03 0.  0.
         25    1    3    3    0    0  0.10210362346E+03  0.86231916016E+01 -0.65899801288E+02  0.17461329064E+03  0.12509000000E+03 0.  0.
         25    1    4    4    0    0 -0.50902620661E+02 -0.42842241619E+02  0.48070633095E+02  0.14961560187E+03  0.12509000000E+03 0.  0.
         25    1    4    4    0    0 -0.51201002798E+02  0.34219050017E+02  0.21181387647E+02  0.14102710858E+03  0.12509000000E+03 0.  0.
<mgrwt>
<rscale>  2 0.46524392E+03</rscale>
<asrwt>0</asrwt>
<pdfrwt beam="1">  1       21 0.34456487E-01 0.46524392E+03</pdfrwt>
<pdfrwt beam="2">  1       21 0.33963513E-01 0.46524392E+03</pdfrwt>
<totfact> 0.62531390E+04</totfact>
</mgrwt>
</event>
<event>
 7    0  0.4709932E-002  0.4448148E+03  0.7546771E-02  0.1029280E+00
         21   -1    0    0  502  501  0.00000000000E+00  0.00000000000E+00  0.37100211467E+03  0.37100211467E+03  0.00000000000E+00 0. -1.
         21   -1    0    0  501  502 -0.00000000000E+00 -0.00000000000E+00 -0.13332822942E+03  0.13332822942E+03  0.00000000000E+00 0. -1.
      99926    2    1    2    0    0  0.00000000000E+00  0.00000000000E+00  0.23767388525E+03  0.50433034408E+03  0.44481481566E+03 0.  0.
      99925    2    3    3    0    0 -0.35951528869E+02  0.58868825262E+02  0.63713856481E+02  0.27923558465E+03  0.26297339259E+03 0.  0.
         25    1    4    4    0    0  0.20744699782E+01 -0.66214912224E+00  0.50694370326E+02  0.13498951496E+03  0.12509000000E+03 0.  0.
         25    1    3    3    0    0  0.35951528869E+02 -0.58868825262E+02  0.17396002877E+03  0.22509475943E+03  0.12509000000E+03 0.  0.
         25    1    4    4    0    0 -0.38025998847E+02  0.59530974384E+02  0.13019486155E+02  0.14424606968E+03  0.12509000000E+03 0.  0.
<mgrwt>
<rscale>  2 0.44481482E+03</rscale>
<asrwt>0</asrwt>
<pdfrwt beam="1">  1       21 0.54559134E-01 0.44481482E+03</pdfrwt>
<pdfrwt beam="2">  1       21 0.19607093E-01 0.44481482E+03</pdfrwt>
<totfact> 0.70495768E+04</totfact>
</mgrwt>
</event>
<event>
 7    0  0.4709932E-002  0.4533474E+03  0.7546771E-02  0.1026728E+00
         21   -1    0    0  502  501  0.00000000000E+00  0.00000000000E+00  0.45640345771E+02  0.45640345771E+02  0.00000000000E+00 0.  1.
         21   -1    0    0  501  502 -0.00000000000E+00 -0.00000000000E+00 -0.11257797400E+04  0.11257797400E+04  0.00000000000E+00 0.  1.
      99926    2    1    2    0    0  0.00000000000E+00  0.00000000000E+00 -0.10801393942E+04  0.11714200857E+04  0.45334744554E+03 0.  0.
      99925    2    3    3    0    0  0.44343336287E+02  0.99952484323E+02 -0.62186778790E+03  0.68396013473E+03  0.26291650706E+03 0.  0.
         25    1    3    3    0    0 -0.44343336287E+02 -0.99952484323E+02 -0.45827160629E+03  0.48745995100E+03  0.12509000000E+03 0.  0.
         25    1    4    4    0    0 -0.98615904577E+01  0.60289833155E+02 -0.25406784022E+03  0.28970690445E+03  0.12509000000E+03 0.  0.
         25    1    4    4    0    0  0.54204926745E+02  0.39662651168E+02 -0.36779994768E+03  0.39425323029E+03  0.12509000000E+03 0.  0.
<mgrwt>
<rscale>  2 0.45334745E+03</rscale>
<asrwt>0</asrwt>
<pdfrwt beam="1">  1       21 0.67118162E-02 0.45334745E+03</pdfrwt>
<pdfrwt beam="2">  1       21 0.16555583E+00 0.45334745E+03</pdfrwt>
<totfact> 0.33504550E+04</totfact>
</mgrwt>
</event>
<event>
 7    0  0.4709932E-002  0.4525071E+03  0.7546771E-02  0.1026977E+00
         21   -1    0    0  502  501  0.00000000000E+00  0.00000000000E+00  0.73991285859E+03  0.73991285859E+03  0.00000000000E+00 0.  1.
         21   -1    0    0  501  502 -0.00000000000E+00 -0.00000000000E+00 -0.69184741061E+02  0.69184741061E+02  0.00000000000E+00 0.  1.
      99926    2    1    2    0    0  0.00000000000E+00  0.00000000000E+00  0.67072811753E+03  0.80909759965E+03  0.45250714703E+03 0.  0.
      99925    2    3    3    0    0 -0.21732910422E+02 -0.40845272586E+02  0.24288232585E+03  0.36094563297E+03  0.26296248793E+03 0.  0.
         25    1    4    4    0    0 -0.43098905110E+02 -0.11373874409E+02  0.91725843122E+02  0.16139398699E+03  0.12509000000E+03 0.  0.
         25    1    3    3    0    0  0.21732910422E+02  0.40845272586E+02  0.42784579168E+03  0.44815196668E+03  0.12509000000E+03 0.  0.
         25    1    4    4    0    0  0.21365994688E+02 -0.29471398178E+02  0.15115648273E+03  0.19955164598E+03  0.12509000000E+03 0.  0.
<mgrwt>
<rscale>  2 0.45250715E+03</rscale>
<asrwt>0</asrwt>
<pdfrwt beam="1">  1       21 0.10881071E+00 0.45250715E+03</pdfrwt>
<pdfrwt beam="2">  1       21 0.10174227E-01 0.45250715E+03</pdfrwt>
<totfact> 0.48265182E+04</totfact>
</mgrwt>
</event>
<event>
 7    0  0.4709932E-002  0.4519625E+03  0.7546771E-02  0.1027138E+00
         21   -1    0    0  502  501  0.00000000000E+00  0.00000000000E+00  0.92307764805E+03  0.92307764805E+03  0.00000000000E+00 0. -1.
         21   -1    0    0  501  502 -0.00000000000E+00 -0.00000000000E+00 -0.55323097237E+02  0.55323097237E+02  0.00000000000E+00 0. -1.
      99926    2    1    2    0    0  0.00000000000E+00  0.44408920985E-15  0.86775455081E+03  0.97840074528E+03  0.45196245189E+03 0.  0.
      99925    2    3    3    0    0  0.67533628735E+02  0.20900979644E+01  0.35901521653E+03  0.45016937755E+03  0.26305015351E+03 0.  0.
         25    1    3    3    0    0 -0.67533628735E+02 -0.20900979644E+01  0.50873933428E+03  0.52823136774E+03  0.12509000000E+03 0.  0.
         25    1    4    4    0    0  0.54700196125E+02  0.25704578671E+02  0.14489883980E+03  0.20073868261E+03  0.12509000000E+03 0.  0.
         25    1    4    4    0    0  0.12833432610E+02 -0.23614480707E+02  0.21411637673E+03  0.24943069494E+03  0.12509000000E+03 0.  0.
<mgrwt>
<rscale>  2 0.45196245E+03</rscale>
<asrwt>0</asrwt>
<pdfrwt beam="1">  1       21 0.13574670E+00 0.45196245E+03</pdfrwt>
<pdfrwt beam="2">  1       21 0.81357502E-02 0.45196245E+03</pdfrwt>
<totfact> 0.40975922E+04</totfact>
</mgrwt>
</event>
<event>
 7    0  0.4709932E-002  0.4480116E+03  0.7546771E-02  0.1028317E+00
         21   -1    0    0  502  501  0.00000000000E+00  0.00000000000E+00  0.12560298442E+03  0.12560298442E+03  0.00000000000E+00 0. -1.
         21   -1    0    0  501  502 -0.00000000000E+00 -0.00000000000E+00 -0.39950165880E+03  0.39950165880E+03  0.00000000000E+00 0. -1.
      99926    2    1    2    0    0  0.35527136788E-14  0.00000000000E+00 -0.27389867438E+03  0.52510464322E+03  0.44801160978E+03 0.  0.
      99925    2    3    3    0    0 -0.28124740105E+02  0.10270957212E+03 -0.17245925277E+03  0.33203024935E+03  0.26298599850E+03 0.  0.
         25    1    3    3    0    0  0.28124740105E+02 -0.10270957212E+03 -0.10143942161E+03  0.19307439387E+03  0.12509000000E+03 0.  0.
         25    1    4    4    0    0 -0.54019990203E+02  0.53838001587E+02 -0.79840649653E+02  0.16684941472E+03  0.12509000000E+03 0.  0.
         25    1    4    4    0    0  0.25895250098E+02  0.48871570534E+02 -0.92618603120E+02  0.16518083463E+03  0.12509000000E+03 0.  0.
<mgrwt>
<rscale>  2 0.44801161E+03</rscale>
<asrwt>0</asrwt>
<pdfrwt beam="1">  1       21 0.18471027E-01 0.44801161E+03</pdfrwt>
<pdfrwt beam="2">  1       21 0.58750244E-01 0.44801161E+03</pdfrwt>
<totfact> 0.67182703E+04</totfact>
</mgrwt>
</event>
<event>
 7    0  0.4709932E-002  0.4541079E+03  0.7546771E-02  0.1026504E+00
         21   -1    0    0  502  501  0.00000000000E+00  0.00000000000E+00  0.40504671279E+03  0.40504671279E+03  0.00000000000E+00 0.  1.
         21   -1    0    0  501  502 -0.00000000000E+00 -0.00000000000E+00 -0.12727790948E+03  0.12727790948E+03  0.00000000000E+00 0.  1.
      99926    2    1    2    0    0  0.00000000000E+00  0.00000000000E+00  0.27776880331E+03  0.53232462227E+03  0.45410791160E+03 0.  0.
      99925    2    3    3    0    0 -0.79327173325E+02  0.76070349320E+02  0.14721721710E+03  0.32073368854E+03  0.26290243719E+03 0.  0.
         25    1    3    3    0    0  0.79327173325E+02 -0.76070349320E+02  0.13055158621E+03  0.21159093373E+03  0.12509000000E+03 0.  0.
         25    1    4    4    0    0 -0.45908905653E+02  0.40719480829E+02  0.11978358041E+03  0.18374253175E+03  0.12509000000E+03 0.  0.
         25    1    4    4    0    0 -0.33418267672E+02  0.35350868491E+02  0.27433636688E+02  0.13699115679E+03  0.12509000000E+03 0.  0.
<mgrwt>
<rscale>  2 0.45410791E+03</rscale>
<asrwt>0</asrwt>
<pdfrwt beam="1">  1       21 0.59565693E-01 0.45410791E+03</pdfrwt>
<pdfrwt beam="2">  1       21 0.18717340E-01 0.45410791E+03</pdfrwt>
<totfact> 0.63497025E+04</totfact>
</mgrwt>
</event>
<event>
 7    0  0.4709932E-002  0.4693462E+03  0.7546771E-02  0.1022105E+00
         21   -1    0    0  502  501  0.00000000000E+00  0.00000000000E+00  0.61763348931E+02  0.61763348931E+02  0.00000000000E+00 0. -1.
         21   -1    0    0  501  502 -0.00000000000E+00 -0.00000000000E+00 -0.89165267452E+03  0.89165267452E+03  0.00000000000E+00 0. -1.
      99926    2    1    2    0    0  0.71054273576E-14  0.00000000000E+00 -0.82988932559E+03  0.95341602345E+03  0.46934616335E+03 0.  0.
      99925    2    3    3    0    0  0.35658810781E+02  0.11917158606E+03 -0.55889107178E+03  0.63005712165E+03  0.26294358466E+03 0.  0.
         25    1    4    4    0    0  0.10931155936E+02  0.10258062311E+03 -0.32191115069E+03  0.36043941439E+03  0.12509000000E+03 0.  0.
         25    1    4    4    0    0  0.24727654845E+02  0.16590962945E+02 -0.23697992109E+03  0.26961770725E+03  0.12509000000E+03 0.  0.
         25    1    3    3    0    0 -0.35658810781E+02 -0.11917158606E+03 -0.27099825380E+03  0.32335890180E+03  0.12509000000E+03 0.  0.
<mgrwt>
<rscale>  2 0.46934616E+03</rscale>
<asrwt>0</asrwt>
<pdfrwt beam="1">  1       21 0.90828464E-02 0.46934616E+03</pdfrwt>
<pdfrwt beam="2">  1       21 0.13112538E+00 0.46934616E+03</pdfrwt>
<totfact> 0.36707589E+04</totfact>
</mgrwt>
</event>
<event>
 7    0  0.4709932E-002  0.4564058E+03  0.7546771E-02  0.1025829E+00
         21   -1    0    0  502  501  0.00000000000E+00  0.00000000000E+00  0.50081558074E+02  0.50081558074E+02  0.00000000000E+00 0.  1.
         21   -1    0    0  501  502 -0.00000000000E+00 -0.00000000000E+00 -0.10398350125E+04  0.10398350125E+04  0.00000000000E+00 0.  1.
      99926    2    1    2    0    0  0.00000000000E+00  0.00000000000E+00 -0.98975345446E+03  0.10899165706E+04  0.45640577370E+03 0.  0.
      99925    2    3    3    0    0 -0.11359460765E+03 -0.56361175209E+01 -0.65292600665E+03  0.71304028002E+03  0.26301819341E+03 0.  0.
         25    1    3    3    0    0  0.11359460765E+03  0.56361175209E+01 -0.33682744781E+03  0.37687629059E+03  0.12509000000E+03 0.  0.
         25    1    4    4    0    0 -0.75890706125E+02  0.65791142948E+01 -0.25535507684E+03  0.29437460384E+03  0.12509000000E+03 0.  0.
         25    1    4    4    0    0 -0.37703901524E+02 -0.12215231816E+02 -0.39757092981E+03  0.41866567618E+03  0.12509000000E+03 0.  0.
<mgrwt>
<rscale>  2 0.45640577E+03</rscale>
<asrwt>0</asrwt>
<pdfrwt beam="1">  1       21 0.73649350E-02 0.45640577E+03</pdfrwt>
<pdfrwt beam="2">  1       21 0.15291691E+00 0.45640577E+03</pdfrwt>
<totfact> 0.35455406E+04</totfact>
</mgrwt>
</event>
<event>
 7    0  0.4709932E-002  0.4518689E+03  0.7546771E-02  0.1027166E+00
         21   -1    0    0  502  501  0.00000000000E+00  0.00000000000E+00  0.17142549175E+03  0.17142549175E+03  0.00000000000E+00 0.  1.
         21   -1    0    0  501  502 -0.00000000000E+00 -0.00000000000E+00 -0.29777591173E+03  0.29777591173E+03  0.00000000000E+00 0.  1.
      99926    2    1    2    0    0  0.00000000000E+00  0.00000000000E+00 -0.12635041998E+03  0.46920140348E+03  0.45186892834E+03 0.  0.
      99925    2    3    3    0    0 -0.70004665277E+02 -0.85097359030E+02 -0.82129528611E+02  0.29673340933E+03  0.26298905503E+03 0.  0.
         25    1    4    4    0    0 -0.40001244831E+02 -0.58381538046E+02 -0.81759584469E+02  0.16535005693E+03  0.12509000000E+03 0.  0.
         25    1    3    3    0    0  0.70004665277E+02  0.85097359030E+02 -0.44220891368E+02  0.17246799415E+03  0.12509000000E+03 0.  0.
         25    1    4    4    0    0 -0.30003420446E+02 -0.26715820984E+02 -0.36994414168E+00  0.13138335240E+03  0.12509000000E+03 0.  0.
<mgrwt>
<rscale>  2 0.45186893E+03</rscale>
<asrwt>0</asrwt>
<pdfrwt beam="1">  1       21 0.25209632E-01 0.45186893E+03</pdfrwt>
<pdfrwt beam="2">  1       21 0.43790574E-01 0.45186893E+03</pdfrwt>
<totfact> 0.69198168E+04</totfact>
</mgrwt>
</event>
<event>
 7    0  0.4709932E-002  0.4530541E+03  0.7546771E-02  0.1026815E+00
         21   -1    0    0  502  501  0.00000000000E+00  0.00000000000E+00  0.74001708299E+03  0.74001708299E+03  0.00000000000E+00 0.  1.
         21   -1    0    0  501  502 -0.00000000000E+00 -0.00000000000E+00 -0.69342330953E+02  0.69342330953E+02  0.00000000000E+00 0.  1.
      99926    2    1    2    0    0  0.71054273576E-14 -0.14210854715E-13  0.67067475204E+03  0.80935941394E+03  0.45305412251E+03 0.  0.
      99925    2    3    3    0    0 -0.63780815907E+02 -0.75892132178E+02  0.33199415915E+03  0.43495367106E+03  0.26293909191E+03 0.  0.
         25    1    4    4    0    0  0.68651265041E+01 -0.23823212354E+02  0.16613031674E+03  0.20943129100E+03  0.12509000000E+03 0.  0.
         25    1    4    4    0    0 -0.70645942411E+02 -0.52068919824E+02  0.16586384241E+03  0.22552238006E+03  0.12509000000E+03 0.  0.
         25    1    3    3    0    0  0.63780815907E+02  0.75892132178E+02  0.33868059289E+03  0.37440574288E+03  0.12509000000E+03 0.  0.
<mgrwt>
<rscale>  2 0.45305412E+03</rscale>
<asrwt>0</asrwt>
<pdfrwt beam="1">  1       21 0.10882604E+00 0.45305412E+03</pdfrwt>
<pdfrwt beam="2">  1       21 0.10197402E-01 0.45305412E+03</pdfrwt>
<totfact> 0.48044883E+04</totfact>
</mgrwt>
</event>
<event>
 7    0  0.4709932E-002  0.4567166E+03  0.7546771E-02  0.1025738E+00
         21   -1    0    0  502  501  0.00000000000E+00  0.00000000000E+00  0.21419367766E+03  0.21419367766E+03  0.00000000000E+00 0.  1.
         21   -1    0    0  501  502 -0.00000000000E+00 -0.00000000000E+00 -0.24345958460E+03  0.24345958460E+03  0.00000000000E+00 0.  1.
      99926    2    1    2    0    0  0.00000000000E+00  0.00000000000E+00 -0.29265906937E+02  0.45765326226E+03  0.45671655887E+03 0.  0.
      99925    2    3    3    0    0 -0.10552144422E+02  0.94963181169E+02 -0.81683267811E+02  0.29174834566E+03  0.26327853583E+03 0.  0.
         25    1    3    3    0    0  0.10552144422E+02 -0.94963181169E+02  0.52417360875E+02  0.16590491660E+03  0.12509000000E+03 0.  0.
         25    1    4    4    0    0  0.33319124152E+02  0.59741819138E+02 -0.48905992251E+02  0.15072675000E+03  0.12509000000E+03 0.  0.
         25    1    4    4    0    0 -0.43871268575E+02  0.35221362031E+02 -0.32777275560E+02  0.14102159566E+03  0.12509000000E+03 0.  0.
<mgrwt>
<rscale>  2 0.45671656E+03</rscale>
<asrwt>0</asrwt>
<pdfrwt beam="1">  1       21 0.31499070E-01 0.45671656E+03</pdfrwt>
<pdfrwt beam="2">  1       21 0.35802880E-01 0.45671656E+03</pdfrwt>
<totfact> 0.67423705E+04</totfact>
</mgrwt>
</event>
<event>
 7    0  0.4709932E-002  0.4565509E+03  0.7546771E-02  0.1025786E+00
         21   -1    0    0  502  501  0.00000000000E+00  0.00000000000E+00  0.63396435304E+03  0.63396435304E+03  0.00000000000E+00 0.  1.
         21   -1    0    0  501  502 -0.00000000000E+00 -0.00000000000E+00 -0.82196550009E+02  0.82196550009E+02  0.00000000000E+00 0.  1.
      99926    2    1    2    0    0 -0.71054273576E-14 -0.35527136788E-14  0.55176780303E+03  0.71616090305E+03  0.45655090690E+03 0.  0.
      99925    2    3    3    0    0 -0.24356350114E+02 -0.16683134986E+02  0.17312984110E+03  0.31630371217E+03  0.26306375210E+03 0.  0.
         25    1    4    4    0    0 -0.38151529558E+02 -0.41987281330E+01  0.12509244863E+03  0.18102153830E+03  0.12509000000E+03 0.  0.
         25    1    3    3    0    0  0.24356350114E+02  0.16683134986E+02  0.37863796193E+03  0.39985719088E+03  0.12509000000E+03 0.  0.
         25    1    4    4    0    0  0.13795179444E+02 -0.12484406853E+02  0.48037392471E+02  0.13528217387E+03  0.12509000000E+03 0.  0.
<mgrwt>
<rscale>  2 0.45655091E+03</rscale>
<asrwt>0</asrwt>
<pdfrwt beam="1">  1       21 0.93230049E-01 0.45655091E+03</pdfrwt>
<pdfrwt beam="2">  1       21 0.12087728E-01 0.45655091E+03</pdfrwt>
<totfact> 0.51404313E+04</totfact>
</mgrwt>
</event>
<event>
 7    0  0.4709932E-002  0.4592671E+03  0.7546771E-02  0.1024994E+00
         21   -1    0    0  502  501  0.00000000000E+00  0.00000000000E+00  0.29504906857E+02  0.29504906857E+02  0.00000000000E+00 0.  1.
         21   -1    0    0  501  502 -0.00000000000E+00 -0.00000000000E+00 -0.17872138282E+04  0.17872138282E+04  0.00000000000E+00 0.  1.
      99926    2    1    2    0    0  0.14210854715E-13 -0.71054273576E-14 -0.17577089213E+04  0.18167187350E+04  0.45926714463E+03 0.  0.
      99925    2    3    3    0    0  0.10141466463E+03  0.33120354518E+02 -0.91050137319E+03  0.95370655100E+03  0.26298582233E+03 0.  0.
         25    1    3    3    0    0 -0.10141466463E+03 -0.33120354518E+02 -0.84720754813E+03  0.86301218403E+03  0.12509000000E+03 0.  0.
         25    1    4    4    0    0  0.55532774203E+02 -0.20855119836E+02 -0.49736779069E+03  0.51627613963E+03  0.12509000000E+03 0.  0.
         25    1    4    4    0    0  0.45881890429E+02  0.53975474354E+02 -0.41313358250E+03  0.43743041137E+03  0.12509000000E+03 0.  0.
<mgrwt>
<rscale>  2 0.45926714E+03</rscale>
<asrwt>0</asrwt>
<pdfrwt beam="1">  1       21 0.43389569E-02 0.45926714E+03</pdfrwt>
<pdfrwt beam="2">  1       21 0.26282556E+00 0.45926714E+03</pdfrwt>
<totfact> 0.16390678E+04</totfact>
</mgrwt>
</event>
<event>
 7    0  0.4709932E-002  0.4542816E+03  0.7546771E-02  0.1026453E+00
         21   -1    0    0  502  501  0.00000000000E+00  0.00000000000E+00  0.15622286601E+04  0.15622286601E+04  0.00000000000E+00 0.  1.
         21   -1    0    0  501  502 -0.00000000000E+00 -0.00000000000E+00 -0.33025224493E+02  0.33025224493E+02  0.00000000000E+00 0.  1.
      99926    2    1    2    0    0  0.00000000000E+00  0.00000000000E+00  0.15292034356E+04  0.15952538846E+04  0.45428164044E+03 0.  0.
      99925    2    3    3    0    0 -0.43598056503E+02 -0.77229742892E+02  0.12051638030E+04  0.12367648118E+04  0.26325307959E+03 0.  0.
         25    1    4    4    0    0 -0.27313704997E+02 -0.24320634353E+02  0.41938985570E+03  0.43917296239E+03  0.12509000000E+03 0.  0.
         25    1    3    3    0    0  0.43598056503E+02  0.77229742892E+02  0.32403963264E+03  0.35848907283E+03  0.12509000000E+03 0.  0.
         25    1    4    4    0    0 -0.16284351506E+02 -0.52909108539E+02  0.78577394727E+03  0.79759184937E+03  0.12509000000E+03 0.  0.
<mgrwt>
<rscale>  2 0.45428164E+03</rscale>
<asrwt>0</asrwt>
<pdfrwt beam="1">  1       21 0.22973946E+00 0.45428164E+03</pdfrwt>
<pdfrwt beam="2">  1       21 0.48566517E-02 0.45428164E+03</pdfrwt>
<totfact> 0.21657807E+04</totfact>
</mgrwt>
</event>
<event>
 7    0  0.4709932E-002  0.4521843E+03  0.7546771E-02  0.1027073E+00
         21   -1    0    0  502  501  0.00000000000E+00  0.00000000000E+00  0.91250585578E+03  0.91250585578E+03  0.00000000000E+00 0.  1.
         21   -1    0    0  501  502 -0.00000000000E+00 -0.00000000000E+00 -0.56018999519E+02  0.56018999519E+02  0.00000000000E+00 0.  1.
      99926    2    1    2    0    0  0.14210854715E-13  0.00000000000E+00  0.85648685627E+03  0.96852485530E+03  0.45218432125E+03 0.  0.
      99925    2    3    3    0    0 -0.77521083366E+02  0.59259491975E+02  0.65111063704E+03  0.70900972033E+03  0.26311312416E+03 0.  0.
         25    1    3    3    0    0  0.77521083366E+02 -0.59259491975E+02  0.20537621923E+03  0.25951513497E+03  0.12509000000E+03 0.  0.
         25    1    4    4    0    0 -0.41825277965E+02  0.70946609012E+02  0.36265918808E+03  0.39236713675E+03  0.12509000000E+03 0.  0.
         25    1    4    4    0    0 -0.35695805401E+02 -0.11687117037E+02  0.28845144896E+03  0.31664258358E+03  0.12509000000E+03 0.  0.
<mgrwt>
<rscale>  2 0.45218432E+03</rscale>
<asrwt>0</asrwt>
<pdfrwt beam="1">  1       21 0.13419203E+00 0.45218432E+03</pdfrwt>
<pdfrwt beam="2">  1       21 0.82380887E-02 0.45218432E+03</pdfrwt>
<totfact> 0.41301373E+04</totfact>
</mgrwt>
</event>
<event>
 7    0  0.4709932E-002  0.4660896E+03  0.7546771E-02  0.1023030E+00
         21   -1    0    0  502  501  0.00000000000E+00  0.00000000000E+00  0.13982664116E+03  0.13982664116E+03  0.00000000000E+00 0.  1.
         21   -1    0    0  501  502 -0.00000000000E+00 -0.00000000000E+00 -0.38840866797E+03  0.38840866797E+03  0.00000000000E+00 0.  1.
      99926    2    1    2    0    0  0.00000000000E+00  0.00000000000E+00 -0.24858202681E+03  0.52823530912E+03  0.46608960271E+03 0.  0.
      99925    2    3    3    0    0 -0.45113584159E+02 -0.37940843104E+02 -0.27768955206E+03  0.38692183072E+03  0.26291114986E+03 0.  0.
         25    1    4    4    0    0  0.30063655242E+01 -0.31389970169E+02 -0.17765111110E+03  0.21954906931E+03  0.12509000000E+03 0.  0.
         25    1    4    4    0    0 -0.48119949683E+02 -0.65508729351E+01 -0.10003844096E+03  0.16737276141E+03  0.12509000000E+03 0.  0.
         25    1    3    3    0    0  0.45113584159E+02  0.37940843104E+02  0.29107525250E+02  0.14131347840E+03  0.12509000000E+03 0.  0.
<mgrwt>
<rscale>  2 0.46608960E+03</rscale>
<asrwt>0</asrwt>
<pdfrwt beam="1">  1       21 0.20562742E-01 0.46608960E+03</pdfrwt>
<pdfrwt beam="2">  1       21 0.57118921E-01 0.46608960E+03</pdfrwt>
<totfact> 0.58051670E+04</totfact>
</mgrwt>
</event>
<event>
 7    0  0.4709932E-002  0.4634581E+03  0.7546771E-02  0.1023783E+00
         21   -1    0    0  502  501  0.00000000000E+00  0.00000000000E+00  0.50753961994E+03  0.50753961994E+03  0.00000000000E+00 0. -1.
         21   -1    0    0  501  502 -0.00000000000E+00 -0.00000000000E+00 -0.10580131651E+03  0.10580131651E+03  0.00000000000E+00 0. -1.
      99926    2    1    2    0    0  0.00000000000E+00  0.00000000000E+00  0.40173830343E+03  0.61334093645E+03  0.46345813175E+03 0.  0.
      99925    2    3    3    0    0  0.10170383850E+03  0.64467976154E+02  0.23436300032E+03  0.37217337872E+03  0.26284447339E+03 0.  0.
         25    1    3    3    0    0 -0.10170383850E+03 -0.64467976154E+02  0.16737530311E+03  0.24116755774E+03  0.12509000000E+03 0.  0.
         25    1    4    4    0    0  0.62356499447E+02  0.29244648281E+02  0.70157938263E+02  0.15910131011E+03  0.12509000000E+03 0.  0.
         25    1    4    4    0    0  0.39347339049E+02  0.35223327873E+02  0.16420506206E+03  0.21307206861E+03  0.12509000000E+03 0.  0.
<mgrwt>
<rscale>  2 0.46345813E+03</rscale>
<asrwt>0</asrwt>
<pdfrwt beam="1">  1       21 0.74638178E-01 0.46345813E+03</pdfrwt>
<pdfrwt beam="2">  1       21 0.15559017E-01 0.46345813E+03</pdfrwt>
<totfact> 0.54154908E+04</totfact>
</mgrwt>
</event>
<event>
 7    0  0.4709932E-002  0.4509822E+03  0.7546771E-02  0.1027430E+00
         21   -1    0    0  502  501  0.00000000000E+00  0.00000000000E+00  0.86924522593E+02  0.86924522593E+02  0.00000000000E+00 0.  1.
         21   -1    0    0  501  502 -0.00000000000E+00 -0.00000000000E+00 -0.58494706321E+03  0.58494706321E+03  0.00000000000E+00 0.  1.
      99926    2    1    2    0    0  0.00000000000E+00 -0.35527136788E-14 -0.49802254061E+03  0.67187158580E+03  0.45098223562E+03 0.  0.
      99925    2    3    3    0    0 -0.43062501498E+02 -0.31063934828E+02 -0.17210773849E+03  0.31876067769E+03  0.26299800173E+03 0.  0.
         25    1    4    4    0    0 -0.48481741956E+02  0.46775513245E+01 -0.11425401352E+03  0.17627775383E+03  0.12509000000E+03 0.  0.
         25    1    3    3    0    0  0.43062501498E+02  0.31063934828E+02 -0.32591480212E+03  0.35311090811E+03  0.12509000000E+03 0.  0.
         25    1    4    4    0    0  0.54192404580E+01 -0.35741486152E+02 -0.57853724969E+02  0.14248292386E+03  0.12509000000E+03 0.  0.
<mgrwt>
<rscale>  2 0.45098224E+03</rscale>
<asrwt>0</asrwt>
<pdfrwt beam="1">  1       21 0.12783017E-01 0.45098224E+03</pdfrwt>
<pdfrwt beam="2">  1       21 0.86021633E-01 0.45098224E+03</pdfrwt>
<totfact> 0.56215673E+04</totfact>
</mgrwt>
</event>
<event>
 7    0  0.4709932E-002  0.4572063E+03  0.7546771E-02  0.1025595E+00
         21   -1    0    0  502  501  0.00000000000E+00  0.00000000000E+00  0.33819462654E+03  0.33819462654E+03  0.00000000000E+00 0. -1.
         21   -1    0    0  501  502 -0.00000000000E+00 -0.00000000000E+00 -0.15452459915E+03  0.15452459915E+03  0.00000000000E+00 0. -1.
      99926    2    1    2    0    0  0.00000000000E+00  0.00000000000E+00  0.18367002738E+03  0.49271922569E+03  0.45720625150E+03 0.  0.
      99925    2    3    3    0    0 -0.35077918659E+02  0.64798792015E+02  0.21072286509E+03  0.34504150919E+03  0.26309726978E+03 0.  0.
         25    1    4    4    0    0  0.14847798008E+02  0.33205582698E+02  0.13384131347E+03  0.18677278474E+03  0.12509000000E+03 0.  0.
         25    1    3    3    0    0  0.35077918659E+02 -0.64798792015E+02 -0.27052837704E+02  0.14767771650E+03  0.12509000000E+03 0.  0.
         25    1    4    4    0    0 -0.49925716668E+02  0.31593209317E+02  0.76881551620E+02  0.15826872445E+03  0.12509000000E+03 0.  0.
<mgrwt>
<rscale>  2 0.45720625E+03</rscale>
<asrwt>0</asrwt>
<pdfrwt beam="1">  1       21 0.49734504E-01 0.45720625E+03</pdfrwt>
<pdfrwt beam="2">  1       21 0.22724206E-01 0.45720625E+03</pdfrwt>
<totfact> 0.64645551E+04</totfact>
</mgrwt>
</event>
<event>
 7    0  0.4709932E-002  0.4581677E+03  0.7546771E-02  0.1025314E+00
         21   -1    0    0  502  501  0.00000000000E+00  0.00000000000E+00  0.11913866234E+03  0.11913866234E+03  0.00000000000E+00 0. -1.
         21   -1    0    0  501  502 -0.00000000000E+00 -0.00000000000E+00 -0.44049015656E+03  0.44049015656E+03  0.00000000000E+00 0. -1.
      99926    2    1    2    0    0  0.00000000000E+00 -0.35527136788E-14 -0.32135149422E+03  0.55962881889E+03  0.45816768993E+03 0.  0.
      99925    2    3    3    0    0 -0.10949932326E+03  0.31636701310E+02 -0.23019139290E+03  0.36740849001E+03  0.26269742766E+03 0.  0.
         25    1    4    4    0    0 -0.39694919581E+02  0.52165480595E+02 -0.12365505724E+03  0.18770989662E+03  0.12509000000E+03 0.  0.
         25    1    4    4    0    0 -0.69804403678E+02 -0.20528779285E+02 -0.10653633566E+03  0.17969859339E+03  0.12509000000E+03 0.  0.
         25    1    3    3    0    0  0.10949932326E+03 -0.31636701310E+02 -0.91160101325E+02  0.19222032889E+03  0.12509000000E+03 0.  0.
<mgrwt>
<rscale>  2 0.45816769E+03</rscale>
<asrwt>0</asrwt>
<pdfrwt beam="1">  1       21 0.17520392E-01 0.45816769E+03</pdfrwt>
<pdfrwt beam="2">  1       21 0.64777964E-01 0.45816769E+03</pdfrwt>
<totfact> 0.59724079E+04</totfact>
</mgrwt>
</event>
<event>
 7    0  0.4709932E-002  0.4546321E+03  0.7546771E-02  0.1026350E+00
         21   -1    0    0  502  501  0.00000000000E+00  0.00000000000E+00  0.16343381238E+03  0.16343381238E+03  0.00000000000E+00 0. -1.
         21   -1    0    0  501  502 -0.00000000000E+00 -0.00000000000E+00 -0.31616827677E+03  0.31616827677E+03  0.00000000000E+00 0. -1.
      99926    2    1    2    0    0  0.88817841970E-15  0.00000000000E+00 -0.15273446439E+03  0.47960208914E+03  0.45463210104E+03 0.  0.
      99925    2    3    3    0    0 -0.40974368013E+01 -0.55054634023E+02 -0.19987711842E+03  0.33497242537E+03  0.26307387094E+03 0.  0.
         25    1    4    4    0    0 -0.40161366372E+02 -0.13362149322E+02 -0.10141833141E+03  0.16650726239E+03  0.12509000000E+03 0.  0.
         25    1    3    3    0    0  0.40974368013E+01  0.55054634023E+02  0.47142654028E+02  0.14462966378E+03  0.12509000000E+03 0.  0.
         25    1    4    4    0    0  0.36063929571E+02 -0.41692484701E+02 -0.98458787012E+02  0.16846516298E+03  0.12509000000E+03 0.  0.
<mgrwt>
<rscale>  2 0.45463210E+03</rscale>
<asrwt>0</asrwt>
<pdfrwt beam="1">  1       21 0.24034385E-01 0.45463210E+03</pdfrwt>
<pdfrwt beam="2">  1       21 0.46495334E-01 0.45463210E+03</pdfrwt>
<totfact> 0.66924289E+04</totfact>
</mgrwt>
</event>
<event>
 7    0  0.4709932E-002  0.4498591E+03  0.7546771E-02  0.1027764E+00
         21   -1    0    0  502  501  0.00000000000E+00  0.00000000000E+00  0.20326637482E+04  0.20326637482E+04  0.00000000000E+00 0. -1.
         21   -1    0    0  501  502 -0.00000000000E+00 -0.00000000000E+00 -0.24890152766E+02  0.24890152766E+02  0.00000000000E+00 0. -1.
      99926    2    1    2    0    0  0.00000000000E+00  0.00000000000E+00  0.20077735954E+04  0.20575539009E+04  0.44985913890E+03 0.  0.
      99925    2    3    3    0    0 -0.57000899119E+02  0.91034642722E+02  0.12022709447E+04  0.12353504973E+04  0.26286692043E+03 0.  0.
         25    1    3    3    0    0  0.57000899119E+02 -0.91034642722E+02  0.80550265064E+03  0.82220340364E+03  0.12509000000E+03 0.  0.
         25    1    4    4    0    0 -0.36636474611E+02  0.43807286582E+01  0.55887143179E+03  0.57388692913E+03  0.12509000000E+03 0.  0.
         25    1    4    4    0    0 -0.20364424509E+02  0.86653914064E+02  0.64339951296E+03  0.66146356814E+03  0.12509000000E+03 0.  0.
<mgrwt>
<rscale>  2 0.44985914E+03</rscale>
<asrwt>0</asrwt>
<pdfrwt beam="1">  1       21 0.29892103E+00 0.44985914E+03</pdfrwt>
<pdfrwt beam="2">  1       21 0.36603180E-02 0.44985914E+03</pdfrwt>
<totfact> 0.13316391E+04</totfact>
</mgrwt>
</event>
<event>
 7    0  0.4709932E-002  0.4624998E+03  0.7546771E-02  0.1024059E+00
         21   -1    0    0  502  501  0.00000000000E+00  0.00000000000E+00  0.11057821680E+04  0.11057821680E+04  0.00000000000E+00 0.  1.
         21   -1    0    0  501  502 -0.00000000000E+00 -0.00000000000E+00 -0.48360814873E+02  0.48360814873E+02  0.00000000000E+00 0.  1.
      99926    2    1    2    0    0  0.00000000000E+00  0.00000000000E+00  0.10574213531E+04  0.11541429829E+04  0.46249984526E+03 0.  0.
      99925    2    3    3    0    0 -0.91029538098E+02  0.46937206155E+01  0.46628347384E+03  0.54307841325E+03  0.26306933904E+03 0.  0.
         25    1    4    4    0    0 -0.81102585796E+02  0.13675823211E+02  0.21399055359E+03  0.26115919032E+03  0.12509000000E+03 0.  0.
         25    1    4    4    0    0 -0.99269523021E+01 -0.89821025956E+01  0.25229292025E+03  0.28191922293E+03  0.12509000000E+03 0.  0.
         25    1    3    3    0    0  0.91029538098E+02 -0.46937206155E+01  0.59113787927E+03  0.61106456961E+03  0.12509000000E+03 0.  0.
<mgrwt>
<rscale>  2 0.46249985E+03</rscale>
<asrwt>0</asrwt>
<pdfrwt beam="1">  1       21 0.16261501E+00 0.46249985E+03</pdfrwt>
<pdfrwt beam="2">  1       21 0.71118853E-02 0.46249985E+03</pdfrwt>
<totfact> 0.31747725E+04</totfact>
</mgrwt>
</event>
<event>
 7    0  0.4709932E-002  0.4208917E+03  0.7546771E-02  0.1036776E+00
         21   -1    0    0  502  501  0.00000000000E+00  0.00000000000E+00  0.19039126611E+03  0.19039126611E+03  0.00000000000E+00 0.  1.
         21   -1    0    0  501  502 -0.00000000000E+00 -0.00000000000E+00 -0.23261287295E+03  0.23261287295E+03  0.00000000000E+00 0.  1.
      99926    2    1    2    0    0  0.00000000000E+00  0.71054273576E-14 -0.42221606840E+02  0.42300413907E+03  0.42089171717E+03 0.  0.
      99925    2    3    3    0    0  0.31950512785E+02 -0.43651064661E+02  0.27591847415E+02  0.26987779513E+03  0.26295715154E+03 0.  0.
         25    1    4    4    0    0 -0.96291439651E+01  0.10559920865E+02  0.14903890069E+02  0.12678275270E+03  0.12509000000E+03 0.  0.
         25    1    3    3    0    0 -0.31950512785E+02  0.43651064661E+02 -0.69813454254E+02  0.15312634394E+03  0.12509000000E+03 0.  0.
         25    1    4    4    0    0  0.41579656750E+02 -0.54210985525E+02  0.12687957346E+02  0.14309504243E+03  0.12509000000E+03 0.  0.
<mgrwt>
<rscale>  2 0.42089172E+03</rscale>
<asrwt>0</asrwt>
<pdfrwt beam="1">  1       21 0.27998716E-01 0.42089172E+03</pdfrwt>
<pdfrwt beam="2">  1       21 0.34207776E-01 0.42089172E+03</pdfrwt>
<totfact> 0.94064444E+04</totfact>
</mgrwt>
</event>
<event>
 7    0  0.4709932E-002  0.4562049E+03  0.7546771E-02  0.1025888E+00
         21   -1    0    0  502  501  0.00000000000E+00  0.00000000000E+00  0.11873329449E+04  0.11873329449E+04  0.00000000000E+00 0. -1.
         21   -1    0    0  501  502 -0.00000000000E+00 -0.00000000000E+00 -0.43821522813E+02  0.43821522813E+02  0.00000000000E+00 0. -1.
      99926    2    1    2    0    0 -0.17763568394E-14  0.14210854715E-13  0.11435114221E+04  0.12311544677E+04  0.45620494400E+03 0.  0.
      99925    2    3    3    0    0  0.80338718238E+01  0.87185883807E+02  0.91698334970E+03  0.95797248238E+03  0.26303401289E+03 0.  0.
         25    1    4    4    0    0 -0.51645161826E+01  0.78896990836E+02  0.42218419014E+03  0.44736831123E+03  0.12509000000E+03 0.  0.
         25    1    3    3    0    0 -0.80338718238E+01 -0.87185883807E+02  0.22652807239E+03  0.27318198534E+03  0.12509000000E+03 0.  0.
         25    1    4    4    0    0  0.13198388006E+02  0.82888929712E+01  0.49479915956E+03  0.51060417115E+03  0.12509000000E+03 0.  0.
<mgrwt>
<rscale>  2 0.45620494E+03</rscale>
<asrwt>0</asrwt>
<pdfrwt beam="1">  1       21 0.17460777E+00 0.45620494E+03</pdfrwt>
<pdfrwt beam="2">  1       21 0.64443423E-02 0.45620494E+03</pdfrwt>
<totfact> 0.30890672E+04</totfact>
</mgrwt>
</event>
<event>
 7    0  0.4709932E-002  0.4558260E+03  0.7546771E-02  0.1025999E+00
         21   -1    0    0  502  501  0.00000000000E+00  0.00000000000E+00  0.52646963747E+03  0.52646963747E+03  0.00000000000E+00 0. -1.
         21   -1    0    0  501  502 -0.00000000000E+00 -0.00000000000E+00 -0.98665390603E+02  0.98665390603E+02  0.00000000000E+00 0. -1.
      99926    2    1    2    0    0  0.00000000000E+00  0.00000000000E+00  0.42780424687E+03  0.62513502808E+03  0.45582598619E+03 0.  0.
      99925    2    3    3    0    0 -0.14298246890E+02 -0.65504316993E+02  0.14273547551E+03  0.30669042078E+03  0.26304057258E+03 0.  0.
         25    1    4    4    0    0 -0.13452065347E+01 -0.66706052033E+02  0.10142101228E+03  0.17431361619E+03  0.12509000000E+03 0.  0.
         25    1    3    3    0    0  0.14298246890E+02  0.65504316993E+02  0.28506877136E+03  0.31844460730E+03  0.12509000000E+03 0.  0.
         25    1    4    4    0    0 -0.12953040355E+02  0.12017350401E+01  0.41314463230E+02  0.13237680459E+03  0.12509000000E+03 0.  0.
<mgrwt>
<rscale>  2 0.45582599E+03</rscale>
<asrwt>0</asrwt>
<pdfrwt beam="1">  1       21 0.77422004E-01 0.45582599E+03</pdfrwt>
<pdfrwt beam="2">  1       21 0.14509617E-01 0.45582599E+03</pdfrwt>
<totfact> 0.56785980E+04</totfact>
</mgrwt>
</event>
<event>
 7    0  0.4709932E-002  0.4295880E+03  0.7546771E-02  0.1033990E+00
         21   -1    0    0  502  501  0.00000000000E+00  0.00000000000E+00  0.37819759481E+02  0.37819759481E+02  0.00000000000E+00 0. -1.
         21   -1    0    0  501  502 -0.00000000000E+00 -0.00000000000E+00 -0.12199035257E+04  0.12199035257E+04  0.00000000000E+00 0. -1.
      99926    2    1    2    0    0  0.71054273576E-14 -0.35527136788E-14 -0.11820837662E+04  0.12577232852E+04  0.42958797903E+03 0.  0.
      99925    2    3    3    0    0  0.33691605563E+02  0.29070574032E+02 -0.54334686277E+03  0.60533339984E+03  0.26310167070E+03 0.  0.
         25    1    3    3    0    0 -0.33691605563E+02 -0.29070574032E+02 -0.63873690345E+03  0.65238988534E+03  0.12509000000E+03 0.  0.
         25    1    4    4    0    0 -0.78349927403E+01 -0.16243962345E+02 -0.23132820076E+03  0.26360102047E+03  0.12509000000E+03 0.  0.
         25    1    4    4    0    0  0.41526598303E+02  0.45314536378E+02 -0.31201866201E+03  0.34173237938E+03  0.12509000000E+03 0.  0.
<mgrwt>
<rscale>  2 0.42958798E+03</rscale>
<asrwt>0</asrwt>
<pdfrwt beam="1">  1       21 0.55617291E-02 0.42958798E+03</pdfrwt>
<pdfrwt beam="2">  1       21 0.17939759E+00 0.42958798E+03</pdfrwt>
<totfact> 0.37195792E+04</totfact>
</mgrwt>
</event>
<event>
 7    0  0.4709932E-002  0.4540973E+03  0.7546771E-02  0.1026507E+00
         21   -1    0    0  502  501  0.00000000000E+00  0.00000000000E+00  0.24685390702E+03  0.24685390702E+03  0.00000000000E+00 0. -1.
         21   -1    0    0  501  502 -0.00000000000E+00 -0.00000000000E+00 -0.20883239024E+03  0.20883239024E+03  0.00000000000E+00 0. -1.
      99926    2    1    2    0    0  0.00000000000E+00  0.00000000000E+00  0.38021516777E+02  0.45568629725E+03  0.45409730870E+03 0.  0.
      99925    2    3    3    0    0 -0.72592133748E+02 -0.30434632879E+02 -0.56532216271E+02  0.28023316592E+03  0.26294267635E+03 0.  0.
         25    1    4    4    0    0 -0.28401486054E+02 -0.27379241519E+02  0.10461734904E+02  0.13157972212E+03  0.12509000000E+03 0.  0.
         25    1    4    4    0    0 -0.44190647694E+02 -0.30553913598E+01 -0.66993951176E+02  0.14865344380E+03  0.12509000000E+03 0.  0.
         25    1    3    3    0    0  0.72592133748E+02  0.30434632879E+02  0.94553733048E+02  0.17545313133E+03  0.12509000000E+03 0.  0.
<mgrwt>
<rscale>  2 0.45409731E+03</rscale>
<asrwt>0</asrwt>
<pdfrwt beam="1">  1       21 0.36302045E-01 0.45409731E+03</pdfrwt>
<pdfrwt beam="2">  1       21 0.30710645E-01 0.45409731E+03</pdfrwt>
<totfact> 0.68991129E+04</totfact>
</mgrwt>
</event>
<event>
 7    0  0.4709932E-002  0.4349887E+03  0.7546771E-02  0.1032296E+00
         21   -1    0    0  502  501  0.00000000000E+00  0.00000000000E+00  0.35426561797E+02  0.35426561797E+02  0.00000000000E+00 0. -1.
         21   -1    0    0  501  502 -0.00000000000E+00 -0.00000000000E+00 -0.13352636353E+04  0.13352636353E+04  0.00000000000E+00 0. -1.
      99926    2    1    2    0    0  0.17763568394E-14  0.00000000000E+00 -0.12998370735E+04  0.13706901971E+04  0.43498873407E+03 0.  0.
      99925    2    3    3    0    0  0.12496152300E+02  0.78885965466E+02 -0.98485785292E+03  0.10224969076E+04  0.26301290115E+03 0.  0.
         25    1    3    3    0    0 -0.12496152300E+02 -0.78885965466E+02 -0.31497922059E+03  0.34819328952E+03  0.12509000000E+03 0.  0.
         25    1    4    4    0    0 -0.10278803843E+01 -0.23219795110E+01 -0.44478057270E+03  0.46204297860E+03  0.12509000000E+03 0.  0.
         25    1    4    4    0    0  0.13524032684E+02  0.81207944977E+02 -0.54007728022E+03  0.56045392897E+03  0.12509000000E+03 0.  0.
<mgrwt>
<rscale>  2 0.43498873E+03</rscale>
<asrwt>0</asrwt>
<pdfrwt beam="1">  1       21 0.52097889E-02 0.43498873E+03</pdfrwt>
<pdfrwt beam="2">  1       21 0.19636228E+00 0.43498873E+03</pdfrwt>
<totfact> 0.31787830E+04</totfact>
</mgrwt>
</event>
<event>
 7    0  0.4709932E-002  0.4529854E+03  0.7546771E-02  0.1026835E+00
         21   -1    0    0  502  501  0.00000000000E+00  0.00000000000E+00  0.20662370538E+04  0.20662370538E+04  0.00000000000E+00 0.  1.
         21   -1    0    0  501  502 -0.00000000000E+00 -0.00000000000E+00 -0.24827230696E+02  0.24827230696E+02  0.00000000000E+00 0.  1.
      99926    2    1    2    0    0  0.00000000000E+00  0.00000000000E+00  0.20414098231E+04  0.20910642845E+04  0.45298540376E+03 0.  0.
      99925    2    3    3    0    0  0.14708886397E+02 -0.10564642954E+03  0.14328757387E+04  0.14607161589E+04  0.26302337350E+03 0.  0.
         25    1    4    4    0    0 -0.27647126459E+02 -0.49381193597E+02  0.59528659576E+03  0.61091448262E+03  0.12509000000E+03 0.  0.
         25    1    3    3    0    0 -0.14708886397E+02  0.10564642954E+03  0.60853408440E+03  0.63034812556E+03  0.12509000000E+03 0.  0.
         25    1    4    4    0    0  0.42356012856E+02 -0.56265235942E+02  0.83758914290E+03  0.84980167628E+03  0.12509000000E+03 0.  0.
<mgrwt>
<rscale>  2 0.45298540E+03</rscale>
<asrwt>0</asrwt>
<pdfrwt beam="1">  1       21 0.30385827E+00 0.45298540E+03</pdfrwt>
<pdfrwt beam="2">  1       21 0.36510647E-02 0.45298540E+03</pdfrwt>
<totfact> 0.12473409E+04</totfact>
</mgrwt>
</event>
<event>
 7    0  0.4709932E-002  0.4542529E+03  0.7546771E-02  0.1026461E+00
         21   -1    0    0  502  501  0.00000000000E+00  0.00000000000E+00  0.37083652243E+03  0.37083652243E+03  0.00000000000E+00 0. -1.
         21   -1    0    0  501  502 -0.00000000000E+00 -0.00000000000E+00 -0.13910823261E+03  0.13910823261E+03  0.00000000000E+00 0. -1.
      99926    2    1    2    0    0  0.00000000000E+00 -0.71054273576E-14  0.23172828982E+03  0.50994475504E+03  0.45425285127E+03 0.  0.
      99925    2    3    3    0    0 -0.92783458719E+02  0.35598506960E+02  0.20532990184E+03  0.34801758963E+03  0.26283045902E+03 0.  0.
         25    1    4    4    0    0 -0.36162343650E+02 -0.91796793094E+01  0.13351258508E+03  0.18672198608E+03  0.12509000000E+03 0.  0.
         25    1    4    4    0    0 -0.56621115069E+02  0.44778186269E+02  0.71817316756E+02  0.16129560355E+03  0.12509000000E+03 0.  0.
         25    1    3    3    0    0  0.92783458719E+02 -0.35598506960E+02  0.26398387983E+02  0.16192716541E+03  0.12509000000E+03 0.  0.
<mgrwt>
<rscale>  2 0.45425285E+03</rscale>
<asrwt>0</asrwt>
<pdfrwt beam="1">  1       21 0.54534783E-01 0.45425285E+03</pdfrwt>
<pdfrwt beam="2">  1       21 0.20457093E-01 0.45425285E+03</pdfrwt>
<totfact> 0.64961846E+04</totfact>
</mgrwt>
</event>
<event>
 7    0  0.4709932E-002  0.4628171E+03  0.7546771E-02  0.1023967E+00
         21   -1    0    0  502  501  0.00000000000E+00  0.00000000000E+00  0.15776143419E+03  0.15776143419E+03  0.00000000000E+00 0.  1.
         21   -1    0    0  501  502 -0.00000000000E+00 -0.00000000000E+00 -0.33943604550E+03  0.33943604550E+03  0.00000000000E+00 0.  1.
      99926    2    1    2    0    0  0.00000000000E+00  0.00000000000E+00 -0.18167461131E+03  0.49719747969E+03  0.46281710147E+03 0.  0.
      99925    2    3    3    0    0 -0.82647665374E+02 -0.29702217654E+02 -0.25142817525E+02  0.27842232367E+03  0.26300944987E+03 0.  0.
         25    1    4    4    0    0 -0.36586624935E+01 -0.85055545070E+01  0.67157490196E+01  0.12561186112E+03  0.12509000000E+03 0.  0.
         25    1    4    4    0    0 -0.78989002880E+02 -0.21196663147E+02 -0.31858566544E+02  0.15281046256E+03  0.12509000000E+03 0.  0.
         25    1    3    3    0    0  0.82647665374E+02  0.29702217654E+02 -0.15653179378E+03  0.21877515602E+03  0.12509000000E+03 0.  0.
<mgrwt>
<rscale>  2 0.46281710E+03</rscale>
<asrwt>0</asrwt>
<pdfrwt beam="1">  1       21 0.23200211E-01 0.46281710E+03</pdfrwt>
<pdfrwt beam="2">  1       21 0.49917065E-01 0.46281710E+03</pdfrwt>
<totfact> 0.61558270E+04</totfact>
</mgrwt>
</event>
<event>
 7    0  0.4709932E-002  0.4554555E+03  0.7546771E-02  0.1026108E+00
         21   -1    0    0  502  501  0.00000000000E+00  0.00000000000E+00  0.55826118740E+02  0.55826118740E+02  0.00000000000E+00 0. -1.
         21   -1    0    0  501  502 -0.00000000000E+00 -0.00000000000E+00 -0.92895447512E+03  0.92895447512E+03  0.00000000000E+00 0. -1.
      99926    2    1    2    0    0  0.00000000000E+00  0.00000000000E+00 -0.87312835638E+03  0.98478059386E+03  0.45545547678E+03 0.  0.
      99925    2    3    3    0    0  0.51427682759E+02 -0.35268183854E+02 -0.34384093234E+03  0.43734901212E+03  0.26298083637E+03 0.  0.
         25    1    3    3    0    0 -0.51427682759E+02  0.35268183854E+02 -0.52928742404E+03  0.54743158174E+03  0.12509000000E+03 0.  0.
         25    1    4    4    0    0  0.14649683078E+02 -0.19570037485E+02 -0.10648602829E+03  0.16608546566E+03  0.12509000000E+03 0.  0.
         25    1    4    4    0    0  0.36777999680E+02 -0.15698146369E+02 -0.23735490405E+03  0.27126354646E+03  0.12509000000E+03 0.  0.
<mgrwt>
<rscale>  2 0.45545548E+03</rscale>
<asrwt>0</asrwt>
<pdfrwt beam="1">  1       21 0.82097237E-02 0.45545548E+03</pdfrwt>
<pdfrwt beam="2">  1       21 0.13661095E+00 0.45545548E+03</pdfrwt>
<totfact> 0.39622074E+04</totfact>
</mgrwt>
</event>
<event>
 7    0  0.4709932E-002  0.4560656E+03  0.7546771E-02  0.1025929E+00
         21   -1    0    0  502  501  0.00000000000E+00  0.00000000000E+00  0.11087385656E+04  0.11087385656E+04  0.00000000000E+00 0.  1.
         21   -1    0    0  501  502 -0.00000000000E+00 -0.00000000000E+00 -0.46899209788E+02  0.46899209788E+02  0.00000000000E+00 0.  1.
      99926    2    1    2    0    0  0.35527136788E-14  0.00000000000E+00  0.10618393558E+04  0.11556377754E+04  0.45606562067E+03 0.  0.
      99925    2    3    3    0    0 -0.23394334806E+02  0.76321129217E+02  0.46048079877E+03  0.53624143063E+03  0.26294504412E+03 0.  0.
         25    1    4    4    0    0 -0.46810552191E+02  0.18600487626E+02  0.23646089765E+03  0.27221034175E+03  0.12509000000E+03 0.  0.
         25    1    4    4    0    0  0.23416217385E+02  0.57720641591E+02  0.22401990111E+03  0.26403108888E+03  0.12509000000E+03 0.  0.
         25    1    3    3    0    0  0.23394334806E+02 -0.76321129217E+02  0.60135855707E+03  0.61939634478E+03  0.12509000000E+03 0.  0.
<mgrwt>
<rscale>  2 0.45606562E+03</rscale>
<asrwt>0</asrwt>
<pdfrwt beam="1">  1       21 0.16304977E+00 0.45606562E+03</pdfrwt>
<pdfrwt beam="2">  1       21 0.68969433E-02 0.45606562E+03</pdfrwt>
<totfact> 0.33317144E+04</totfact>
</mgrwt>
</event>
<event>
 7    0  0.4709932E-002  0.4526183E+03  0.7546771E-02  0.1026944E+00
         21   -1    0    0  502  501  0.00000000000E+00  0.00000000000E+00  0.34231660630E+03  0.34231660630E+03  0.00000000000E+00 0.  1.
         21   -1    0    0  501  502 -0.00000000000E+00 -0.00000000000E+00 -0.14961537807E+03  0.14961537807E+03  0.00000000000E+00 0.  1.
      99926    2    1    2    0    0  0.00000000000E+00  0.00000000000E+00  0.19270122823E+03  0.49193198437E+03  0.45261828717E+03 0.  0.
      99925    2    3    3    0    0 -0.56052725684E+02  0.87696549512E+02  0.16221832402E+03  0.32637441613E+03  0.26338732316E+03 0.  0.
         25    1    3    3    0    0  0.56052725684E+02 -0.87696549512E+02  0.30482904219E+02  0.16555756824E+03  0.12509000000E+03 0.  0.
         25    1    4    4    0    0  0.90803502139E+01  0.24957278338E+02  0.60111473252E+02  0.14130186063E+03  0.12509000000E+03 0.  0.
         25    1    4    4    0    0 -0.65133075898E+02  0.62739271174E+02  0.10210685076E+03  0.18507255549E+03  0.12509000000E+03 0.  0.
<mgrwt>
<rscale>  2 0.45261829E+03</rscale>
<asrwt>0</asrwt>
<pdfrwt beam="1">  1       21 0.50340677E-01 0.45261829E+03</pdfrwt>
<pdfrwt beam="2">  1       21 0.22002262E-01 0.45261829E+03</pdfrwt>
<totfact> 0.67101027E+04</totfact>
</mgrwt>
</event>
<event>
 7    0  0.4709932E-002  0.4581971E+03  0.7546771E-02  0.1025305E+00
         21   -1    0    0  502  501  0.00000000000E+00  0.00000000000E+00  0.14590744990E+04  0.14590744990E+04  0.00000000000E+00 0.  1.
         21   -1    0    0  501  502 -0.00000000000E+00 -0.00000000000E+00 -0.35972224312E+02  0.35972224312E+02  0.00000000000E+00 0.  1.
      99926    2    1    2    0    0  0.14210854715E-13  0.00000000000E+00  0.14231022746E+04  0.14950467233E+04  0.45819714170E+03 0.  0.
      99925    2    3    3    0    0  0.63990958318E+02  0.85123269638E+02  0.10442156072E+04  0.10820776825E+04  0.26299251477E+03 0.  0.
         25    1    4    4    0    0  0.37469485777E+02  0.11821611279E+02  0.38948425946E+03  0.41096132339E+03  0.12509000000E+03 0.  0.
         25    1    3    3    0    0 -0.63990958318E+02 -0.85123269638E+02  0.37888666743E+03  0.41296904077E+03  0.12509000000E+03 0.  0.
         25    1    4    4    0    0  0.26521472541E+02  0.73301658359E+02  0.65473134775E+03  0.67111635910E+03  0.12509000000E+03 0.  0.
<mgrwt>
<rscale>  2 0.45819714E+03</rscale>
<asrwt>0</asrwt>
<pdfrwt beam="1">  1       21 0.21456974E+00 0.45819714E+03</pdfrwt>
<pdfrwt beam="2">  1       21 0.52900340E-02 0.45819714E+03</pdfrwt>
<totfact> 0.23316364E+04</totfact>
</mgrwt>
</event>
<event>
 7    0  0.4709932E-002  0.4601996E+03  0.7546771E-02  0.1024723E+00
         21   -1    0    0  502  501  0.00000000000E+00  0.00000000000E+00  0.17376601685E+04  0.17376601685E+04  0.00000000000E+00 0. -1.
         21   -1    0    0  501  502 -0.00000000000E+00 -0.00000000000E+00 -0.30469664686E+02  0.30469664686E+02  0.00000000000E+00 0. -1.
      99926    2    1    2    0    0  0.14210854715E-13  0.00000000000E+00  0.17071905038E+04  0.17681298331E+04  0.46019962047E+03 0.  0.
      99925    2    3    3    0    0  0.93350929737E+02  0.63925154842E+02  0.94215391211E+03  0.98472105339E+03  0.26309834167E+03 0.  0.
         25    1    4    4    0    0  0.15258581816E+02  0.19089044197E+02  0.33847953915E+03  0.36168096778E+03  0.12509000000E+03 0.  0.
         25    1    4    4    0    0  0.78092347921E+02  0.44836110645E+02  0.60367437296E+03  0.62304008562E+03  0.12509000000E+03 0.  0.
         25    1    3    3    0    0 -0.93350929737E+02 -0.63925154842E+02  0.76503659167E+03  0.78340877976E+03  0.12509000000E+03 0.  0.
<mgrwt>
<rscale>  2 0.46019962E+03</rscale>
<asrwt>0</asrwt>
<pdfrwt beam="1">  1       21 0.25553819E+00 0.46019962E+03</pdfrwt>
<pdfrwt beam="2">  1       21 0.44808342E-02 0.46019962E+03</pdfrwt>
<totfact> 0.17176073E+04</totfact>
</mgrwt>
</event>
<event>
 7    0  0.4709932E-002  0.4474242E+03  0.7546771E-02  0.1028493E+00
         21   -1    0    0  502  501  0.00000000000E+00  0.00000000000E+00  0.27456953858E+03  0.27456953858E+03  0.00000000000E+00 0. -1.
         21   -1    0    0  501  502 -0.00000000000E+00 -0.00000000000E+00 -0.18227475656E+03  0.18227475656E+03  0.00000000000E+00 0. -1.
      99926    2    1    2    0    0  0.00000000000E+00  0.00000000000E+00  0.92294782019E+02  0.45684429514E+03  0.44742416477E+03 0.  0.
      99925    2    3    3    0    0 -0.60594352109E+02 -0.74545029155E+02  0.13090995717E+02  0.28035241220E+03  0.26305410846E+03 0.  0.
         25    1    4    4    0    0 -0.70999839210E+01 -0.23571209119E+01  0.15863963563E+02  0.12631365417E+03  0.12509000000E+03 0.  0.
         25    1    3    3    0    0  0.60594352109E+02  0.74545029155E+02  0.79203786302E+02  0.17649188294E+03  0.12509000000E+03 0.  0.
         25    1    4    4    0    0 -0.53494368188E+02 -0.72187908243E+02 -0.27729678466E+01  0.15403875803E+03  0.12509000000E+03 0.  0.
<mgrwt>
<rscale>  2 0.44742416E+03</rscale>
<asrwt>0</asrwt>
<pdfrwt beam="1">  1       21 0.40377873E-01 0.44742416E+03</pdfrwt>
<pdfrwt beam="2">  1       21 0.26805111E-01 0.44742416E+03</pdfrwt>
<totfact> 0.72698751E+04</totfact>
</mgrwt>
</event>
<event>
 7    0  0.4709932E-002  0.4501707E+03  0.7546771E-02  0.1027671E+00
         21   -1    0    0  502  501  0.00000000000E+00  0.00000000000E+00  0.82846976173E+02  0.82846976173E+02  0.00000000000E+00 0. -1.
         21   -1    0    0  501  502 -0.00000000000E+00 -0.00000000000E+00 -0.61153001184E+03  0.61153001184E+03  0.00000000000E+00 0. -1.
      99926    2    1    2    0    0  0.00000000000E+00  0.00000000000E+00 -0.52868303567E+03  0.69437698801E+03  0.45017068905E+03 0.  0.
      99925    2    3    3    0    0  0.19383086226E+02 -0.22604961977E+02 -0.17372959140E+03  0.31685063922E+03  0.26329768003E+03 0.  0.
         25    1    4    4    0    0  0.15375530029E+02 -0.29745359473E+02 -0.44799925884E+02  0.13702457733E+03  0.12509000000E+03 0.  0.
         25    1    4    4    0    0  0.40075561962E+01  0.71403974957E+01 -0.12892966552E+03  0.17982606188E+03  0.12509000000E+03 0.  0.
         25    1    3    3    0    0 -0.19383086226E+02  0.22604961977E+02 -0.35495344427E+03  0.37752634880E+03  0.12509000000E+03 0.  0.
<mgrwt>
<rscale>  2 0.45017069E+03</rscale>
<asrwt>0</asrwt>
<pdfrwt beam="1">  1       21 0.12183379E-01 0.45017069E+03</pdfrwt>
<pdfrwt beam="2">  1       21 0.89930886E-01 0.45017069E+03</pdfrwt>
<totfact> 0.55280857E+04</totfact>
</mgrwt>
</event>
<event>
 7    0  0.4709932E-002  0.4545764E+03  0.7546771E-02  0.1026366E+00
         21   -1    0    0  502  501  0.00000000000E+00  0.00000000000E+00  0.20997010167E+03  0.20997010167E+03  0.00000000000E+00 0. -1.
         21   -1    0    0  501  502 -0.00000000000E+00 -0.00000000000E+00 -0.24603462997E+03  0.24603462997E+03  0.00000000000E+00 0. -1.
      99926    2    1    2    0    0  0.00000000000E+00  0.00000000000E+00 -0.36064528303E+02  0.45600473164E+03  0.45457635781E+03 0.  0.
      99925    2    3    3    0    0 -0.39216248401E+02  0.95223802984E+02 -0.68835409183E+02  0.29069615495E+03  0.26298375264E+03 0.  0.
         25    1    3    3    0    0  0.39216248401E+02 -0.95223802984E+02  0.32770880880E+02  0.16530857669E+03  0.12509000000E+03 0.  0.
         25    1    4    4    0    0  0.18266972066E+02  0.31108529178E+02 -0.24295958210E+02  0.13243573740E+03  0.12509000000E+03 0.  0.
         25    1    4    4    0    0 -0.57483220467E+02  0.64115273806E+02 -0.44539450974E+02  0.15826041755E+03  0.12509000000E+03 0.  0.
<mgrwt>
<rscale>  2 0.45457636E+03</rscale>
<asrwt>0</asrwt>
<pdfrwt beam="1">  1       21 0.30877956E-01 0.45457636E+03</pdfrwt>
<pdfrwt beam="2">  1       21 0.36181563E-01 0.45457636E+03</pdfrwt>
<totfact> 0.68704217E+04</totfact>
</mgrwt>
</event>
<event>
 7    0  0.4709932E-002  0.4504984E+03  0.7546771E-02  0.1027574E+00
         21   -1    0    0  502  501  0.00000000000E+00  0.00000000000E+00  0.86967080446E+03  0.86967080446E+03  0.00000000000E+00 0.  1.
         21   -1    0    0  501  502 -0.00000000000E+00 -0.00000000000E+00 -0.58340689234E+02  0.58340689234E+02  0.00000000000E+00 0.  1.
      99926    2    1    2    0    0  0.00000000000E+00  0.00000000000E+00  0.81133011523E+03  0.92801149369E+03  0.45049836465E+03 0.  0.
      99925    2    3    3    0    0  0.19509769999E+02  0.45123262607E+02  0.31234132380E+03  0.41123875639E+03  0.26295146368E+03 0.  0.
         25    1    4    4    0    0  0.34682516192E+02  0.17784471378E+02  0.20584876980E+03  0.24400899262E+03  0.12509000000E+03 0.  0.
         25    1    4    4    0    0 -0.15172746194E+02  0.27338791229E+02  0.10649255401E+03  0.16722976377E+03  0.12509000000E+03 0.  0.
         25    1    3    3    0    0 -0.19509769999E+02 -0.45123262607E+02  0.49898879142E+03  0.51677273730E+03  0.12509000000E+03 0.  0.
<mgrwt>
<rscale>  2 0.45049836E+03</rscale>
<asrwt>0</asrwt>
<pdfrwt beam="1">  1       21 0.12789276E+00 0.45049836E+03</pdfrwt>
<pdfrwt beam="2">  1       21 0.85795136E-02 0.45049836E+03</pdfrwt>
<totfact> 0.43557856E+04</totfact>
</mgrwt>
</event>
<event>
 7    0  0.4709932E-002  0.4533554E+03  0.7546771E-02  0.1026726E+00
         21   -1    0    0  502  501  0.00000000000E+00  0.00000000000E+00  0.28076099289E+03  0.28076099289E+03  0.00000000000E+00 0. -1.
         21   -1    0    0  501  502 -0.00000000000E+00 -0.00000000000E+00 -0.18301252528E+03  0.18301252528E+03  0.00000000000E+00 0. -1.
      99926    2    1    2    0    0  0.00000000000E+00  0.00000000000E+00  0.97748467606E+02  0.46377351817E+03  0.45335539396E+03 0.  0.
      99925    2    3    3    0    0  0.98768903337E+02 -0.51631034822E+02  0.68248132440E+02  0.29365932741E+03  0.26297705788E+03 0.  0.
         25    1    3    3    0    0 -0.98768903337E+02  0.51631034822E+02  0.29500335167E+02  0.17011419076E+03  0.12509000000E+03 0.  0.
         25    1    4    4    0    0  0.72667453890E+02 -0.58288714612E+02  0.21558133687E+02  0.15744965651E+03  0.12509000000E+03 0.  0.
         25    1    4    4    0    0  0.26101449447E+02  0.66576797907E+01  0.46689998753E+02  0.13620967090E+03  0.12509000000E+03 0.  0.
<mgrwt>
<rscale>  2 0.45335539E+03</rscale>
<asrwt>0</asrwt>
<pdfrwt beam="1">  1       21 0.41288381E-01 0.45335539E+03</pdfrwt>
<pdfrwt beam="2">  1       21 0.26913607E-01 0.45335539E+03</pdfrwt>
<totfact> 0.68795275E+04</totfact>
</mgrwt>
</event>
<event>
 7    0  0.4709932E-002  0.4554797E+03  0.7546771E-02  0.1026100E+00
         21   -1    0    0  502  501  0.00000000000E+00  0.00000000000E+00  0.11639531513E+03  0.11639531513E+03  0.00000000000E+00 0.  1.
         21   -1    0    0  501  502 -0.00000000000E+00 -0.00000000000E+00 -0.44559728929E+03  0.44559728929E+03  0.00000000000E+00 0.  1.
      99926    2    1    2    0    0 -0.17763568394E-14  0.00000000000E+00 -0.32920197416E+03  0.56199260442E+03  0.45547968959E+03 0.  0.
      99925    2    3    3    0    0  0.72986181325E+01 -0.11127909546E+03 -0.23397423494E+03  0.36924370733E+03  0.26298415518E+03 0.  0.
         25    1    4    4    0    0 -0.23062608404E+02 -0.22371335799E+02 -0.10957616728E+03  0.16937179549E+03  0.12509000000E+03 0.  0.
         25    1    3    3    0    0 -0.72986181325E+01  0.11127909546E+03 -0.95227739217E+02  0.19274889709E+03  0.12509000000E+03 0.  0.
         25    1    4    4    0    0  0.30361226536E+02 -0.88907759661E+02 -0.12439806767E+03  0.19987191184E+03  0.12509000000E+03 0.  0.
<mgrwt>
<rscale>  2 0.45547969E+03</rscale>
<asrwt>0</asrwt>
<pdfrwt beam="1">  1       21 0.17116958E-01 0.45547969E+03</pdfrwt>
<pdfrwt beam="2">  1       21 0.65529013E-01 0.45547969E+03</pdfrwt>
<totfact> 0.60849720E+04</totfact>
</mgrwt>
</event>
<event>
 7    0  0.4709932E-002  0.4546199E+03  0.7546771E-02  0.1026353E+00
         21   -1    0    0  502  501  0.00000000000E+00  0.00000000000E+00  0.15381772366E+03  0.15381772366E+03  0.00000000000E+00 0. -1.
         21   -1    0    0  501  502 -0.00000000000E+00 -0.00000000000E+00 -0.33591579224E+03  0.33591579224E+03  0.00000000000E+00 0. -1.
      99926    2    1    2    0    0  0.00000000000E+00  0.00000000000E+00 -0.18209806857E+03  0.48973351590E+03  0.45461985220E+03 0.  0.
      99925    2    3    3    0    0 -0.90987343240E+02 -0.30264831857E+02 -0.17863596015E+03  0.33208152266E+03  0.26300698614E+03 0.  0.
         25    1    4    4    0    0 -0.58284779287E+02 -0.75988233766E+01 -0.46491280138E+02  0.14582113990E+03  0.12509000000E+03 0.  0.
         25    1    3    3    0    0  0.90987343240E+02  0.30264831857E+02 -0.34621084199E+01  0.15765199324E+03  0.12509000000E+03 0.  0.
         25    1    4    4    0    0 -0.32702563953E+02 -0.22666008480E+02 -0.13214468002E+03  0.18626038276E+03  0.12509000000E+03 0.  0.
<mgrwt>
<rscale>  2 0.45461985E+03</rscale>
<asrwt>0</asrwt>
<pdfrwt beam="1">  1       21 0.22620254E-01 0.45461985E+03</pdfrwt>
<pdfrwt beam="2">  1       21 0.49399381E-01 0.45461985E+03</pdfrwt>
<totfact> 0.66197655E+04</totfact>
</mgrwt>
</event>
<event>
 7    0  0.4709932E-002  0.4430575E+03  0.7546771E-02  0.1029813E+00
         21   -1    0    0  502  501  0.00000000000E+00  0.00000000000E+00  0.17609558172E+03  0.17609558172E+03  0.00000000000E+00 0. -1.
         21   -1    0    0  501  502 -0.00000000000E+00 -0.00000000000E+00 -0.27868375364E+03  0.27868375364E+03  0.00000000000E+00 0. -1.
      99926    2    1    2    0    0  0.00000000000E+00  0.00000000000E+00 -0.10258817193E+03  0.45477933536E+03  0.44305745773E+03 0.  0.
      99925    2    3    3    0    0  0.55464200003E+02  0.84680809774E+02 -0.57216864603E+02  0.28758728814E+03  0.26303148419E+03 0.  0.
         25    1    3    3    0    0 -0.55464200003E+02 -0.84680809774E+02 -0.45371307325E+02  0.16719204722E+03  0.12509000000E+03 0.  0.
         25    1    4    4    0    0  0.51806088932E+01  0.74156992218E+02 -0.42321185347E+02  0.15154104735E+03  0.12509000000E+03 0.  0.
         25    1    4    4    0    0  0.50283591110E+02  0.10523817555E+02 -0.14895679255E+02  0.13604624078E+03  0.12509000000E+03 0.  0.
<mgrwt>
<rscale>  2 0.44305746E+03</rscale>
<asrwt>0</asrwt>
<pdfrwt beam="1">  1       21 0.25896409E-01 0.44305746E+03</pdfrwt>
<pdfrwt beam="2">  1       21 0.40982905E-01 0.44305746E+03</pdfrwt>
<totfact> 0.75485978E+04</totfact>
</mgrwt>
</event>
<event>
 7    0  0.4709932E-002  0.4542358E+03  0.7546771E-02  0.1026466E+00
         21   -1    0    0  502  501  0.00000000000E+00  0.00000000000E+00  0.35854769633E+02  0.35854769633E+02  0.00000000000E+00 0. -1.
         21   -1    0    0  501  502 -0.00000000000E+00 -0.00000000000E+00 -0.14386522643E+04  0.14386522643E+04  0.00000000000E+00 0. -1.
      99926    2    1    2    0    0  0.00000000000E+00  0.00000000000E+00 -0.14027974947E+04  0.14745070339E+04  0.45423582210E+03 0.  0.
      99925    2    3    3    0    0 -0.28809435756E+02  0.91315649045E+02 -0.69214522165E+03  0.74660409219E+03  0.26302876512E+03 0.  0.
         25    1    4    4    0    0 -0.32495157135E+02  0.13088445474E+02 -0.27541915450E+03  0.30451676704E+03  0.12509000000E+03 0.  0.
         25    1    3    3    0    0  0.28809435756E+02 -0.91315649045E+02 -0.71065227303E+03  0.72790294175E+03  0.12509000000E+03 0.  0.
         25    1    4    4    0    0  0.36857213790E+01  0.78227203572E+02 -0.41672606715E+03  0.44208732515E+03  0.12509000000E+03 0.  0.
<mgrwt>
<rscale>  2 0.45423582E+03</rscale>
<asrwt>0</asrwt>
<pdfrwt beam="1">  1       21 0.52727599E-02 0.45423582E+03</pdfrwt>
<pdfrwt beam="2">  1       21 0.21156652E+00 0.45423582E+03</pdfrwt>
<totfact> 0.24556324E+04</totfact>
</mgrwt>
</event>
<event>
 7    0  0.4709932E-002  0.4472298E+03  0.7546771E-02  0.1028551E+00
         21   -1    0    0  502  501  0.00000000000E+00  0.00000000000E+00  0.97694595417E+02  0.97694595417E+02  0.00000000000E+00 0. -1.
         21   -1    0    0  501  502 -0.00000000000E+00 -0.00000000000E+00 -0.51183601589E+03  0.51183601589E+03  0.00000000000E+00 0. -1.
      99926    2    1    2    0    0  0.00000000000E+00  0.00000000000E+00 -0.41414142047E+03  0.60953061130E+03  0.44722975076E+03 0.  0.
      99925    2    3    3    0    0  0.73183052301E+02 -0.26188534061E+02 -0.36011548662E+03  0.45266153185E+03  0.26301653988E+03 0.  0.
         25    1    3    3    0    0 -0.73183052301E+02  0.26188534061E+02 -0.54025933845E+02  0.15686907945E+03  0.12509000000E+03 0.  0.
         25    1    4    4    0    0  0.15469333943E+02 -0.68097324645E+01 -0.22904735854E+03  0.26152604708E+03  0.12509000000E+03 0.  0.
         25    1    4    4    0    0  0.57713718358E+02 -0.19378801596E+02 -0.13106812808E+03  0.19113548477E+03  0.12509000000E+03 0.  0.
<mgrwt>
<rscale>  2 0.44722975E+03</rscale>
<asrwt>0</asrwt>
<pdfrwt beam="1">  1       21 0.14366852E-01 0.44722975E+03</pdfrwt>
<pdfrwt beam="2">  1       21 0.75270002E-01 0.44722975E+03</pdfrwt>
<totfact> 0.61802082E+04</totfact>
</mgrwt>
</event>
<event>
 7    0  0.4709932E-002  0.4554152E+03  0.7546771E-02  0.1026119E+00
         21   -1    0    0  502  501  0.00000000000E+00  0.00000000000E+00  0.13620718156E+03  0.13620718156E+03  0.00000000000E+00 0.  1.
         21   -1    0    0  501  502 -0.00000000000E+00 -0.00000000000E+00 -0.38067553969E+03  0.38067553969E+03  0.00000000000E+00 0.  1.
      99926    2    1    2    0    0 -0.14210854715E-13 -0.35527136788E-14 -0.24446835813E+03  0.51688272125E+03  0.45541516158E+03 0.  0.
      99925    2    3    3    0    0  0.93364115152E+02  0.29529683797E+02 -0.88425549439E+02  0.29420419407E+03  0.26296039586E+03 0.  0.
         25    1    4    4    0    0  0.66963974830E+02  0.23398200520E+01 -0.11099556166E+02  0.14233888060E+03  0.12509000000E+03 0.  0.
         25    1    3    3    0    0 -0.93364115152E+02 -0.29529683797E+02 -0.15604280869E+03  0.22267852718E+03  0.12509000000E+03 0.  0.
         25    1    4    4    0    0  0.26400140322E+02  0.27189863745E+02 -0.77325993273E+02  0.15186531347E+03  0.12509000000E+03 0.  0.
<mgrwt>
<rscale>  2 0.45541516E+03</rscale>
<asrwt>0</asrwt>
<pdfrwt beam="1">  1       21 0.20030468E-01 0.45541516E+03</pdfrwt>
<pdfrwt beam="2">  1       21 0.55981697E-01 0.45541516E+03</pdfrwt>
<totfact> 0.63889432E+04</totfact>
</mgrwt>
</event>
<event>
 7    0  0.4709932E-002  0.4589141E+03  0.7546771E-02  0.1025097E+00
         21   -1    0    0  502  501  0.00000000000E+00  0.00000000000E+00  0.17777486471E+03  0.17777486471E+03  0.00000000000E+00 0.  1.
         21   -1    0    0  501  502 -0.00000000000E+00 -0.00000000000E+00 -0.29616418769E+03  0.29616418769E+03  0.00000000000E+00 0.  1.
      99926    2    1    2    0    0  0.00000000000E+00 -0.71054273576E-14 -0.11838932298E+03  0.47393905240E+03  0.45891414621E+03 0.  0.
      99925    2    3    3    0    0  0.14394186200E+02  0.47603968503E+02 -0.18339086737E+03  0.32445313571E+03  0.26299105807E+03 0.  0.
         25    1    4    4    0    0  0.85745507879E+01  0.38386122430E+02 -0.13946149858E+03  0.19142631742E+03  0.12509000000E+03 0.  0.
         25    1    3    3    0    0 -0.14394186200E+02 -0.47603968503E+02  0.65001544389E+02  0.14948591668E+03  0.12509000000E+03 0.  0.
         25    1    4    4    0    0  0.58196354125E+01  0.92178460732E+01 -0.43929368789E+02  0.13302681829E+03  0.12509000000E+03 0.  0.
<mgrwt>
<rscale>  2 0.45891415E+03</rscale>
<asrwt>0</asrwt>
<pdfrwt beam="1">  1       21 0.26143363E-01 0.45891415E+03</pdfrwt>
<pdfrwt beam="2">  1       21 0.43553556E-01 0.45891415E+03</pdfrwt>
<totfact> 0.65098793E+04</totfact>
</mgrwt>
</event>
<event>
 7    0  0.4709932E-002  0.4671861E+03  0.7546771E-02  0.1022717E+00
         21   -1    0    0  502  501  0.00000000000E+00  0.00000000000E+00  0.72945680780E+02  0.72945680780E+02  0.00000000000E+00 0. -1.
         21   -1    0    0  501  502 -0.00000000000E+00 -0.00000000000E+00 -0.74803202006E+03  0.74803202006E+03  0.00000000000E+00 0. -1.
      99926    2    1    2    0    0  0.00000000000E+00  0.00000000000E+00 -0.67508633928E+03  0.82097770084E+03  0.46718606550E+03 0.  0.
      99925    2    3    3    0    0  0.88907364065E+02 -0.29257742376E+02 -0.27705479976E+03  0.39338309210E+03  0.26311662852E+03 0.  0.
         25    1    4    4    0    0  0.72461829623E+02 -0.37784348890E+02 -0.18025643425E+03  0.23413300486E+03  0.12509000000E+03 0.  0.
         25    1    4    4    0    0  0.16445534442E+02  0.85266065139E+01 -0.96798365512E+02  0.15925008724E+03  0.12509000000E+03 0.  0.
         25    1    3    3    0    0 -0.88907364065E+02  0.29257742376E+02 -0.39803153952E+03  0.42759460874E+03  0.12509000000E+03 0.  0.
<mgrwt>
<rscale>  2 0.46718607E+03</rscale>
<asrwt>0</asrwt>
<pdfrwt beam="1">  1       21 0.10727306E-01 0.46718607E+03</pdfrwt>
<pdfrwt beam="2">  1       21 0.11000471E+00 0.46718607E+03</pdfrwt>
<totfact> 0.42549949E+04</totfact>
</mgrwt>
</event>
<event>
 7    0  0.4709932E-002  0.4492411E+03  0.7546771E-02  0.1027949E+00
         21   -1    0    0  502  501  0.00000000000E+00  0.00000000000E+00  0.22122581850E+03  0.22122581850E+03  0.00000000000E+00 0.  1.
         21   -1    0    0  501  502 -0.00000000000E+00 -0.00000000000E+00 -0.22806740018E+03  0.22806740018E+03  0.00000000000E+00 0.  1.
      99926    2    1    2    0    0  0.00000000000E+00  0.14210854715E-13 -0.68415816878E+01  0.44929321868E+03  0.44924112580E+03 0.  0.
      99925    2    3    3    0    0  0.52645624609E+02  0.93667617099E+02 -0.10821515412E+02  0.28434312848E+03  0.26303749777E+03 0.  0.
         25    1    3    3    0    0 -0.52645624609E+02 -0.93667617099E+02  0.39799337243E+01  0.16495009020E+03  0.12509000000E+03 0.  0.
         25    1    4    4    0    0  0.38956518915E+02  0.11817204800E+02  0.13623797661E+02  0.13225117261E+03  0.12509000000E+03 0.  0.
         25    1    4    4    0    0  0.13689105694E+02  0.81850412299E+02 -0.24445313073E+02  0.15209195587E+03  0.12509000000E+03 0.  0.
<mgrwt>
<rscale>  2 0.44924113E+03</rscale>
<asrwt>0</asrwt>
<pdfrwt beam="1">  1       21 0.32533209E-01 0.44924113E+03</pdfrwt>
<pdfrwt beam="2">  1       21 0.33539323E-01 0.44924113E+03</pdfrwt>
<totfact> 0.72228154E+04</totfact>
</mgrwt>
</event>
<event>
 7    0  0.4709932E-002  0.4546023E+03  0.7546771E-02  0.1026358E+00
         21   -1    0    0  502  501  0.00000000000E+00  0.00000000000E+00  0.10081833544E+04  0.10081833544E+04  0.00000000000E+00 0. -1.
         21   -1    0    0  501  502 -0.00000000000E+00 -0.00000000000E+00 -0.51246434924E+02  0.51246434924E+02  0.00000000000E+00 0. -1.
      99926    2    1    2    0    0  0.00000000000E+00  0.00000000000E+00  0.95693691945E+03  0.10594297893E+04  0.45460225544E+03 0.  0.
      99925    2    3    3    0    0  0.97047748363E+02 -0.14810422943E+02  0.47337334328E+03  0.55039260560E+03  0.26308189615E+03 0.  0.
         25    1    4    4    0    0  0.87839345197E+02  0.83897262914E+01  0.24878635660E+03  0.29211007754E+03  0.12509000000E+03 0.  0.
         25    1    3    3    0    0 -0.97047748363E+02  0.14810422943E+02  0.48356357617E+03  0.50903718370E+03  0.12509000000E+03 0.  0.
         25    1    4    4    0    0  0.92084031661E+01 -0.23200149234E+02  0.22458698668E+03  0.25828252806E+03  0.12509000000E+03 0.  0.
<mgrwt>
<rscale>  2 0.45460226E+03</rscale>
<asrwt>0</asrwt>
<pdfrwt beam="1">  1       21 0.14826224E+00 0.45460226E+03</pdfrwt>
<pdfrwt beam="2">  1       21 0.75362411E-02 0.45460226E+03</pdfrwt>
<totfact> 0.37048146E+04</totfact>
</mgrwt>
</event>
<event>
 7    0  0.4709932E-002  0.4682138E+03  0.7546771E-02  0.1022426E+00
         21   -1    0    0  502  501  0.00000000000E+00  0.00000000000E+00  0.49652469315E+02  0.49652469315E+02  0.00000000000E+00 0. -1.
         21   -1    0    0  501  502 -0.00000000000E+00 -0.00000000000E+00 -0.11037930006E+04  0.11037930006E+04  0.00000000000E+00 0. -1.
      99926    2    1    2    0    0 -0.14210854715E-13  0.00000000000E+00 -0.10541405313E+04  0.11534454699E+04  0.46821383189E+03 0.  0.
      99925    2    3    3    0    0  0.10893626157E+03  0.30486495734E+02 -0.78782452414E+03  0.83821815627E+03  0.26295562584E+03 0.  0.
         25    1    4    4    0    0  0.62112501885E+02 -0.22097132771E+02 -0.35089824477E+03  0.37831644486E+03  0.12509000000E+03 0.  0.
         25    1    4    4    0    0  0.46823759686E+02  0.52583628504E+02 -0.43692627937E+03  0.45990171141E+03  0.12509000000E+03 0.  0.
         25    1    3    3    0    0 -0.10893626157E+03 -0.30486495734E+02 -0.26631600717E+03  0.31522731367E+03  0.12509000000E+03 0.  0.
<mgrwt>
<rscale>  2 0.46821383E+03</rscale>
<asrwt>0</asrwt>
<pdfrwt beam="1">  1       21 0.73018346E-02 0.46821383E+03</pdfrwt>
<pdfrwt beam="2">  1       21 0.16232248E+00 0.46821383E+03</pdfrwt>
<totfact> 0.30412778E+04</totfact>
</mgrwt>
</event>
<event>
 7    0  0.4709932E-002  0.4621907E+03  0.7546771E-02  0.1024148E+00
         21   -1    0    0  502  501  0.00000000000E+00  0.00000000000E+00  0.40331274995E+03  0.40331274995E+03  0.00000000000E+00 0. -1.
         21   -1    0    0  501  502 -0.00000000000E+00 -0.00000000000E+00 -0.13241601417E+03  0.13241601417E+03  0.00000000000E+00 0. -1.
      99926    2    1    2    0    0  0.14210854715E-13 -0.71054273576E-14  0.27089673579E+03  0.53572876412E+03  0.46219072605E+03 0.  0.
      99925    2    3    3    0    0 -0.10505772214E+03  0.56540091897E+02  0.18153815010E+03  0.34113592790E+03  0.26302797264E+03 0.  0.
         25    1    3    3    0    0  0.10505772214E+03 -0.56540091897E+02  0.89358585683E+02  0.19459283622E+03  0.12509000000E+03 0.  0.
         25    1    4    4    0    0 -0.13673006627E+02  0.74605478524E+01  0.72128948257E+02  0.14523327498E+03  0.12509000000E+03 0.  0.
         25    1    4    4    0    0 -0.91384715513E+02  0.49079544045E+02  0.10940920185E+03  0.19590265292E+03  0.12509000000E+03 0.  0.
<mgrwt>
<rscale>  2 0.46219073E+03</rscale>
<asrwt>0</asrwt>
<pdfrwt beam="1">  1       21 0.59310698E-01 0.46219073E+03</pdfrwt>
<pdfrwt beam="2">  1       21 0.19472943E-01 0.46219073E+03</pdfrwt>
<totfact> 0.59364275E+04</totfact>
</mgrwt>
</event>
<event>
 7    0  0.4709932E-002  0.4450842E+03  0.7546771E-02  0.1029198E+00
         21   -1    0    0  502  501  0.00000000000E+00  0.00000000000E+00  0.21322497960E+03  0.21322497960E+03  0.00000000000E+00 0.  1.
         21   -1    0    0  501  502 -0.00000000000E+00 -0.00000000000E+00 -0.23226631543E+03  0.23226631543E+03  0.00000000000E+00 0.  1.
      99926    2    1    2    0    0 -0.17763568394E-14  0.00000000000E+00 -0.19041335835E+02  0.44549129503E+03  0.44508417347E+03 0.  0.
      99925    2    3    3    0    0  0.60270385087E+01  0.71634453468E+02 -0.86788307598E+02  0.28610189639E+03  0.26297198456E+03 0.  0.
         25    1    4    4    0    0  0.40422440335E+02  0.22303254676E+02 -0.51080049283E+02  0.14278686349E+03  0.12509000000E+03 0.  0.
         25    1    3    3    0    0 -0.60270385087E+01 -0.71634453468E+02  0.67746971763E+02  0.15938939864E+03  0.12509000000E+03 0.  0.
         25    1    4    4    0    0 -0.34395401826E+02  0.49331198791E+02 -0.35708258315E+02  0.14331503289E+03  0.12509000000E+03 0.  0.
<mgrwt>
<rscale>  2 0.44508417E+03</rscale>
<asrwt>0</asrwt>
<pdfrwt beam="1">  1       21 0.31356615E-01 0.44508417E+03</pdfrwt>
<pdfrwt beam="2">  1       21 0.34156811E-01 0.44508417E+03</pdfrwt>
<totfact> 0.75009273E+04</totfact>
</mgrwt>
</event>
<event>
 7    0  0.4709932E-002  0.4499001E+03  0.7546771E-02  0.1027752E+00
         21   -1    0    0  502  501  0.00000000000E+00  0.00000000000E+00  0.94889865264E+02  0.94889865264E+02  0.00000000000E+00 0.  1.
         21   -1    0    0  501  502 -0.00000000000E+00 -0.00000000000E+00 -0.53327642395E+03  0.53327642395E+03  0.00000000000E+00 0.  1.
      99926    2    1    2    0    0  0.00000000000E+00  0.00000000000E+00 -0.43838655869E+03  0.62816628921E+03  0.44990011343E+03 0.  0.
      99925    2    3    3    0    0  0.44005788067E+02 -0.75920125829E+02 -0.18855171531E+03  0.33530910226E+03  0.26302104444E+03 0.  0.
         25    1    4    4    0    0  0.38826760189E+02 -0.71311213441E+02 -0.12622787925E+03  0.19538114563E+03  0.12509000000E+03 0.  0.
         25    1    4    4    0    0  0.51790278777E+01 -0.46089123875E+01 -0.62323836066E+02  0.13992795662E+03  0.12509000000E+03 0.  0.
         25    1    3    3    0    0 -0.44005788067E+02  0.75920125829E+02 -0.24983484338E+03  0.29285718696E+03  0.12509000000E+03 0.  0.
<mgrwt>
<rscale>  2 0.44990011E+03</rscale>
<asrwt>0</asrwt>
<pdfrwt beam="1">  1       21 0.13954392E-01 0.44990011E+03</pdfrwt>
<pdfrwt beam="2">  1       21 0.78423003E-01 0.44990011E+03</pdfrwt>
<totfact> 0.59329975E+04</totfact>
</mgrwt>
</event>
<event>
 7    0  0.4709932E-002  0.4572172E+03  0.7546771E-02  0.1025591E+00
         21   -1    0    0  502  501  0.00000000000E+00  0.00000000000E+00  0.12333652522E+03  0.12333652522E+03  0.00000000000E+00 0.  1.
         21   -1    0    0  501  502 -0.00000000000E+00 -0.00000000000E+00 -0.42373410286E+03  0.42373410286E+03  0.00000000000E+00 0.  1.
      99926    2    1    2    0    0 -0.35527136788E-14  0.00000000000E+00 -0.30039757764E+03  0.54707062808E+03  0.45721719943E+03 0.  0.
      99925    2    3    3    0    0  0.11247943160E+02  0.11396649301E+03 -0.20384969258E+03  0.35191971221E+03  0.26301693658E+03 0.  0.
         25    1    4    4    0    0 -0.21087829422E+02  0.84113911703E+02 -0.87874278132E+02  0.17575335999E+03  0.12509000000E+03 0.  0.
         25    1    4    4    0    0  0.32335772582E+02  0.29852581306E+02 -0.11597541444E+03  0.17616635222E+03  0.12509000000E+03 0.  0.
         25    1    3    3    0    0 -0.11247943160E+02 -0.11396649301E+03 -0.96547885060E+02  0.19515091587E+03  0.12509000000E+03 0.  0.
<mgrwt>
<rscale>  2 0.45721720E+03</rscale>
<asrwt>0</asrwt>
<pdfrwt beam="1">  1       21 0.18137724E-01 0.45721720E+03</pdfrwt>
<pdfrwt beam="2">  1       21 0.62313838E-01 0.45721720E+03</pdfrwt>
<totfact> 0.60983566E+04</totfact>
</mgrwt>
</event>
<event>
 7    0  0.4709932E-002  0.4551783E+03  0.7546771E-02  0.1026189E+00
         21   -1    0    0  502  501  0.00000000000E+00  0.00000000000E+00  0.14087980669E+03  0.14087980669E+03  0.00000000000E+00 0.  1.
         21   -1    0    0  501  502 -0.00000000000E+00 -0.00000000000E+00 -0.36766668326E+03  0.36766668326E+03  0.00000000000E+00 0.  1.
      99926    2    1    2    0    0  0.00000000000E+00 -0.35527136788E-14 -0.22678687657E+03  0.50854648996E+03  0.45517825636E+03 0.  0.
      99925    2    3    3    0    0  0.77080575889E+02  0.22965325064E+02 -0.53505009492E+02  0.28019821453E+03  0.26301983204E+03 0.  0.
         25    1    4    4    0    0  0.39708530402E+02  0.40679724616E+02  0.15449879921E+01  0.13740997951E+03  0.12509000000E+03 0.  0.
         25    1    3    3    0    0 -0.77080575889E+02 -0.22965325064E+02 -0.17328186708E+03  0.22834827543E+03  0.12509000000E+03 0.  0.
         25    1    4    4    0    0  0.37372045487E+02 -0.17714399553E+02 -0.55049997484E+02  0.14278823501E+03  0.12509000000E+03 0.  0.
<mgrwt>
<rscale>  2 0.45517826E+03</rscale>
<asrwt>0</asrwt>
<pdfrwt beam="1">  1       21 0.20717619E-01 0.45517826E+03</pdfrwt>
<pdfrwt beam="2">  1       21 0.54068629E-01 0.45517826E+03</pdfrwt>
<totfact> 0.64582902E+04</totfact>
</mgrwt>
</event>
<event>
 7    0  0.4709932E-002  0.4504939E+03  0.7546771E-02  0.1027575E+00
         21   -1    0    0  502  501  0.00000000000E+00  0.00000000000E+00  0.64711755010E+03  0.64711755010E+03  0.00000000000E+00 0.  1.
         21   -1    0    0  501  502 -0.00000000000E+00 -0.00000000000E+00 -0.78403367321E+02  0.78403367321E+02  0.00000000000E+00 0.  1.
      99926    2    1    2    0    0 -0.44408920985E-15  0.00000000000E+00  0.56871418278E+03  0.72552091742E+03  0.45049392884E+03 0.  0.
      99925    2    3    3    0    0 -0.36493071486E+01 -0.10818579290E+03  0.33982689794E+03  0.44311273678E+03  0.26296215262E+03 0.  0.
         25    1    4    4    0    0 -0.53571977164E+01 -0.97626037429E+02  0.18536653397E+03  0.24406516091E+03  0.12509000000E+03 0.  0.
         25    1    3    3    0    0  0.36493071486E+01  0.10818579290E+03  0.22888728484E+03  0.28240818064E+03  0.12509000000E+03 0.  0.
         25    1    4    4    0    0  0.17078905677E+01 -0.10559755474E+02  0.15446036396E+03  0.19904757588E+03  0.12509000000E+03 0.  0.
<mgrwt>
<rscale>  2 0.45049393E+03</rscale>
<asrwt>0</asrwt>
<pdfrwt beam="1">  1       21 0.95164343E-01 0.45049393E+03</pdfrwt>
<pdfrwt beam="2">  1       21 0.11529907E-01 0.45049393E+03</pdfrwt>
<totfact> 0.53406774E+04</totfact>
</mgrwt>
</event>
<event>
 7    0  0.4709932E-002  0.4488159E+03  0.7546771E-02  0.1028076E+00
         21   -1    0    0  502  501  0.00000000000E+00  0.00000000000E+00  0.32717822264E+03  0.32717822264E+03  0.00000000000E+00 0.  1.
         21   -1    0    0  501  502 -0.00000000000E+00 -0.00000000000E+00 -0.15391892167E+03  0.15391892167E+03  0.00000000000E+00 0.  1.
      99926    2    1    2    0    0  0.00000000000E+00  0.00000000000E+00  0.17325930098E+03  0.48109714431E+03  0.44881586078E+03 0.  0.
      99925    2    3    3    0    0  0.58113973361E+02  0.20316434462E+02  0.15519639609E+02  0.27057564831E+03  0.26302154063E+03 0.  0.
         25    1    3    3    0    0 -0.58113973361E+02 -0.20316434462E+02  0.15773966137E+03  0.21052149600E+03  0.12509000000E+03 0.  0.
         25    1    4    4    0    0  0.13891693586E+02  0.12739638864E+02  0.45333076925E+02  0.13437958741E+03  0.12509000000E+03 0.  0.
         25    1    4    4    0    0  0.44222279775E+02  0.75767955976E+01 -0.29813437316E+02  0.13619606090E+03  0.12509000000E+03 0.  0.
<mgrwt>
<rscale>  2 0.44881586E+03</rscale>
<asrwt>0</asrwt>
<pdfrwt beam="1">  1       21 0.48114444E-01 0.44881586E+03</pdfrwt>
<pdfrwt beam="2">  1       21 0.22635136E-01 0.44881586E+03</pdfrwt>
<totfact> 0.69993832E+04</totfact>
</mgrwt>
</event>
<event>
 7    0  0.4709932E-002  0.4437495E+03  0.7546771E-02  0.1029603E+00
         21   -1    0    0  502  501  0.00000000000E+00  0.00000000000E+00  0.26840198697E+02  0.26840198697E+02  0.00000000000E+00 0. -1.
         21   -1    0    0  501  502 -0.00000000000E+00 -0.00000000000E+00 -0.18341300664E+04  0.18341300664E+04  0.00000000000E+00 0. -1.
      99926    2    1    2    0    0  0.00000000000E+00  0.17763568394E-14 -0.18072898677E+04  0.18609702651E+04  0.44374954837E+03 0.  0.
      99925    2    3    3    0    0 -0.89725031892E+02  0.35076559617E+01 -0.13544397094E+04  0.13826569170E+04  0.26300254509E+03 0.  0.
         25    1    3    3    0    0  0.89725031892E+02 -0.35076559617E+01 -0.45285015835E+03  0.47831334815E+03  0.12509000000E+03 0.  0.
         25    1    4    4    0    0 -0.49130686173E+02 -0.38279680344E+02 -0.70631906232E+03  0.72000922504E+03  0.12509000000E+03 0.  0.
         25    1    4    4    0    0 -0.40594345719E+02  0.41787336306E+02 -0.64812064707E+03  0.66264769194E+03  0.12509000000E+03 0.  0.
<mgrwt>
<rscale>  2 0.44374955E+03</rscale>
<asrwt>0</asrwt>
<pdfrwt beam="1">  1       21 0.39470879E-02 0.44374955E+03</pdfrwt>
<pdfrwt beam="2">  1       21 0.26972502E+00 0.44374955E+03</pdfrwt>
<totfact> 0.17602915E+04</totfact>
</mgrwt>
</event>
<event>
 7    0  0.4709932E-002  0.4562275E+03  0.7546771E-02  0.1025881E+00
         21   -1    0    0  502  501  0.00000000000E+00  0.00000000000E+00  0.15615703560E+03  0.15615703560E+03  0.00000000000E+00 0. -1.
         21   -1    0    0  501  502 -0.00000000000E+00 -0.00000000000E+00 -0.33322790263E+03  0.33322790263E+03  0.00000000000E+00 0. -1.
      99926    2    1    2    0    0  0.00000000000E+00  0.35527136788E-14 -0.17707086703E+03  0.48938493823E+03  0.45622749349E+03 0.  0.
      99925    2    3    3    0    0  0.10915908338E+03 -0.24650352388E+02 -0.86546367747E+02  0.29868743319E+03  0.26306000004E+03 0.  0.
         25    1    3    3    0    0 -0.10915908338E+03  0.24650352388E+02 -0.90524499288E+02  0.19069750504E+03  0.12509000000E+03 0.  0.
         25    1    4    4    0    0  0.35302768852E+02 -0.34511442243E+01 -0.78022887583E+02  0.15163533550E+03  0.12509000000E+03 0.  0.
         25    1    4    4    0    0  0.73856314526E+02 -0.21199208164E+02 -0.85234801631E+01  0.14705209769E+03  0.12509000000E+03 0.  0.
<mgrwt>
<rscale>  2 0.45622749E+03</rscale>
<asrwt>0</asrwt>
<pdfrwt beam="1">  1       21 0.22964270E-01 0.45622749E+03</pdfrwt>
<pdfrwt beam="2">  1       21 0.49004103E-01 0.45622749E+03</pdfrwt>
<totfact> 0.65383565E+04</totfact>
</mgrwt>
</event>
<event>
 7    0  0.4709932E-002  0.4551467E+03  0.7546771E-02  0.1026198E+00
         21   -1    0    0  502  501  0.00000000000E+00  0.00000000000E+00  0.67661462098E+03  0.67661462098E+03  0.00000000000E+00 0. -1.
         21   -1    0    0  501  502 -0.00000000000E+00 -0.00000000000E+00 -0.76542293623E+02  0.76542293623E+02  0.00000000000E+00 0. -1.
      99926    2    1    2    0    0  0.00000000000E+00  0.00000000000E+00  0.60007232735E+03  0.75315691460E+03  0.45514672355E+03 0.  0.
      99925    2    3    3    0    0 -0.69056680258E+02 -0.88512350696E+02  0.35163632864E+03  0.45320489365E+03  0.26295114888E+03 0.  0.
         25    1    4    4    0    0 -0.39187464970E+02 -0.59367674508E+02  0.12318345724E+03  0.18942505226E+03  0.12509000000E+03 0.  0.
         25    1    3    3    0    0  0.69056680258E+02  0.88512350696E+02  0.24843599871E+03  0.29995202095E+03  0.12509000000E+03 0.  0.
         25    1    4    4    0    0 -0.29869215287E+02 -0.29144676188E+02  0.22845287140E+03  0.26377984139E+03  0.12509000000E+03 0.  0.
<mgrwt>
<rscale>  2 0.45514672E+03</rscale>
<asrwt>0</asrwt>
<pdfrwt beam="1">  1       21 0.99502147E-01 0.45514672E+03</pdfrwt>
<pdfrwt beam="2">  1       21 0.11256220E-01 0.45514672E+03</pdfrwt>
<totfact> 0.50052369E+04</totfact>
</mgrwt>
</event>
<event>
 7    0  0.4709932E-002  0.4524412E+03  0.7546771E-02  0.1026997E+00
         21   -1    0    0  502  501  0.00000000000E+00  0.00000000000E+00  0.37382858092E+03  0.37382858092E+03  0.00000000000E+00 0.  1.
         21   -1    0    0  501  502 -0.00000000000E+00 -0.00000000000E+00 -0.13689635386E+03  0.13689635386E+03  0.00000000000E+00 0.  1.
      99926    2    1    2    0    0 -0.14210854715E-13  0.00000000000E+00  0.23693222706E+03  0.51072493478E+03  0.45244124346E+03 0.  0.
      99925    2    3    3    0    0  0.93165693441E+02  0.44266246332E+02  0.19533839286E+03  0.34334243228E+03  0.26284518463E+03 0.  0.
         25    1    4    4    0    0  0.87731806037E+02  0.13281295492E+02  0.10467205864E+03  0.18567986041E+03  0.12509000000E+03 0.  0.
         25    1    3    3    0    0 -0.93165693441E+02 -0.44266246332E+02  0.41593834207E+02  0.16738250250E+03  0.12509000000E+03 0.  0.
         25    1    4    4    0    0  0.54338874036E+01  0.30984950840E+02  0.90666334216E+02  0.15766257188E+03  0.12509000000E+03 0.  0.
<mgrwt>
<rscale>  2 0.45244124E+03</rscale>
<asrwt>0</asrwt>
<pdfrwt beam="1">  1       21 0.54974791E-01 0.45244124E+03</pdfrwt>
<pdfrwt beam="2">  1       21 0.20131817E-01 0.45244124E+03</pdfrwt>
<totfact> 0.65850599E+04</totfact>
</mgrwt>
</event>
<event>
 7    0  0.4709932E-002  0.4530144E+03  0.7546771E-02  0.1026827E+00
         21   -1    0    0  502  501  0.00000000000E+00  0.00000000000E+00  0.20222477287E+03  0.20222477287E+03  0.00000000000E+00 0. -1.
         21   -1    0    0  501  502 -0.00000000000E+00 -0.00000000000E+00 -0.25370540965E+03  0.25370540965E+03  0.00000000000E+00 0. -1.
      99926    2    1    2    0    0  0.00000000000E+00  0.00000000000E+00 -0.51480636782E+02  0.45593018251E+03  0.45301443174E+03 0.  0.
      99925    2    3    3    0    0  0.85190491125E+02 -0.49018925265E+02  0.20073100394E+02  0.28149474971E+03  0.26301347864E+03 0.  0.
         25    1    4    4    0    0  0.50681426240E+02 -0.53622236094E+02  0.38760500972E+02  0.15031246025E+03  0.12509000000E+03 0.  0.
         25    1    4    4    0    0  0.34509064886E+02  0.46033108287E+01 -0.18687400578E+02  0.13118228947E+03  0.12509000000E+03 0.  0.
         25    1    3    3    0    0 -0.85190491125E+02  0.49018925265E+02 -0.71553737175E+02  0.17443543280E+03  0.12509000000E+03 0.  0.
<mgrwt>
<rscale>  2 0.45301443E+03</rscale>
<asrwt>0</asrwt>
<pdfrwt beam="1">  1       21 0.29738937E-01 0.45301443E+03</pdfrwt>
<pdfrwt beam="2">  1       21 0.37309619E-01 0.45301443E+03</pdfrwt>
<totfact> 0.69573274E+04</totfact>
</mgrwt>
</event>
<event>
 7    0  0.4709932E-002  0.4448899E+03  0.7546771E-02  0.1029257E+00
         21   -1    0    0  502  501  0.00000000000E+00  0.00000000000E+00  0.87531266874E+03  0.87531266874E+03  0.00000000000E+00 0.  1.
         21   -1    0    0  501  502 -0.00000000000E+00 -0.00000000000E+00 -0.56530377976E+02  0.56530377976E+02  0.00000000000E+00 0.  1.
      99926    2    1    2    0    0  0.00000000000E+00  0.00000000000E+00  0.81878229076E+03  0.93184304671E+03  0.44488990104E+03 0.  0.
      99925    2    3    3    0    0 -0.10576909731E+02  0.82549817150E+02  0.39253021567E+03  0.47988654112E+03  0.26322001976E+03 0.  0.
         25    1    4    4    0    0  0.17521013848E+02  0.52167878618E+02  0.25572487247E+03  0.28995032675E+03  0.12509000000E+03 0.  0.
         25    1    3    3    0    0  0.10576909731E+02 -0.82549817150E+02  0.42625207509E+03  0.45195650560E+03  0.12509000000E+03 0.  0.
         25    1    4    4    0    0 -0.28097923578E+02  0.30381938532E+02  0.13680534320E+03  0.18993621437E+03  0.12509000000E+03 0.  0.
<mgrwt>
<rscale>  2 0.44488990E+03</rscale>
<asrwt>0</asrwt>
<pdfrwt beam="1">  1       21 0.12872244E+00 0.44488990E+03</pdfrwt>
<pdfrwt beam="2">  1       21 0.83132914E-02 0.44488990E+03</pdfrwt>
<totfact> 0.45367453E+04</totfact>
</mgrwt>
</event>
<event>
 7    0  0.4709932E-002  0.4560483E+03  0.7546771E-02  0.1025934E+00
         21   -1    0    0  502  501  0.00000000000E+00  0.00000000000E+00  0.33680769554E+03  0.33680769554E+03  0.00000000000E+00 0. -1.
         21   -1    0    0  501  502 -0.00000000000E+00 -0.00000000000E+00 -0.15437598065E+03  0.15437598065E+03  0.00000000000E+00 0. -1.
      99926    2    1    2    0    0  0.00000000000E+00  0.00000000000E+00  0.18243171489E+03  0.49118367619E+03  0.45604832327E+03 0.  0.
      99925    2    3    3    0    0 -0.99818146888E+02 -0.72035852148E+01  0.17378885668E+03  0.33075375010E+03  0.26302076422E+03 0.  0.
         25    1    3    3    0    0  0.99818146888E+02  0.72035852148E+01  0.86428582148E+01  0.16042992609E+03  0.12509000000E+03 0.  0.
         25    1    4    4    0    0 -0.92129730189E+02  0.50849321329E+01  0.92876284251E+02  0.18107251585E+03  0.12509000000E+03 0.  0.
         25    1    4    4    0    0 -0.76884166990E+01 -0.12288517348E+02  0.80912572425E+02  0.14968123425E+03  0.12509000000E+03 0.  0.
<mgrwt>
<rscale>  2 0.45604832E+03</rscale>
<asrwt>0</asrwt>
<pdfrwt beam="1">  1       21 0.49530544E-01 0.45604832E+03</pdfrwt>
<pdfrwt beam="2">  1       21 0.22702350E-01 0.45604832E+03</pdfrwt>
<totfact> 0.65349028E+04</totfact>
</mgrwt>
</event>
<event>
 7    0  0.4709932E-002  0.4671106E+03  0.7546771E-02  0.1022739E+00
         21   -1    0    0  502  501  0.00000000000E+00  0.00000000000E+00  0.93818931025E+02  0.93818931025E+02  0.00000000000E+00 0.  1.
         21   -1    0    0  501  502 -0.00000000000E+00 -0.00000000000E+00 -0.58141878384E+03  0.58141878384E+03  0.00000000000E+00 0.  1.
      99926    2    1    2    0    0 -0.14210854715E-13  0.00000000000E+00 -0.48759985281E+03  0.67523771486E+03  0.46711064547E+03 0.  0.
      99925    2    3    3    0    0 -0.11734259256E+03 -0.21681541307E+02 -0.25338737157E+03  0.38413229112E+03  0.26289367385E+03 0.  0.
         25    1    4    4    0    0 -0.14891144263E+02 -0.93664581520E+01 -0.10339819631E+03  0.16324267768E+03  0.12509000000E+03 0.  0.
         25    1    3    3    0    0  0.11734259256E+03  0.21681541307E+02 -0.23421248125E+03  0.29110542375E+03  0.12509000000E+03 0.  0.
         25    1    4    4    0    0 -0.10245144830E+03 -0.12315083155E+02 -0.14998917525E+03  0.22088961344E+03  0.12509000000E+03 0.  0.
<mgrwt>
<rscale>  2 0.46711065E+03</rscale>
<asrwt>0</asrwt>
<pdfrwt beam="1">  1       21 0.13796901E-01 0.46711065E+03</pdfrwt>
<pdfrwt beam="2">  1       21 0.85502766E-01 0.46711065E+03</pdfrwt>
<totfact> 0.49382747E+04</totfact>
</mgrwt>
</event>
<event>
 7    0  0.4709932E-002  0.4514986E+03  0.7546771E-02  0.1027276E+00
         21   -1    0    0  502  501  0.00000000000E+00  0.00000000000E+00  0.50644154479E+03  0.50644154479E+03  0.00000000000E+00 0.  1.
         21   -1    0    0  501  502 -0.00000000000E+00 -0.00000000000E+00 -0.10062909521E+03  0.10062909521E+03  0.00000000000E+00 0.  1.
      99926    2    1    2    0    0  0.00000000000E+00  0.14210854715E-13  0.40581244958E+03  0.60707064000E+03  0.45149863535E+03 0.  0.
      99925    2    3    3    0    0  0.88752245758E+02  0.52409427587E+02  0.20521271365E+03  0.34917245974E+03  0.26303125209E+03 0.  0.
         25    1    3    3    0    0 -0.88752245758E+02 -0.52409427587E+02  0.20059973593E+03  0.25789818026E+03  0.12509000000E+03 0.  0.
         25    1    4    4    0    0  0.45210041427E+02 -0.12005509839E+02  0.11658421328E+03  0.17727793715E+03  0.12509000000E+03 0.  0.
         25    1    4    4    0    0  0.43542204330E+02  0.64414937427E+02  0.88628500365E+02  0.17189452260E+03  0.12509000000E+03 0.  0.
<mgrwt>
<rscale>  2 0.45149864E+03</rscale>
<asrwt>0</asrwt>
<pdfrwt beam="1">  1       21 0.74476697E-01 0.45149864E+03</pdfrwt>
<pdfrwt beam="2">  1       21 0.14798397E-01 0.45149864E+03</pdfrwt>
<totfact> 0.59884379E+04</totfact>
</mgrwt>
</event>
<event>
 7    0  0.4709932E-002  0.4535500E+03  0.7546771E-02  0.1026669E+00
         21   -1    0    0  502  501  0.00000000000E+00  0.00000000000E+00  0.83195426821E+03  0.83195426821E+03  0.00000000000E+00 0.  1.
         21   -1    0    0  501  502 -0.00000000000E+00 -0.00000000000E+00 -0.61814579320E+02  0.61814579320E+02  0.00000000000E+00 0.  1.
      99926    2    1    2    0    0  0.00000000000E+00 -0.71054273576E-14  0.77013968889E+03  0.89376884753E+03  0.45355001093E+03 0.  0.
      99925    2    3    3    0    0 -0.81425282800E+02  0.34813351770E+02  0.61969714181E+03  0.67900731883E+03  0.26302917197E+03 0.  0.
         25    1    4    4    0    0 -0.47687940066E+02  0.35649254998E+02  0.40726021998E+03  0.43017833963E+03  0.12509000000E+03 0.  0.
         25    1    4    4    0    0 -0.33737342734E+02 -0.83590322746E+00  0.21243692183E+03  0.24882897919E+03  0.12509000000E+03 0.  0.
         25    1    3    3    0    0  0.81425282800E+02 -0.34813351770E+02  0.15044254708E+03  0.21476152871E+03  0.12509000000E+03 0.  0.
<mgrwt>
<rscale>  2 0.45355001E+03</rscale>
<asrwt>0</asrwt>
<pdfrwt beam="1">  1       21 0.12234621E+00 0.45355001E+03</pdfrwt>
<pdfrwt beam="2">  1       21 0.90903798E-02 0.45355001E+03</pdfrwt>
<totfact> 0.44001652E+04</totfact>
</mgrwt>
</event>
<event>
 7    0  0.4709932E-002  0.4532428E+03  0.7546771E-02  0.1026759E+00
         21   -1    0    0  502  501  0.00000000000E+00  0.00000000000E+00  0.15335892649E+03  0.15335892649E+03  0.00000000000E+00 0. -1.
         21   -1    0    0  501  502 -0.00000000000E+00 -0.00000000000E+00 -0.33488280076E+03  0.33488280076E+03  0.00000000000E+00 0. -1.
      99926    2    1    2    0    0  0.00000000000E+00 -0.22204460493E-14 -0.18152387427E+03  0.48824172725E+03  0.45324283480E+03 0.  0.
      99925    2    3    3    0    0 -0.66234801001E+02 -0.27878646389E+01 -0.21098007297E+03  0.34363883380E+03  0.26302136007E+03 0.  0.
         25    1    4    4    0    0 -0.36707175873E+02 -0.18576492534E+02 -0.59924408196E+02  0.14467531107E+03  0.12509000000E+03 0.  0.
         25    1    3    3    0    0  0.66234801001E+02  0.27878646389E+01  0.29456198696E+02  0.14460289345E+03  0.12509000000E+03 0.  0.
         25    1    4    4    0    0 -0.29527625128E+02  0.15788627895E+02 -0.15105566477E+03  0.19896352273E+03  0.12509000000E+03 0.  0.
<mgrwt>
<rscale>  2 0.45324283E+03</rscale>
<asrwt>0</asrwt>
<pdfrwt beam="1">  1       21 0.22552783E-01 0.45324283E+03</pdfrwt>
<pdfrwt beam="2">  1       21 0.49247471E-01 0.45324283E+03</pdfrwt>
<totfact> 0.67035121E+04</totfact>
</mgrwt>
</event>
<event>
 7    0  0.4709932E-002  0.4529496E+03  0.7546771E-02  0.1026846E+00
         21   -1    0    0  502  501  0.00000000000E+00  0.00000000000E+00  0.58652950982E+03  0.58652950982E+03  0.00000000000E+00 0. -1.
         21   -1    0    0  501  502 -0.00000000000E+00 -0.00000000000E+00 -0.87448015341E+02  0.87448015341E+02  0.00000000000E+00 0. -1.
      99926    2    1    2    0    0  0.00000000000E+00  0.00000000000E+00  0.49908149448E+03  0.67397752516E+03  0.45294962887E+03 0.  0.
      99925    2    3    3    0    0 -0.60386378755E+02  0.80557806419E+02  0.24417351029E+03  0.37271076062E+03  0.26297629749E+03 0.  0.
         25    1    4    4    0    0 -0.61715709055E+01  0.23078923183E+02  0.15239787128E+03  0.19860348500E+03  0.12509000000E+03 0.  0.
         25    1    4    4    0    0 -0.54214807849E+02  0.57478883236E+02  0.91775639007E+02  0.17410727562E+03  0.12509000000E+03 0.  0.
         25    1    3    3    0    0  0.60386378755E+02 -0.80557806419E+02  0.25490798419E+03  0.30126676454E+03  0.12509000000E+03 0.  0.
<mgrwt>
<rscale>  2 0.45294963E+03</rscale>
<asrwt>0</asrwt>
<pdfrwt beam="1">  1       21 0.86254338E-01 0.45294963E+03</pdfrwt>
<pdfrwt beam="2">  1       21 0.12860002E-01 0.45294963E+03</pdfrwt>
<totfact> 0.55225848E+04</totfact>
</mgrwt>
</event>
<event>
 7    0  0.4709932E-002  0.4563076E+03  0.7546771E-02  0.1025858E+00
         21   -1    0    0  502  501  0.00000000000E+00  0.00000000000E+00  0.13869946918E+03  0.13869946918E+03  0.00000000000E+00 0. -1.
         21   -1    0    0  501  502 -0.00000000000E+00 -0.00000000000E+00 -0.37530176892E+03  0.37530176892E+03  0.00000000000E+00 0. -1.
      99926    2    1    2    0    0  0.35527136788E-14  0.00000000000E+00 -0.23660229974E+03  0.51400123810E+03  0.45630759858E+03 0.  0.
      99925    2    3    3    0    0  0.22416509005E+02  0.84485400295E+02 -0.23173678051E+03  0.36132031553E+03  0.26307822455E+03 0.  0.
         25    1    4    4    0    0  0.43099603902E+02  0.51186019288E+02 -0.88747766077E+02  0.16733576578E+03  0.12509000000E+03 0.  0.
         25    1    3    3    0    0 -0.22416509005E+02 -0.84485400295E+02 -0.48655192245E+01  0.15268092257E+03  0.12509000000E+03 0.  0.
         25    1    4    4    0    0 -0.20683094897E+02  0.33299381007E+02 -0.14298901443E+03  0.19398454974E+03  0.12509000000E+03 0.  0.
<mgrwt>
<rscale>  2 0.45630760E+03</rscale>
<asrwt>0</asrwt>
<pdfrwt beam="1">  1       21 0.20396981E-01 0.45630760E+03</pdfrwt>
<pdfrwt beam="2">  1       21 0.55191435E-01 0.45630760E+03</pdfrwt>
<totfact> 0.63634933E+04</totfact>
</mgrwt>
</event>
<event>
 7    0  0.4709932E-002  0.4614046E+03  0.7546771E-02  0.1024375E+00
         21   -1    0    0  502  501  0.00000000000E+00  0.00000000000E+00  0.45267868512E+02  0.45267868512E+02  0.00000000000E+00 0. -1.
         21   -1    0    0  501  502 -0.00000000000E+00 -0.00000000000E+00 -0.11757467754E+04  0.11757467754E+04  0.00000000000E+00 0. -1.
      99926    2    1    2    0    0 -0.71054273576E-14  0.00000000000E+00 -0.11304789069E+04  0.12210146439E+04  0.46140459657E+03 0.  0.
      99925    2    3    3    0    0  0.33922225209E+02 -0.77674781406E+02 -0.48707011388E+03  0.56010128193E+03  0.26323385260E+03 0.  0.
         25    1    4    4    0    0 -0.21895219544E+00 -0.13614348561E+01 -0.19770663116E+03  0.23396008538E+03  0.12509000000E+03 0.  0.
         25    1    3    3    0    0 -0.33922225209E+02  0.77674781406E+02 -0.64340879304E+03  0.66091336201E+03  0.12509000000E+03 0.  0.
         25    1    4    4    0    0  0.34141177404E+02 -0.76313346549E+02 -0.28936348272E+03  0.32614119655E+03  0.12509000000E+03 0.  0.
<mgrwt>
<rscale>  2 0.46140460E+03</rscale>
<asrwt>0</asrwt>
<pdfrwt beam="1">  1       21 0.66570394E-02 0.46140460E+03</pdfrwt>
<pdfrwt beam="2">  1       21 0.17290394E+00 0.46140460E+03</pdfrwt>
<totfact> 0.29973608E+04</totfact>
</mgrwt>
</event>
<event>
 7    0  0.4709932E-002  0.4569513E+03  0.7546771E-02  0.1025669E+00
         21   -1    0    0  502  501  0.00000000000E+00  0.00000000000E+00  0.20888674137E+03  0.20888674137E+03  0.00000000000E+00 0.  1.
         21   -1    0    0  501  502 -0.00000000000E+00 -0.00000000000E+00 -0.24990151853E+03  0.24990151853E+03  0.00000000000E+00 0.  1.
      99926    2    1    2    0    0  0.00000000000E+00  0.00000000000E+00 -0.41014777164E+02  0.45878825990E+03  0.45695126160E+03 0.  0.
      99925    2    3    3    0    0 -0.92967298123E+02  0.29098264550E+02  0.35143178182E+02  0.28289860761E+03  0.26326213494E+03 0.  0.
         25    1    3    3    0    0  0.92967298123E+02 -0.29098264550E+02 -0.76157955346E+02  0.17588965229E+03  0.12509000000E+03 0.  0.
         25    1    4    4    0    0 -0.79503399583E+02  0.36266670739E+02  0.36419529890E+02  0.15687559469E+03  0.12509000000E+03 0.  0.
         25    1    4    4    0    0 -0.13463898540E+02 -0.71684061892E+01 -0.12763517080E+01  0.12602301292E+03  0.12509000000E+03 0.  0.
<mgrwt>
<rscale>  2 0.45695126E+03</rscale>
<asrwt>0</asrwt>
<pdfrwt beam="1">  1       21 0.30718639E-01 0.45695126E+03</pdfrwt>
<pdfrwt beam="2">  1       21 0.36750223E-01 0.45695126E+03</pdfrwt>
<totfact> 0.67216606E+04</totfact>
</mgrwt>
</event>
<event>
 7    0  0.4709932E-002  0.4532216E+03  0.7546771E-02  0.1026766E+00
         21   -1    0    0  502  501  0.00000000000E+00  0.00000000000E+00  0.10545940232E+04  0.10545940232E+04  0.00000000000E+00 0.  1.
         21   -1    0    0  501  502 -0.00000000000E+00 -0.00000000000E+00 -0.48694055129E+02  0.48694055129E+02  0.00000000000E+00 0.  1.
      99926    2    1    2    0    0  0.00000000000E+00  0.88817841970E-15  0.10058999681E+04  0.11032880783E+04  0.45322162130E+03 0.  0.
      99925    2    3    3    0    0  0.94349508998E+02  0.51989724557E+01  0.77795505784E+03  0.82663802977E+03  0.26303517083E+03 0.  0.
         25    1    4    4    0    0  0.81033979069E+02 -0.12874381598E+02  0.36176053342E+03  0.39147215368E+03  0.12509000000E+03 0.  0.
         25    1    4    4    0    0  0.13315529929E+02  0.18073354054E+02  0.41619452441E+03  0.43516587609E+03  0.12509000000E+03 0.  0.
         25    1    3    3    0    0 -0.94349508998E+02 -0.51989724557E+01  0.22794491023E+03  0.27665004855E+03  0.12509000000E+03 0.  0.
<mgrwt>
<rscale>  2 0.45322162E+03</rscale>
<asrwt>0</asrwt>
<pdfrwt beam="1">  1       21 0.15508734E+00 0.45322162E+03</pdfrwt>
<pdfrwt beam="2">  1       21 0.71608911E-02 0.45322162E+03</pdfrwt>
<totfact> 0.35875491E+04</totfact>
</mgrwt>
</event>
<event>
 7    0  0.4709932E-002  0.4518141E+03  0.7546771E-02  0.1027182E+00
         21   -1    0    0  502  501  0.00000000000E+00  0.00000000000E+00  0.51282924331E+03  0.51282924331E+03  0.00000000000E+00 0. -1.
         21   -1    0    0  501  502 -0.00000000000E+00 -0.00000000000E+00 -0.99514576362E+02  0.99514576362E+02  0.00000000000E+00 0. -1.
      99926    2    1    2    0    0  0.00000000000E+00  0.00000000000E+00  0.41331466695E+03  0.61234381968E+03  0.45181405420E+03 0.  0.
      99925    2    3    3    0    0 -0.10012801727E+03  0.37906100661E+02  0.22523101421E+03  0.36237289969E+03  0.26291180339E+03 0.  0.
         25    1    4    4    0    0 -0.20497374496E+02  0.75648734247E+01  0.67665356019E+02  0.14388703269E+03  0.12509000000E+03 0.  0.
         25    1    4    4    0    0 -0.79630642770E+02  0.30341227237E+02  0.15756565820E+03  0.21848586700E+03  0.12509000000E+03 0.  0.
         25    1    3    3    0    0  0.10012801727E+03 -0.37906100661E+02  0.18808365274E+03  0.24997091998E+03  0.12509000000E+03 0.  0.
<mgrwt>
<rscale>  2 0.45181405E+03</rscale>
<asrwt>0</asrwt>
<pdfrwt beam="1">  1       21 0.75416064E-01 0.45181405E+03</pdfrwt>
<pdfrwt beam="2">  1       21 0.14634497E-01 0.45181405E+03</pdfrwt>
<totfact> 0.59405627E+04</totfact>
</mgrwt>
</event>
<event>
 7    0  0.4709932E-002  0.4461303E+03  0.7546771E-02  0.1028882E+00
         21   -1    0    0  502  501  0.00000000000E+00  0.00000000000E+00  0.97401494269E+02  0.97401494269E+02  0.00000000000E+00 0. -1.
         21   -1    0    0  501  502 -0.00000000000E+00 -0.00000000000E+00 -0.51085527582E+03  0.51085527582E+03  0.00000000000E+00 0. -1.
      99926    2    1    2    0    0  0.00000000000E+00  0.00000000000E+00 -0.41345378155E+03  0.60825677009E+03  0.44613032724E+03 0.  0.
      99925    2    3    3    0    0  0.51194820639E+02  0.34757718914E+02 -0.14713121176E+03  0.30758381161E+03  0.26292812517E+03 0.  0.
         25    1    4    4    0    0 -0.98066198825E+01  0.36444680574E+02 -0.78122903206E+02  0.15223363834E+03  0.12509000000E+03 0.  0.
         25    1    3    3    0    0 -0.51194820639E+02 -0.34757718914E+02 -0.26632256979E+03  0.30067295848E+03  0.12509000000E+03 0.  0.
         25    1    4    4    0    0  0.61001440521E+02 -0.16869616599E+01 -0.69008308558E+02  0.15535017327E+03  0.12509000000E+03 0.  0.
<mgrwt>
<rscale>  2 0.44613033E+03</rscale>
<asrwt>0</asrwt>
<pdfrwt beam="1">  1       21 0.14323749E-01 0.44613033E+03</pdfrwt>
<pdfrwt beam="2">  1       21 0.75125775E-01 0.44613033E+03</pdfrwt>
<totfact> 0.62433423E+04</totfact>
</mgrwt>
</event>
<event>
 7    0  0.4709932E-002  0.4586936E+03  0.7546771E-02  0.1025161E+00
         21   -1    0    0  502  501  0.00000000000E+00  0.00000000000E+00  0.25701844160E+03  0.25701844160E+03  0.00000000000E+00 0. -1.
         21   -1    0    0  501  502 -0.00000000000E+00 -0.00000000000E+00 -0.20465438622E+03  0.20465438622E+03  0.00000000000E+00 0. -1.
      99926    2    1    2    0    0  0.00000000000E+00  0.00000000000E+00  0.52364055386E+02  0.46167282782E+03  0.45869358579E+03 0.  0.
      99925    2    3    3    0    0  0.36191581959E+02 -0.28517807673E+02 -0.75007722297E+02  0.27729773783E+03  0.26295395232E+03 0.  0.
         25    1    3    3    0    0 -0.36191581959E+02  0.28517807673E+02  0.12737177768E+03  0.18437508999E+03  0.12509000000E+03 0.  0.
         25    1    4    4    0    0 -0.92893180616E+00 -0.20532927664E+02 -0.37516649086E+00  0.12676794896E+03  0.12509000000E+03 0.  0.
         25    1    4    4    0    0  0.37120513765E+02 -0.79848800096E+01 -0.74632555806E+02  0.15052978887E+03  0.12509000000E+03 0.  0.
<mgrwt>
<rscale>  2 0.45869359E+03</rscale>
<asrwt>0</asrwt>
<pdfrwt beam="1">  1       21 0.37796830E-01 0.45869359E+03</pdfrwt>
<pdfrwt beam="2">  1       21 0.30096233E-01 0.45869359E+03</pdfrwt>
<totfact> 0.66090403E+04</totfact>
</mgrwt>
</event>
<event>
 7    0  0.4709932E-002  0.4522555E+03  0.7546771E-02  0.1027052E+00
         21   -1    0    0  502  501  0.00000000000E+00  0.00000000000E+00  0.38471576871E+03  0.38471576871E+03  0.00000000000E+00 0. -1.
         21   -1    0    0  501  502 -0.00000000000E+00 -0.00000000000E+00 -0.13291309197E+03  0.13291309197E+03  0.00000000000E+00 0. -1.
      99926    2    1    2    0    0 -0.17763568394E-14 -0.71054273576E-14  0.25180267674E+03  0.51762886068E+03  0.45225551339E+03 0.  0.
      99925    2    3    3    0    0 -0.14363870338E+02 -0.50415556713E+02  0.47428651237E+02  0.27234474067E+03  0.26300975587E+03 0.  0.
         25    1    4    4    0    0  0.89617957649E+01  0.11006941047E+01  0.50068650865E+02  0.13504037622E+03  0.12509000000E+03 0.  0.
         25    1    3    3    0    0  0.14363870338E+02  0.50415556713E+02  0.20437402550E+03  0.24528412001E+03  0.12509000000E+03 0.  0.
         25    1    4    4    0    0 -0.23325666102E+02 -0.51516250818E+02 -0.26399996282E+01  0.13730436444E+03  0.12509000000E+03 0.  0.
<mgrwt>
<rscale>  2 0.45225551E+03</rscale>
<asrwt>0</asrwt>
<pdfrwt beam="1">  1       21 0.56575848E-01 0.45225551E+03</pdfrwt>
<pdfrwt beam="2">  1       21 0.19546043E-01 0.45225551E+03</pdfrwt>
<totfact> 0.65462970E+04</totfact>
</mgrwt>
</event>
<event>
 7    0  0.4709932E-002  0.4513843E+03  0.7546771E-02  0.1027310E+00
         21   -1    0    0  502  501  0.00000000000E+00  0.00000000000E+00  0.30480288868E+02  0.30480288868E+02  0.00000000000E+00 0. -1.
         21   -1    0    0  501  502 -0.00000000000E+00 -0.00000000000E+00 -0.16711436974E+04  0.16711436974E+04  0.00000000000E+00 0. -1.
      99926    2    1    2    0    0  0.00000000000E+00  0.00000000000E+00 -0.16406634086E+04  0.17016239863E+04  0.45138428257E+03 0.  0.
      99925    2    3    3    0    0 -0.71464401830E+02  0.66121125255E+02 -0.84524261532E+03  0.89056239162E+03  0.26303446673E+03 0.  0.
         25    1    4    4    0    0 -0.38971659934E+02  0.16179938938E+01 -0.31915156939E+03  0.34500237756E+03  0.12509000000E+03 0.  0.
         25    1    3    3    0    0  0.71464401830E+02 -0.66121125255E+02 -0.79542079325E+03  0.81106159469E+03  0.12509000000E+03 0.  0.
         25    1    4    4    0    0 -0.32492741896E+02  0.64503131361E+02 -0.52609104593E+03  0.54556001406E+03  0.12509000000E+03 0.  0.
<mgrwt>
<rscale>  2 0.45138428E+03</rscale>
<asrwt>0</asrwt>
<pdfrwt beam="1">  1       21 0.44823977E-02 0.45138428E+03</pdfrwt>
<pdfrwt beam="2">  1       21 0.24575630E+00 0.45138428E+03</pdfrwt>
<totfact> 0.19777327E+04</totfact>
</mgrwt>
</event>
<event>
 7    0  0.4709932E-002  0.4524366E+03  0.7546771E-02  0.1026998E+00
         21   -1    0    0  502  501  0.00000000000E+00  0.00000000000E+00  0.59588419380E+03  0.59588419380E+03  0.00000000000E+00 0.  1.
         21   -1    0    0  501  502 -0.00000000000E+00 -0.00000000000E+00 -0.85880293648E+02  0.85880293648E+02  0.00000000000E+00 0.  1.
      99926    2    1    2    0    0  0.00000000000E+00  0.00000000000E+00  0.51000390015E+03  0.68176448745E+03  0.45243655707E+03 0.  0.
      99925    2    3    3    0    0 -0.44941438569E+02  0.11828719777E+02  0.47313953119E+03  0.54332265378E+03  0.26301870392E+03 0.  0.
         25    1    4    4    0    0 -0.57080435580E+02 -0.12902165651E+02  0.22310648224E+03  0.26239026758E+03  0.12509000000E+03 0.  0.
         25    1    4    4    0    0  0.12138997011E+02  0.24730885429E+02  0.25003304896E+03  0.28093238620E+03  0.12509000000E+03 0.  0.
         25    1    3    3    0    0  0.44941438569E+02 -0.11828719777E+02  0.36864368958E+02  0.13844183367E+03  0.12509000000E+03 0.  0.
<mgrwt>
<rscale>  2 0.45243656E+03</rscale>
<asrwt>0</asrwt>
<pdfrwt beam="1">  1       21 0.87630027E-01 0.45243656E+03</pdfrwt>
<pdfrwt beam="2">  1       21 0.12629455E-01 0.45243656E+03</pdfrwt>
<totfact> 0.55006463E+04</totfact>
</mgrwt>
</event>
<event>
 7    0  0.4709932E-002  0.4539616E+03  0.7546771E-02  0.1026547E+00
         21   -1    0    0  502  501  0.00000000000E+00  0.00000000000E+00  0.19694307972E+03  0.19694307972E+03  0.00000000000E+00 0. -1.
         21   -1    0    0  501  502 -0.00000000000E+00 -0.00000000000E+00 -0.26159990383E+03  0.26159990383E+03  0.00000000000E+00 0. -1.
      99926    2    1    2    0    0  0.00000000000E+00  0.00000000000E+00 -0.64656824106E+02  0.45854298355E+03  0.45396163148E+03 0.  0.
      99925    2    3    3    0    0  0.65243772265E+02  0.91234622106E+02 -0.42143687609E+02  0.28902939853E+03  0.26302356686E+03 0.  0.
         25    1    3    3    0    0 -0.65243772265E+02 -0.91234622106E+02 -0.22513136497E+02  0.16951358502E+03  0.12509000000E+03 0.  0.
         25    1    4    4    0    0 -0.92038929212E+00  0.68379043172E+02 -0.23231829506E+02  0.14444295297E+03  0.12509000000E+03 0.  0.
         25    1    4    4    0    0  0.66164161557E+02  0.22855578934E+02 -0.18911858103E+02  0.14458644556E+03  0.12509000000E+03 0.  0.
<mgrwt>
<rscale>  2 0.45396163E+03</rscale>
<asrwt>0</asrwt>
<pdfrwt beam="1">  1       21 0.28962218E-01 0.45396163E+03</pdfrwt>
<pdfrwt beam="2">  1       21 0.38470574E-01 0.45396163E+03</pdfrwt>
<totfact> 0.68855296E+04</totfact>
</mgrwt>
</event>
<event>
 7    0  0.4709932E-002  0.4249657E+03  0.7546771E-02  0.1035462E+00
         21   -1    0    0  502  501  0.00000000000E+00  0.00000000000E+00  0.52301278091E+03  0.52301278091E+03  0.00000000000E+00 0. -1.
         21   -1    0    0  501  502 -0.00000000000E+00 -0.00000000000E+00 -0.86324757206E+02  0.86324757206E+02  0.00000000000E+00 0. -1.
      99926    2    1    2    0    0  0.00000000000E+00  0.00000000000E+00  0.43668802370E+03  0.60933753811E+03  0.42496565192E+03 0.  0.
      99925    2    3    3    0    0  0.20960308431E+02  0.46974676638E+02  0.19185557512E+03  0.32962985006E+03  0.26306144068E+03 0.  0.
         25    1    3    3    0    0 -0.20960308431E+02 -0.46974676638E+02  0.24483244858E+03  0.27970768805E+03  0.12509000000E+03 0.  0.
         25    1    4    4    0    0  0.26003391253E+02 -0.83655171325E+01  0.11789335769E+03  0.17404743641E+03  0.12509000000E+03 0.  0.
         25    1    4    4    0    0 -0.50430828223E+01  0.55340193770E+02  0.73962217423E+02  0.15558241365E+03  0.12509000000E+03 0.  0.
<mgrwt>
<rscale>  2 0.42496565E+03</rscale>
<asrwt>0</asrwt>
<pdfrwt beam="1">  1       21 0.76913642E-01 0.42496565E+03</pdfrwt>
<pdfrwt beam="2">  1       21 0.12694818E-01 0.42496565E+03</pdfrwt>
<totfact> 0.74201787E+04</totfact>
</mgrwt>
</event>
<event>
 7    0  0.4709932E-002  0.4568789E+03  0.7546771E-02  0.1025690E+00
         21   -1    0    0  502  501  0.00000000000E+00  0.00000000000E+00  0.20786646065E+03  0.20786646065E+03  0.00000000000E+00 0. -1.
         21   -1    0    0  501  502 -0.00000000000E+00 -0.00000000000E+00 -0.25104855199E+03  0.25104855199E+03  0.00000000000E+00 0. -1.
      99926    2    1    2    0    0  0.00000000000E+00 -0.44408920985E-14 -0.43182091344E+02  0.45891501264E+03  0.45687886339E+03 0.  0.
      99925    2    3    3    0    0 -0.33506570039E+02 -0.53728307056E+01 -0.13717384554E+03  0.29881031096E+03  0.26328573925E+03 0.  0.
         25    1    3    3    0    0  0.33506570039E+02  0.53728307056E+01  0.93991754192E+02  0.16010470168E+03  0.12509000000E+03 0.  0.
         25    1    4    4    0    0 -0.18159025480E+02 -0.43158883308E+02 -0.76511606784E+02  0.15392846874E+03  0.12509000000E+03 0.  0.
         25    1    4    4    0    0 -0.15347544560E+02  0.37786052602E+02 -0.60662238752E+02  0.14488184222E+03  0.12509000000E+03 0.  0.
<mgrwt>
<rscale>  2 0.45687886E+03</rscale>
<asrwt>0</asrwt>
<pdfrwt beam="1">  1       21 0.30568597E-01 0.45687886E+03</pdfrwt>
<pdfrwt beam="2">  1       21 0.36918905E-01 0.45687886E+03</pdfrwt>
<totfact> 0.67246200E+04</totfact>
</mgrwt>
</event>
<event>
 7    0  0.4709932E-002  0.4515792E+03  0.7546771E-02  0.1027252E+00
         21   -1    0    0  502  501  0.00000000000E+00  0.00000000000E+00  0.57415633288E+02  0.57415633288E+02  0.00000000000E+00 0. -1.
         21   -1    0    0  501  502 -0.00000000000E+00 -0.00000000000E+00 -0.88792807120E+03  0.88792807120E+03  0.00000000000E+00 0. -1.
      99926    2    1    2    0    0  0.00000000000E+00  0.00000000000E+00 -0.83051243791E+03  0.94534370449E+03  0.45157924010E+03 0.  0.
      99925    2    3    3    0    0  0.55882796484E+02 -0.64445266027E+02 -0.37894428194E+03  0.46906921761E+03  0.26296593476E+03 0.  0.
         25    1    4    4    0    0  0.28021314058E+02  0.50158582863E+01 -0.20835373924E+03  0.24468171495E+03  0.12509000000E+03 0.  0.
         25    1    4    4    0    0  0.27861482426E+02 -0.69461124313E+02 -0.17059054270E+03  0.22438750266E+03  0.12509000000E+03 0.  0.
         25    1    3    3    0    0 -0.55882796484E+02  0.64445266027E+02 -0.45156815597E+03  0.47627448687E+03  0.12509000000E+03 0.  0.
<mgrwt>
<rscale>  2 0.45157924E+03</rscale>
<asrwt>0</asrwt>
<pdfrwt beam="1">  1       21 0.84434757E-02 0.45157924E+03</pdfrwt>
<pdfrwt beam="2">  1       21 0.13057765E+00 0.45157924E+03</pdfrwt>
<totfact> 0.42454283E+04</totfact>
</mgrwt>
</event>
<event>
 7    0  0.4709932E-002  0.4525132E+03  0.7546771E-02  0.1026975E+00
         21   -1    0    0  502  501  0.00000000000E+00  0.00000000000E+00  0.75168758265E+02  0.75168758265E+02  0.00000000000E+00 0.  1.
         21   -1    0    0  501  502 -0.00000000000E+00 -0.00000000000E+00 -0.68102829662E+03  0.68102829662E+03  0.00000000000E+00 0.  1.
      99926    2    1    2    0    0  0.00000000000E+00  0.39968028887E-14 -0.60585953835E+03  0.75619705488E+03  0.45251321041E+03 0.  0.
      99925    2    3    3    0    0 -0.76300030598E+02  0.10402943238E+01 -0.24798579035E+03  0.36948798531E+03  0.26306205007E+03 0.  0.
         25    1    4    4    0    0 -0.23832488185E+02 -0.37609056142E+02 -0.11574493719E+03  0.17614433622E+03  0.12509000000E+03 0.  0.
         25    1    4    4    0    0 -0.52467542413E+02  0.38649350466E+02 -0.13224085316E+03  0.19334364909E+03  0.12509000000E+03 0.  0.
         25    1    3    3    0    0  0.76300030598E+02 -0.10402943238E+01 -0.35787374800E+03  0.38670906957E+03  0.12509000000E+03 0.  0.
<mgrwt>
<rscale>  2 0.45251321E+03</rscale>
<asrwt>0</asrwt>
<pdfrwt beam="1">  1       21 0.11054229E-01 0.45251321E+03</pdfrwt>
<pdfrwt beam="2">  1       21 0.10015123E+00 0.45251321E+03</pdfrwt>
<totfact> 0.50943186E+04</totfact>
</mgrwt>
</event>
<event>
 7    0  0.4709932E-002  0.4529105E+03  0.7546771E-02  0.1026858E+00
         21   -1    0    0  502  501  0.00000000000E+00  0.00000000000E+00  0.10872579689E+03  0.10872579689E+03  0.00000000000E+00 0. -1.
         21   -1    0    0  501  502 -0.00000000000E+00 -0.00000000000E+00 -0.47166336046E+03  0.47166336046E+03  0.00000000000E+00 0. -1.
      99926    2    1    2    0    0  0.00000000000E+00  0.00000000000E+00 -0.36293756357E+03  0.58038915735E+03  0.45291047561E+03 0.  0.
      99925    2    3    3    0    0 -0.82614420531E+02  0.39526500599E+02 -0.30972229207E+03  0.41647802304E+03  0.26294212052E+03 0.  0.
         25    1    4    4    0    0 -0.63257258696E+02  0.38041732557E+02 -0.20996950897E+03  0.25531031509E+03  0.12509000000E+03 0.  0.
         25    1    4    4    0    0 -0.19357161835E+02  0.14847680423E+01 -0.99752783104E+02  0.16116770795E+03  0.12509000000E+03 0.  0.
         25    1    3    3    0    0  0.82614420531E+02 -0.39526500599E+02 -0.53215271497E+02  0.16391113431E+03  0.12509000000E+03 0.  0.
<mgrwt>
<rscale>  2 0.45291048E+03</rscale>
<asrwt>0</asrwt>
<pdfrwt beam="1">  1       21 0.15989088E-01 0.45291048E+03</pdfrwt>
<pdfrwt beam="2">  1       21 0.69362259E-01 0.45291048E+03</pdfrwt>
<totfact> 0.60901709E+04</totfact>
</mgrwt>
</event>
<event>
 7    0  0.4709932E-002  0.4556193E+03  0.7546771E-02  0.1026059E+00
         21   -1    0    0  502  501  0.00000000000E+00  0.00000000000E+00  0.19691015044E+03  0.19691015044E+03  0.00000000000E+00 0.  1.
         21   -1    0    0  501  502 -0.00000000000E+00 -0.00000000000E+00 -0.26355791141E+03  0.26355791141E+03  0.00000000000E+00 0.  1.
      99926    2    1    2    0    0  0.00000000000E+00 -0.71054273576E-14 -0.66647760975E+02  0.46046806185E+03  0.45561926204E+03 0.  0.
      99925    2    3    3    0    0 -0.37305566226E+01  0.60473429373E+02  0.55443030389E+02  0.27546908307E+03  0.26294169201E+03 0.  0.
         25    1    3    3    0    0  0.37305566226E+01 -0.60473429373E+02 -0.12209079136E+03  0.18499897878E+03  0.12509000000E+03 0.  0.
         25    1    4    4    0    0 -0.12145987627E+02 -0.90741667358E+01  0.17955852882E+02  0.12727838100E+03  0.12509000000E+03 0.  0.
         25    1    4    4    0    0  0.84154310048E+01  0.69547596109E+02  0.37487177507E+02  0.14819070207E+03  0.12509000000E+03 0.  0.
<mgrwt>
<rscale>  2 0.45561926E+03</rscale>
<asrwt>0</asrwt>
<pdfrwt beam="1">  1       21 0.28957375E-01 0.45561926E+03</pdfrwt>
<pdfrwt beam="2">  1       21 0.38758516E-01 0.45561926E+03</pdfrwt>
<totfact> 0.67810978E+04</totfact>
</mgrwt>
</event>
<event>
 7    0  0.4709932E-002  0.4546224E+03  0.7546771E-02  0.1026353E+00
         21   -1    0    0  502  501  0.00000000000E+00  0.00000000000E+00  0.53219094352E+03  0.53219094352E+03  0.00000000000E+00 0. -1.
         21   -1    0    0  501  502 -0.00000000000E+00 -0.00000000000E+00 -0.97089923030E+02  0.97089923030E+02  0.00000000000E+00 0. -1.
      99926    2    1    2    0    0  0.00000000000E+00  0.00000000000E+00  0.43510102049E+03  0.62928086655E+03  0.45462238284E+03 0.  0.
      99925    2    3    3    0    0  0.30781502503E+02  0.10529712086E+03  0.31006232637E+03  0.42115309885E+03  0.26305189960E+03 0.  0.
         25    1    4    4    0    0  0.51920133076E+02  0.73666287153E+02  0.16253468673E+03  0.22402556678E+03  0.12509000000E+03 0.  0.
         25    1    4    4    0    0 -0.21138630573E+02  0.31630833710E+02  0.14752763964E+03  0.19712753207E+03  0.12509000000E+03 0.  0.
         25    1    3    3    0    0 -0.30781502503E+02 -0.10529712086E+03  0.12503869412E+03  0.20812776770E+03  0.12509000000E+03 0.  0.
<mgrwt>
<rscale>  2 0.45462238E+03</rscale>
<asrwt>0</asrwt>
<pdfrwt beam="1">  1       21 0.78263373E-01 0.45462238E+03</pdfrwt>
<pdfrwt beam="2">  1       21 0.14277930E-01 0.45462238E+03</pdfrwt>
<totfact> 0.57081167E+04</totfact>
</mgrwt>
</event>
<event>
 7    0  0.4709932E-002  0.4386812E+03  0.7546771E-02  0.1031152E+00
         21   -1    0    0  502  501  0.00000000000E+00  0.00000000000E+00  0.39002067434E+03  0.39002067434E+03  0.00000000000E+00 0. -1.
         21   -1    0    0  501  502 -0.00000000000E+00 -0.00000000000E+00 -0.12335319017E+03  0.12335319017E+03  0.00000000000E+00 0. -1.
      99926    2    1    2    0    0  0.00000000000E+00  0.00000000000E+00  0.26666748417E+03  0.51337386451E+03  0.43868117996E+03 0.  0.
      99925    2    3    3    0    0  0.46565776874E+02  0.53945437334E+02  0.24765569643E+03  0.36815872082E+03  0.26292397753E+03 0.  0.
         25    1    4    4    0    0  0.56627606506E+02  0.66799555543E+01  0.11093240224E+03  0.17664884260E+03  0.12509000000E+03 0.  0.
         25    1    4    4    0    0 -0.10061829632E+02  0.47265481780E+02  0.13672329418E+03  0.19150987822E+03  0.12509000000E+03 0.  0.
         25    1    3    3    0    0 -0.46565776874E+02 -0.53945437334E+02  0.19011787746E+02  0.14521514369E+03  0.12509000000E+03 0.  0.
<mgrwt>
<rscale>  2 0.43868118E+03</rscale>
<asrwt>0</asrwt>
<pdfrwt beam="1">  1       21 0.57355981E-01 0.43868118E+03</pdfrwt>
<pdfrwt beam="2">  1       21 0.18140175E-01 0.43868118E+03</pdfrwt>
<totfact> 0.73387633E+04</totfact>
</mgrwt>
</event>
<event>
 7    0  0.4709932E-002  0.4523434E+03  0.7546771E-02  0.1027026E+00
         21   -1    0    0  502  501  0.00000000000E+00  0.00000000000E+00  0.14058838352E+03  0.14058838352E+03  0.00000000000E+00 0.  1.
         21   -1    0    0  501  502 -0.00000000000E+00 -0.00000000000E+00 -0.36385402213E+03  0.36385402213E+03  0.00000000000E+00 0.  1.
      99926    2    1    2    0    0  0.00000000000E+00  0.00000000000E+00 -0.22326563860E+03  0.50444240565E+03  0.45234344832E+03 0.  0.
      99925    2    3    3    0    0 -0.20665007949E+02  0.10830484957E+03 -0.15128703141E+03  0.32282354378E+03  0.26300245541E+03 0.  0.
         25    1    4    4    0    0  0.21759307363E+02  0.67560891571E+02 -0.53284095828E+02  0.15337745758E+03  0.12509000000E+03 0.  0.
         25    1    3    3    0    0  0.20665007949E+02 -0.10830484957E+03 -0.71978607189E+02  0.18161886187E+03  0.12509000000E+03 0.  0.
         25    1    4    4    0    0 -0.42424315312E+02  0.40743958004E+02 -0.98002935583E+02  0.16944608619E+03  0.12509000000E+03 0.  0.
<mgrwt>
<rscale>  2 0.45234345E+03</rscale>
<asrwt>0</asrwt>
<pdfrwt beam="1">  1       21 0.20674763E-01 0.45234345E+03</pdfrwt>
<pdfrwt beam="2">  1       21 0.53507943E-01 0.45234345E+03</pdfrwt>
<totfact> 0.66347649E+04</totfact>
</mgrwt>
</event>
<event>
 7    0  0.4709932E-002  0.4571723E+03  0.7546771E-02  0.1025605E+00
         21   -1    0    0  502  501  0.00000000000E+00  0.00000000000E+00  0.31062352668E+04  0.31062352668E+04  0.00000000000E+00 0. -1.
         21   -1    0    0  501  502 -0.00000000000E+00 -0.00000000000E+00 -0.16821526507E+02  0.16821526507E+02  0.00000000000E+00 0. -1.
      99926    2    1    2    0    0  0.00000000000E+00  0.00000000000E+00  0.30894137403E+04  0.31230567933E+04  0.45717226022E+03 0.  0.
      99925    2    3    3    0    0  0.50490129962E+02 -0.79643521552E+02  0.23924316951E+04  0.24086872649E+04  0.26296878226E+03 0.  0.
         25    1    4    4    0    0  0.41736779460E+02 -0.61626226415E+02  0.15445841588E+04  0.15514275627E+04  0.12509000000E+03 0.  0.
         25    1    3    3    0    0 -0.50490129962E+02  0.79643521552E+02  0.69698204520E+03  0.71436952845E+03  0.12509000000E+03 0.  0.
         25    1    4    4    0    0  0.87533505021E+01 -0.18017295137E+02  0.84784753631E+03  0.85725970219E+03  0.12509000000E+03 0.  0.
<mgrwt>
<rscale>  2 0.45717226E+03</rscale>
<asrwt>0</asrwt>
<pdfrwt beam="1">  1       21 0.45679891E+00 0.45717226E+03</pdfrwt>
<pdfrwt beam="2">  1       21 0.24737561E-02 0.45717226E+03</pdfrwt>
<totfact> 0.25750471E+03</totfact>
</mgrwt>
</event>
<event>
 7    0  0.4709932E-002  0.4532005E+03  0.7546771E-02  0.1026772E+00
         21   -1    0    0  502  501  0.00000000000E+00  0.00000000000E+00  0.40119842615E+03  0.40119842615E+03  0.00000000000E+00 0. -1.
         21   -1    0    0  501  502 -0.00000000000E+00 -0.00000000000E+00 -0.12798571542E+03  0.12798571542E+03  0.00000000000E+00 0. -1.
      99926    2    1    2    0    0 -0.88817841970E-15  0.35527136788E-14  0.27321271073E+03  0.52918414158E+03  0.45320047484E+03 0.  0.
      99925    2    3    3    0    0  0.42908926207E+01 -0.31890169336E+02  0.47600663384E+02  0.26921549219E+03  0.26301285790E+03 0.  0.
         25    1    4    4    0    0  0.24205221105E+02 -0.13336397618E+02  0.58307447466E+02  0.14075162081E+03  0.12509000000E+03 0.  0.
         25    1    4    4    0    0 -0.19914328484E+02 -0.18553771718E+02 -0.10706784082E+02  0.12846387138E+03  0.12509000000E+03 0.  0.
         25    1    3    3    0    0 -0.42908926207E+01  0.31890169336E+02  0.22561204735E+03  0.25996864939E+03  0.12509000000E+03 0.  0.
<mgrwt>
<rscale>  2 0.45320047E+03</rscale>
<asrwt>0</asrwt>
<pdfrwt beam="1">  1       21 0.58999768E-01 0.45320047E+03</pdfrwt>
<pdfrwt beam="2">  1       21 0.18821429E-01 0.45320047E+03</pdfrwt>
<totfact> 0.64172198E+04</totfact>
</mgrwt>
</event>
<event>
 7    0  0.4709932E-002  0.4567123E+03  0.7546771E-02  0.1025739E+00
         21   -1    0    0  502  501  0.00000000000E+00  0.00000000000E+00  0.77036628536E+03  0.77036628536E+03  0.00000000000E+00 0. -1.
         21   -1    0    0  501  502 -0.00000000000E+00 -0.00000000000E+00 -0.67690572499E+02  0.67690572499E+02  0.00000000000E+00 0. -1.
      99926    2    1    2    0    0  0.00000000000E+00 -0.35527136788E-14  0.70267571286E+03  0.83805685786E+03  0.45671231597E+03 0.  0.
      99925    2    3    3    0    0  0.54276408802E+02  0.24400760296E+02  0.62163242579E+03  0.67756745592E+03  0.26292481601E+03 0.  0.
         25    1    3    3    0    0 -0.54276408802E+02 -0.24400760296E+02  0.81043287074E+02  0.16048940194E+03  0.12509000000E+03 0.  0.
         25    1    4    4    0    0  0.41604504068E+02  0.66407724655E+01  0.22231098460E+03  0.25854345204E+03  0.12509000000E+03 0.  0.
         25    1    4    4    0    0  0.12671904735E+02  0.17759987830E+02  0.39932144119E+03  0.41902400388E+03  0.12509000000E+03 0.  0.
<mgrwt>
<rscale>  2 0.45671232E+03</rscale>
<asrwt>0</asrwt>
<pdfrwt beam="1">  1       21 0.11328915E+00 0.45671232E+03</pdfrwt>
<pdfrwt beam="2">  1       21 0.99544964E-02 0.45671232E+03</pdfrwt>
<totfact> 0.45365929E+04</totfact>
</mgrwt>
</event>
<event>
 7    0  0.4709932E-002  0.4558679E+03  0.7546771E-02  0.1025987E+00
         21   -1    0    0  502  501  0.00000000000E+00  0.00000000000E+00  0.87153480149E+03  0.87153480149E+03  0.00000000000E+00 0.  1.
         21   -1    0    0  501  502 -0.00000000000E+00 -0.00000000000E+00 -0.59611936053E+02  0.59611936053E+02  0.00000000000E+00 0.  1.
      99926    2    1    2    0    0  0.00000000000E+00  0.00000000000E+00  0.81192286544E+03  0.93114673754E+03  0.45586786180E+03 0.  0.
      99925    2    3    3    0    0 -0.41696292272E+02 -0.22890503206E+02  0.72258981845E+03  0.77024161857E+03  0.26243770562E+03 0.  0.
         25    1    4    4    0    0 -0.74196659604E+00 -0.44946007899E+02  0.34132729247E+03  0.36629567678E+03  0.12509000000E+03 0.  0.
         25    1    4    4    0    0 -0.40954325676E+02  0.22055504693E+02  0.38126252598E+03  0.40394594180E+03  0.12509000000E+03 0.  0.
         25    1    3    3    0    0  0.41696292272E+02  0.22890503206E+02  0.89333046988E+02  0.16090511897E+03  0.12509000000E+03 0.  0.
<mgrwt>
<rscale>  2 0.45586786E+03</rscale>
<asrwt>0</asrwt>
<pdfrwt beam="1">  1       21 0.12816687E+00 0.45586786E+03</pdfrwt>
<pdfrwt beam="2">  1       21 0.87664617E-02 0.45586786E+03</pdfrwt>
<totfact> 0.41630528E+04</totfact>
</mgrwt>
</event>
<event>
 7    0  0.4709932E-002  0.4562368E+03  0.7546771E-02  0.1025878E+00
         21   -1    0    0  502  501  0.00000000000E+00  0.00000000000E+00  0.21679445821E+03  0.21679445821E+03  0.00000000000E+00 0.  1.
         21   -1    0    0  501  502 -0.00000000000E+00 -0.00000000000E+00 -0.24003383028E+03  0.24003383028E+03  0.00000000000E+00 0.  1.
      99926    2    1    2    0    0  0.00000000000E+00  0.00000000000E+00 -0.23239372069E+02  0.45682828849E+03  0.45623679898E+03 0.  0.
      99925    2    3    3    0    0 -0.79567180130E+02 -0.47901000461E+02 -0.81227522672E+02  0.29058877540E+03  0.26309405914E+03 0.  0.
         25    1    4    4    0    0 -0.12487313991E+02 -0.47325094492E+02 -0.19216167970E+02  0.13569217660E+03  0.12509000000E+03 0.  0.
         25    1    4    4    0    0 -0.67079866139E+02 -0.57590596959E+00 -0.62011354701E+02  0.15489659880E+03  0.12509000000E+03 0.  0.
         25    1    3    3    0    0  0.79567180130E+02  0.47901000461E+02  0.57988150603E+02  0.16623951308E+03  0.12509000000E+03 0.  0.
<mgrwt>
<rscale>  2 0.45623680E+03</rscale>
<asrwt>0</asrwt>
<pdfrwt beam="1">  1       21 0.31881538E-01 0.45623680E+03</pdfrwt>
<pdfrwt beam="2">  1       21 0.35299092E-01 0.45623680E+03</pdfrwt>
<totfact> 0.67741131E+04</totfact>
</mgrwt>
</event>
<event>
 7    0  0.4709932E-002  0.4513729E+03  0.7546771E-02  0.1027313E+00
         21   -1    0    0  502  501  0.00000000000E+00  0.00000000000E+00  0.11668441557E+03  0.11668441557E+03  0.00000000000E+00 0.  1.
         21   -1    0    0  501  502 -0.00000000000E+00 -0.00000000000E+00 -0.43651397941E+03  0.43651397941E+03  0.00000000000E+00 0.  1.
      99926    2    1    2    0    0  0.00000000000E+00  0.00000000000E+00 -0.31982956383E+03  0.55319839498E+03  0.45137292155E+03 0.  0.
      99925    2    3    3    0    0 -0.20780435399E+02  0.87697832504E+02 -0.12619495760E+03  0.30568151646E+03  0.26342605387E+03 0.  0.
         25    1    4    4    0    0  0.15097684244E+02  0.10074553896E+02 -0.66450022909E+02  0.14280248720E+03  0.12509000000E+03 0.  0.
         25    1    3    3    0    0  0.20780435399E+02 -0.87697832504E+02 -0.19363460624E+03  0.24751687852E+03  0.12509000000E+03 0.  0.
         25    1    4    4    0    0 -0.35878119643E+02  0.77623278608E+02 -0.59744934687E+02  0.16287902926E+03  0.12509000000E+03 0.  0.
<mgrwt>
<rscale>  2 0.45137292E+03</rscale>
<asrwt>0</asrwt>
<pdfrwt beam="1">  1       21 0.17159473E-01 0.45137292E+03</pdfrwt>
<pdfrwt beam="2">  1       21 0.64193232E-01 0.45137292E+03</pdfrwt>
<totfact> 0.63457016E+04</totfact>
</mgrwt>
</event>
<event>
 7    0  0.4709932E-002  0.4433873E+03  0.7546771E-02  0.1029713E+00
         21   -1    0    0  502  501  0.00000000000E+00  0.00000000000E+00  0.18845356881E+03  0.18845356881E+03  0.00000000000E+00 0.  1.
         21   -1    0    0  501  502 -0.00000000000E+00 -0.00000000000E+00 -0.26079669286E+03  0.26079669286E+03  0.00000000000E+00 0.  1.
      99926    2    1    2    0    0  0.00000000000E+00 -0.71054273576E-14 -0.72343124055E+02  0.44925026167E+03  0.44338726866E+03 0.  0.
      99925    2    3    3    0    0 -0.59976737626E+02 -0.33634892470E+02 -0.12235683264E+03  0.29799751229E+03  0.26287412917E+03 0.  0.
         25    1    3    3    0    0  0.59976737626E+02  0.33634892470E+02  0.50013708586E+02  0.15125274938E+03  0.12509000000E+03 0.  0.
         25    1    4    4    0    0 -0.48097975863E+02  0.40213773555E+01 -0.29505922490E+02  0.13728690513E+03  0.12509000000E+03 0.  0.
         25    1    4    4    0    0 -0.11878761763E+02 -0.37656269825E+02 -0.92850910152E+02  0.16071060716E+03  0.12509000000E+03 0.  0.
<mgrwt>
<rscale>  2 0.44338727E+03</rscale>
<asrwt>0</asrwt>
<pdfrwt beam="1">  1       21 0.27713760E-01 0.44338727E+03</pdfrwt>
<pdfrwt beam="2">  1       21 0.38352455E-01 0.44338727E+03</pdfrwt>
<totfact> 0.75746346E+04</totfact>
</mgrwt>
</event>
<event>
 6    0  0.4709932E-002  0.4533916E+03  0.7546771E-02  0.1026715E+00
         21   -1    0    0  502  501  0.00000000000E+00  0.00000000000E+00  0.12236964253E+04  0.12236964253E+04  0.00000000000E+00 0. -1.
         21   -1    0    0  501  502 -0.00000000000E+00 -0.00000000000E+00 -0.41996510674E+02  0.41996510674E+02  0.00000000000E+00 0. -1.
      99926    2    1    2    0    0  0.71054273576E-14  0.00000000000E+00  0.11816999146E+04  0.12656929360E+04  0.45339157463E+03 0.  0.
         25    1    3    3    0    0  0.17404625436E+02 -0.88153548332E+02  0.37671298635E+03  0.40698175789E+03  0.12509000000E+03 0.  0.
         25    1    3    3    0    0  0.27047457004E+02 -0.15255005089E+02  0.30310304467E+03  0.32936794607E+03  0.12509000000E+03 0.  0.
         25    1    3    3    0    0 -0.44452082440E+02  0.10340855342E+03  0.50188388359E+03  0.52934323200E+03  0.12509000000E+03 0.  0.
<mgrwt>
<rscale>  2 0.45339157E+03</rscale>
<asrwt>0</asrwt>
<pdfrwt beam="1">  1       21 0.17995533E+00 0.45339157E+03</pdfrwt>
<pdfrwt beam="2">  1       21 0.61759582E-02 0.45339157E+03</pdfrwt>
<totfact> 0.30507686E+04</totfact>
</mgrwt>
</event>
<event>
 7    0  0.4709932E-002  0.4635085E+03  0.7546771E-02  0.1023769E+00
         21   -1    0    0  502  501  0.00000000000E+00  0.00000000000E+00  0.23646020555E+03  0.23646020555E+03  0.00000000000E+00 0.  1.
         21   -1    0    0  501  502 -0.00000000000E+00 -0.00000000000E+00 -0.22714191261E+03  0.22714191261E+03  0.00000000000E+00 0.  1.
      99926    2    1    2    0    0  0.00000000000E+00  0.00000000000E+00  0.93182929397E+01  0.46360211816E+03  0.46350846096E+03 0.  0.
      99925    2    3    3    0    0  0.11268275992E+03 -0.27153733747E+02  0.40702694547E+02  0.29020310316E+03  0.26291900292E+03 0.  0.
         25    1    4    4    0    0  0.99904957160E+02 -0.15308904164E+02  0.17189913955E+02  0.16173547618E+03  0.12509000000E+03 0.  0.
         25    1    4    4    0    0  0.12777802760E+02 -0.11844829582E+02  0.23512780592E+02  0.12846762698E+03  0.12509000000E+03 0.  0.
         25    1    3    3    0    0 -0.11268275992E+03  0.27153733747E+02 -0.31384401607E+02  0.17339901500E+03  0.12509000000E+03 0.  0.
<mgrwt>
<rscale>  2 0.46350846E+03</rscale>
<asrwt>0</asrwt>
<pdfrwt beam="1">  1       21 0.34773560E-01 0.46350846E+03</pdfrwt>
<pdfrwt beam="2">  1       21 0.33403222E-01 0.46350846E+03</pdfrwt>
<totfact> 0.63498589E+04</totfact>
</mgrwt>
</event>
<event>
 7    0  0.4709932E-002  0.4512241E+03  0.7546771E-02  0.1027358E+00
         21   -1    0    0  502  501  0.00000000000E+00  0.00000000000E+00  0.71022247206E+03  0.71022247206E+03  0.00000000000E+00 0.  1.
         21   -1    0    0  501  502 -0.00000000000E+00 -0.00000000000E+00 -0.71668794993E+02  0.71668794993E+02  0.00000000000E+00 0.  1.
      99926    2    1    2    0    0  0.00000000000E+00  0.00000000000E+00  0.63855367707E+03  0.78189126706E+03  0.45122406296E+03 0.  0.
      99925    2    3    3    0    0  0.45949204470E+02 -0.98918632368E+02  0.38592541408E+03  0.47962520449E+03  0.26306973662E+03 0.  0.
         25    1    4    4    0    0  0.46724400038E+02 -0.79936210770E+02  0.24484872207E+03  0.29012302934E+03  0.12509000000E+03 0.  0.
         25    1    4    4    0    0 -0.77519556799E+00 -0.18982421598E+02  0.14107669201E+03  0.18950217515E+03  0.12509000000E+03 0.  0.
         25    1    3    3    0    0 -0.45949204470E+02  0.98918632368E+02  0.25262826299E+03  0.30226606257E+03  0.12509000000E+03 0.  0.
<mgrwt>
<rscale>  2 0.45122406E+03</rscale>
<asrwt>0</asrwt>
<pdfrwt beam="1">  1       21 0.10444448E+00 0.45122406E+03</pdfrwt>
<pdfrwt beam="2">  1       21 0.10539529E-01 0.45122406E+03</pdfrwt>
<totfact> 0.50122299E+04</totfact>
</mgrwt>
</event>
<event>
 7    0  0.4709932E-002  0.4141010E+03  0.7546771E-02  0.1039004E+00
         21   -1    0    0  502  501  0.00000000000E+00  0.00000000000E+00  0.13199830370E+04  0.13199830370E+04  0.00000000000E+00 0.  1.
         21   -1    0    0  501  502 -0.00000000000E+00 -0.00000000000E+00 -0.32477614397E+02  0.32477614397E+02  0.00000000000E+00 0.  1.
      99926    2    1    2    0    0  0.35527136788E-14  0.00000000000E+00  0.12875054226E+04  0.13524606514E+04  0.41410095429E+03 0.  0.
      99925    2    3    3    0    0 -0.29013441248E+02 -0.36688315917E+02  0.10062193984E+04  0.10410812240E+04  0.26303008371E+03 0.  0.
         25    1    4    4    0    0  0.23351584802E+02 -0.32040099817E+01  0.46048632377E+03  0.47775592584E+03  0.12509000000E+03 0.  0.
         25    1    4    4    0    0 -0.52365026050E+02 -0.33484305935E+02  0.54573307466E+03  0.56332529819E+03  0.12509000000E+03 0.  0.
         25    1    3    3    0    0  0.29013441248E+02  0.36688315917E+02  0.28128602417E+03  0.31137942737E+03  0.12509000000E+03 0.  0.
<mgrwt>
<rscale>  2 0.41410095E+03</rscale>
<asrwt>0</asrwt>
<pdfrwt beam="1">  1       21 0.19411512E+00 0.41410095E+03</pdfrwt>
<pdfrwt beam="2">  1       21 0.47761207E-02 0.41410095E+03</pdfrwt>
<totfact> 0.38484007E+04</totfact>
</mgrwt>
</event>
<event>
 7    0  0.4709932E-002  0.3923137E+03  0.7546771E-02  0.1046474E+00
         21   -1    0    0  502  501  0.00000000000E+00  0.00000000000E+00  0.13879484818E+04  0.13879484818E+04  0.00000000000E+00 0. -1.
         21   -1    0    0  501  502 -0.00000000000E+00 -0.00000000000E+00 -0.27722572256E+02  0.27722572256E+02  0.00000000000E+00 0. -1.
      99926    2    1    2    0    0 -0.35527136788E-14 -0.16653345369E-15  0.13602259096E+04  0.14156710541E+04  0.39231366061E+03 0.  0.
      99925    2    3    3    0    0  0.64080092815E+01 -0.25734928043E+00  0.82201643757E+03  0.86307891456E+03  0.26296969466E+03 0.  0.
         25    1    4    4    0    0 -0.27514160656E+02 -0.15697957119E+02  0.47872701307E+03  0.49581298495E+03  0.12509000000E+03 0.  0.
         25    1    3    3    0    0 -0.64080092815E+01  0.25734928043E+00  0.53820947202E+03  0.55259213954E+03  0.12509000000E+03 0.  0.
         25    1    4    4    0    0  0.33922169938E+02  0.15440607838E+02  0.34328942449E+03  0.36726592961E+03  0.12509000000E+03 0.  0.
<mgrwt>
<rscale>  2 0.39231366E+03</rscale>
<asrwt>0</asrwt>
<pdfrwt beam="1">  1       21 0.20411002E+00 0.39231366E+03</pdfrwt>
<pdfrwt beam="2">  1       21 0.40768498E-02 0.39231366E+03</pdfrwt>
<totfact> 0.43603109E+04</totfact>
</mgrwt>
</event>
<event>
 7    0  0.4709932E-002  0.4535886E+03  0.7546771E-02  0.1026657E+00
         21   -1    0    0  502  501  0.00000000000E+00  0.00000000000E+00  0.16688675893E+03  0.16688675893E+03  0.00000000000E+00 0.  1.
         21   -1    0    0  501  502 -0.00000000000E+00 -0.00000000000E+00 -0.30820697007E+03  0.30820697007E+03  0.00000000000E+00 0.  1.
      99926    2    1    2    0    0  0.71054273576E-14  0.00000000000E+00 -0.14132021114E+03  0.47509372901E+03  0.45358863441E+03 0.  0.
      99925    2    3    3    0    0 -0.48603695003E+02  0.99237836596E+02 -0.10817605871E+03  0.30492760335E+03  0.26280851627E+03 0.  0.
         25    1    3    3    0    0  0.48603695003E+02 -0.99237836596E+02 -0.33144152426E+02  0.17016612565E+03  0.12509000000E+03 0.  0.
         25    1    4    4    0    0  0.15425561310E+02  0.57152531854E+02 -0.51088146300E+02  0.14751903820E+03  0.12509000000E+03 0.  0.
         25    1    4    4    0    0 -0.64029256313E+02  0.42085304742E+02 -0.57087912413E+02  0.15740856515E+03  0.12509000000E+03 0.  0.
<mgrwt>
<rscale>  2 0.45358863E+03</rscale>
<asrwt>0</asrwt>
<pdfrwt beam="1">  1       21 0.24542171E-01 0.45358863E+03</pdfrwt>
<pdfrwt beam="2">  1       21 0.45324554E-01 0.45358863E+03</pdfrwt>
<totfact> 0.67815424E+04</totfact>
</mgrwt>
</event>
<event>
 7    0  0.4709932E-002  0.4132079E+03  0.7546771E-02  0.1039300E+00
         21   -1    0    0  502  501  0.00000000000E+00  0.00000000000E+00  0.14934375750E+03  0.14934375750E+03  0.00000000000E+00 0.  1.
         21   -1    0    0  501  502 -0.00000000000E+00 -0.00000000000E+00 -0.28581842266E+03  0.28581842266E+03  0.00000000000E+00 0.  1.
      99926    2    1    2    0    0  0.00000000000E+00  0.00000000000E+00 -0.13647466516E+03  0.43516218016E+03  0.41320792443E+03 0.  0.
      99925    2    3    3    0    0 -0.17294391836E+02 -0.52109694218E+02 -0.49599486408E+02  0.27326924948E+03  0.26306169892E+03 0.  0.
         25    1    4    4    0    0 -0.32504300731E+00 -0.45312972461E+02  0.10171298853E+02  0.13343288405E+03  0.12509000000E+03 0.  0.
         25    1    3    3    0    0  0.17294391836E+02  0.52109694218E+02 -0.86875178749E+02  0.16189293068E+03  0.12509000000E+03 0.  0.
         25    1    4    4    0    0 -0.16969348828E+02 -0.67967217565E+01 -0.59770785261E+02  0.13983636543E+03  0.12509000000E+03 0.  0.
<mgrwt>
<rscale>  2 0.41320792E+03</rscale>
<asrwt>0</asrwt>
<pdfrwt beam="1">  1       21 0.21962317E-01 0.41320792E+03</pdfrwt>
<pdfrwt beam="2">  1       21 0.42032121E-01 0.41320792E+03</pdfrwt>
<totfact> 0.99125612E+04</totfact>
</mgrwt>
</event>
<event>
 7    0  0.4709932E-002  0.4568883E+03  0.7546771E-02  0.1025688E+00
         21   -1    0    0  502  501  0.00000000000E+00  0.00000000000E+00  0.49376131251E+03  0.49376131251E+03  0.00000000000E+00 0. -1.
         21   -1    0    0  501  502 -0.00000000000E+00 -0.00000000000E+00 -0.10569223540E+03  0.10569223540E+03  0.00000000000E+00 0. -1.
      99926    2    1    2    0    0 -0.13322676296E-14  0.14210854715E-13  0.38806907711E+03  0.59945354791E+03  0.45688833154E+03 0.  0.
      99925    2    3    3    0    0 -0.35248653326E+01  0.76122322840E+02  0.13086475056E+03  0.30346603735E+03  0.26298102627E+03 0.  0.
         25    1    3    3    0    0  0.35248653326E+01 -0.76122322840E+02  0.25720432655E+03  0.29598751056E+03  0.12509000000E+03 0.  0.
         25    1    4    4    0    0  0.37297256448E+02  0.31209866992E+02  0.54654615067E+02  0.14491299522E+03  0.12509000000E+03 0.  0.
         25    1    4    4    0    0 -0.40822121781E+02  0.44912455848E+02  0.76210135489E+02  0.15855304213E+03  0.12509000000E+03 0.  0.
<mgrwt>
<rscale>  2 0.45688833E+03</rscale>
<asrwt>0</asrwt>
<pdfrwt beam="1">  1       21 0.72611957E-01 0.45688833E+03</pdfrwt>
<pdfrwt beam="2">  1       21 0.15542976E-01 0.45688833E+03</pdfrwt>
<totfact> 0.57844007E+04</totfact>
</mgrwt>
</event>
<event>
 7    0  0.4709932E-002  0.4633684E+03  0.7546771E-02  0.1023809E+00
         21   -1    0    0  502  501  0.00000000000E+00  0.00000000000E+00  0.10510182917E+04  0.10510182917E+04  0.00000000000E+00 0. -1.
         21   -1    0    0  501  502 -0.00000000000E+00 -0.00000000000E+00 -0.51071960457E+02  0.51071960457E+02  0.00000000000E+00 0. -1.
      99926    2    1    2    0    0  0.00000000000E+00  0.00000000000E+00  0.99994633128E+03  0.11020902522E+04  0.46336838319E+03 0.  0.
      99925    2    3    3    0    0  0.10954448110E+03 -0.51205109615E+02  0.58528432229E+03  0.65240809068E+03  0.26164216455E+03 0.  0.
         25    1    3    3    0    0 -0.10954448110E+03  0.51205109615E+02  0.41466200899E+03  0.44968216152E+03  0.12509000000E+03 0.  0.
         25    1    4    4    0    0  0.85044358548E+02 -0.95191282720E+01  0.26687863110E+03  0.30691182538E+03  0.12509000000E+03 0.  0.
         25    1    4    4    0    0  0.24500122554E+02 -0.41685981343E+02  0.31840569120E+03  0.34549626529E+03  0.12509000000E+03 0.  0.
<mgrwt>
<rscale>  2 0.46336838E+03</rscale>
<asrwt>0</asrwt>
<pdfrwt beam="1">  1       21 0.15456150E+00 0.46336838E+03</pdfrwt>
<pdfrwt beam="2">  1       21 0.75105831E-02 0.46336838E+03</pdfrwt>
<totfact> 0.33200895E+04</totfact>
</mgrwt>
</event>
<event>
 7    0  0.4709932E-002  0.4565598E+03  0.7546771E-02  0.1025784E+00
         21   -1    0    0  502  501  0.00000000000E+00  0.00000000000E+00  0.31379153874E+03  0.31379153874E+03  0.00000000000E+00 0.  1.
         21   -1    0    0  501  502 -0.00000000000E+00 -0.00000000000E+00 -0.16607110709E+03  0.16607110709E+03  0.00000000000E+00 0.  1.
      99926    2    1    2    0    0 -0.35527136788E-14 -0.17763568394E-14  0.14772043166E+03  0.47986264583E+03  0.45655978024E+03 0.  0.
      99925    2    3    3    0    0  0.23576629741E+02 -0.11441982397E+02  0.21007633839E+03  0.33765665568E+03  0.26304595176E+03 0.  0.
         25    1    4    4    0    0  0.23276814939E+02 -0.43811956426E+02  0.11822638748E+03  0.17912644818E+03  0.12509000000E+03 0.  0.
         25    1    3    3    0    0 -0.23576629741E+02  0.11441982397E+02 -0.62355906735E+02  0.14220599015E+03  0.12509000000E+03 0.  0.
         25    1    4    4    0    0  0.29981480165E+00  0.32369974029E+02  0.91849950905E+02  0.15853020750E+03  0.12509000000E+03 0.  0.
<mgrwt>
<rscale>  2 0.45655978E+03</rscale>
<asrwt>0</asrwt>
<pdfrwt beam="1">  1       21 0.46145815E-01 0.45655978E+03</pdfrwt>
<pdfrwt beam="2">  1       21 0.24422222E-01 0.45655978E+03</pdfrwt>
<totfact> 0.65890568E+04</totfact>
</mgrwt>
</event>
<event>
 7    0  0.4709932E-002  0.4569484E+03  0.7546771E-02  0.1025670E+00
         21   -1    0    0  502  501  0.00000000000E+00  0.00000000000E+00  0.34320121958E+03  0.34320121958E+03  0.00000000000E+00 0. -1.
         21   -1    0    0  501  502 -0.00000000000E+00 -0.00000000000E+00 -0.15209867858E+03  0.15209867858E+03  0.00000000000E+00 0. -1.
      99926    2    1    2    0    0  0.00000000000E+00  0.00000000000E+00  0.19110254101E+03  0.49529989816E+03  0.45694836463E+03 0.  0.
      99925    2    3    3    0    0 -0.98611122981E+02  0.55607945260E+02  0.14196205175E+03  0.31957655613E+03  0.26298204110E+03 0.  0.
         25    1    4    4    0    0 -0.92023046174E+02  0.30020968395E+02  0.85722738097E+02  0.17990385070E+03  0.12509000000E+03 0.  0.
         25    1    3    3    0    0  0.98611122981E+02 -0.55607945260E+02  0.49140489259E+02  0.17572334204E+03  0.12509000000E+03 0.  0.
         25    1    4    4    0    0 -0.65880768064E+01  0.25586976865E+02  0.56239313651E+02  0.13967270543E+03  0.12509000000E+03 0.  0.
<mgrwt>
<rscale>  2 0.45694836E+03</rscale>
<asrwt>0</asrwt>
<pdfrwt beam="1">  1       21 0.50470767E-01 0.45694836E+03</pdfrwt>
<pdfrwt beam="2">  1       21 0.22367453E-01 0.45694836E+03</pdfrwt>
<totfact> 0.64597192E+04</totfact>
</mgrwt>
</event>
<event>
 7    0  0.4709932E-002  0.4545618E+03  0.7546771E-02  0.1026370E+00
         21   -1    0    0  502  501  0.00000000000E+00  0.00000000000E+00  0.28857929948E+03  0.28857929948E+03  0.00000000000E+00 0. -1.
         21   -1    0    0  501  502 -0.00000000000E+00 -0.00000000000E+00 -0.17900315490E+03  0.17900315490E+03  0.00000000000E+00 0. -1.
      99926    2    1    2    0    0 -0.14210854715E-13  0.00000000000E+00  0.10957614458E+03  0.46758245438E+03  0.45456178918E+03 0.  0.
      99925    2    3    3    0    0 -0.93168758127E+02 -0.44537008631E+01  0.38548121570E+01  0.27910231969E+03  0.26302660005E+03 0.  0.
         25    1    3    3    0    0  0.93168758127E+02  0.44537008631E+01  0.10572133242E+03  0.18848013469E+03  0.12509000000E+03 0.  0.
         25    1    4    4    0    0 -0.43173110215E+02 -0.36209386495E+02 -0.20040758543E+02  0.13865127918E+03  0.12509000000E+03 0.  0.
         25    1    4    4    0    0 -0.49995647912E+02  0.31755685632E+02  0.23895570700E+02  0.14045104051E+03  0.12509000000E+03 0.  0.
<mgrwt>
<rscale>  2 0.45456179E+03</rscale>
<asrwt>0</asrwt>
<pdfrwt beam="1">  1       21 0.42438133E-01 0.45456179E+03</pdfrwt>
<pdfrwt beam="2">  1       21 0.26323993E-01 0.45456179E+03</pdfrwt>
<totfact> 0.67851618E+04</totfact>
</mgrwt>
</event>
<event>
 7    0  0.4709932E-002  0.4558265E+03  0.7546771E-02  0.1025999E+00
         21   -1    0    0  502  501  0.00000000000E+00  0.00000000000E+00  0.41241554590E+02  0.41241554590E+02  0.00000000000E+00 0. -1.
         21   -1    0    0  501  502 -0.00000000000E+00 -0.00000000000E+00 -0.12595171436E+04  0.12595171436E+04  0.00000000000E+00 0. -1.
      99926    2    1    2    0    0  0.00000000000E+00  0.00000000000E+00 -0.12182755890E+04  0.13007586982E+04  0.45582648029E+03 0.  0.
      99925    2    3    3    0    0 -0.18547420562E+02 -0.52623469161E+02 -0.48242813456E+03  0.55227207798E+03  0.26297206464E+03 0.  0.
         25    1    4    4    0    0 -0.24386620947E+02 -0.30232437903E+02 -0.16757886582E+03  0.21269436276E+03  0.12509000000E+03 0.  0.
         25    1    4    4    0    0  0.58392003853E+01 -0.22391031258E+02 -0.31484926874E+03  0.33957771521E+03  0.12509000000E+03 0.  0.
         25    1    3    3    0    0  0.18547420562E+02  0.52623469161E+02 -0.73584745442E+03  0.74848662018E+03  0.12509000000E+03 0.  0.
<mgrwt>
<rscale>  2 0.45582648E+03</rscale>
<asrwt>0</asrwt>
<pdfrwt beam="1">  1       21 0.60649357E-02 0.45582648E+03</pdfrwt>
<pdfrwt beam="2">  1       21 0.18522307E+00 0.45582648E+03</pdfrwt>
<totfact> 0.28906421E+04</totfact>
</mgrwt>
</event>
<event>
 7    0  0.4709932E-002  0.4536180E+03  0.7546771E-02  0.1026649E+00
         21   -1    0    0  502  501  0.00000000000E+00  0.00000000000E+00  0.11997224293E+03  0.11997224293E+03  0.00000000000E+00 0.  1.
         21   -1    0    0  501  502 -0.00000000000E+00 -0.00000000000E+00 -0.42878527074E+03  0.42878527074E+03  0.00000000000E+00 0.  1.
      99926    2    1    2    0    0  0.00000000000E+00  0.00000000000E+00 -0.30881302781E+03  0.54875751367E+03  0.45361803609E+03 0.  0.
      99925    2    3    3    0    0  0.65569488873E+02 -0.23235670485E+02 -0.30063330910E+03  0.40539200125E+03  0.26291259742E+03 0.  0.
         25    1    4    4    0    0  0.32063731702E+02 -0.40951169575E+02 -0.11132458661E+03  0.17534466876E+03  0.12509000000E+03 0.  0.
         25    1    4    4    0    0  0.33505757171E+02  0.17715499090E+02 -0.18930872250E+03  0.23004733249E+03  0.12509000000E+03 0.  0.
         25    1    3    3    0    0 -0.65569488873E+02  0.23235670485E+02 -0.81797187015E+01  0.14336551242E+03  0.12509000000E+03 0.  0.
<mgrwt>
<rscale>  2 0.45361804E+03</rscale>
<asrwt>0</asrwt>
<pdfrwt beam="1">  1       21 0.17642977E-01 0.45361804E+03</pdfrwt>
<pdfrwt beam="2">  1       21 0.63056657E-01 0.45361804E+03</pdfrwt>
<totfact> 0.62630709E+04</totfact>
</mgrwt>
</event>
<event>
 7    0  0.4709932E-002  0.4670554E+03  0.7546771E-02  0.1022755E+00
         21   -1    0    0  502  501  0.00000000000E+00  0.00000000000E+00  0.68313911859E+03  0.68313911859E+03  0.00000000000E+00 0. -1.
         21   -1    0    0  501  502 -0.00000000000E+00 -0.00000000000E+00 -0.79830286825E+02  0.79830286825E+02  0.00000000000E+00 0. -1.
      99926    2    1    2    0    0  0.00000000000E+00  0.00000000000E+00  0.60330883177E+03  0.76296940542E+03  0.46705542189E+03 0.  0.
      99925    2    3    3    0    0  0.80004027912E+02  0.94441163155E+02  0.36288177805E+03  0.46502233958E+03  0.26314029279E+03 0.  0.
         25    1    4    4    0    0  0.58308660062E+02  0.85311643121E+02  0.22462652693E+03  0.27709666363E+03  0.12509000000E+03 0.  0.
         25    1    4    4    0    0  0.21695367850E+02  0.91295200343E+01  0.13825525111E+03  0.18792567595E+03  0.12509000000E+03 0.  0.
         25    1    3    3    0    0 -0.80004027912E+02 -0.94441163155E+02  0.24042705372E+03  0.29794706584E+03  0.12509000000E+03 0.  0.
<mgrwt>
<rscale>  2 0.46705542E+03</rscale>
<asrwt>0</asrwt>
<pdfrwt beam="1">  1       21 0.10046163E+00 0.46705542E+03</pdfrwt>
<pdfrwt beam="2">  1       21 0.11739748E-01 0.46705542E+03</pdfrwt>
<totfact> 0.45177749E+04</totfact>
</mgrwt>
</event>
<event>
 7    0  0.4709932E-002  0.4542320E+03  0.7546771E-02  0.1026467E+00
         21   -1    0    0  502  501  0.00000000000E+00  0.00000000000E+00  0.20746469205E+03  0.20746469205E+03  0.00000000000E+00 0.  1.
         21   -1    0    0  501  502 -0.00000000000E+00 -0.00000000000E+00 -0.24862874200E+03  0.24862874200E+03  0.00000000000E+00 0.  1.
      99926    2    1    2    0    0 -0.14210854715E-13  0.00000000000E+00 -0.41164049953E+02  0.45609343406E+03  0.45423203496E+03 0.  0.
      99925    2    3    3    0    0  0.79894497110E+02 -0.68828274775E+02  0.13465984105E+02  0.28360456254E+03  0.26292537551E+03 0.  0.
         25    1    3    3    0    0 -0.79894497110E+02  0.68828274775E+02 -0.54630034058E+02  0.17248887152E+03  0.12509000000E+03 0.  0.
         25    1    4    4    0    0  0.69207872700E+02 -0.38556284418E+02  0.36314616697E+02  0.15245516127E+03  0.12509000000E+03 0.  0.
         25    1    4    4    0    0  0.10686624410E+02 -0.30271990357E+02 -0.22848632592E+02  0.13114940127E+03  0.12509000000E+03 0.  0.
<mgrwt>
<rscale>  2 0.45423203E+03</rscale>
<asrwt>0</asrwt>
<pdfrwt beam="1">  1       21 0.30509514E-01 0.45423203E+03</pdfrwt>
<pdfrwt beam="2">  1       21 0.36563050E-01 0.45423203E+03</pdfrwt>
<totfact> 0.68886904E+04</totfact>
</mgrwt>
</event>
<event>
 7    0  0.4709932E-002  0.4936853E+03  0.7546771E-02  0.1015440E+00
         21   -1    0    0  502  501  0.00000000000E+00  0.00000000000E+00  0.16129280163E+04  0.16129280163E+04  0.00000000000E+00 0. -1.
         21   -1    0    0  501  502 -0.00000000000E+00 -0.00000000000E+00 -0.37776816490E+02  0.37776816490E+02  0.00000000000E+00 0. -1.
      99926    2    1    2    0    0  0.00000000000E+00 -0.17763568394E-14  0.15751511998E+04  0.16507048328E+04  0.49368526687E+03 0.  0.
      99925    2    3    3    0    0  0.14305639139E+03  0.84868187329E+01  0.85583308907E+03  0.90665966632E+03  0.26276285310E+03 0.  0.
         25    1    4    4    0    0  0.10035625643E+03 -0.26560356910E+02  0.46349201568E+03  0.49117124046E+03  0.12509000000E+03 0.  0.
         25    1    3    3    0    0 -0.14305639139E+03 -0.84868187329E+01  0.71931811070E+03  0.74404516643E+03  0.12509000000E+03 0.  0.
         25    1    4    4    0    0  0.42700134965E+02  0.35047175643E+02  0.39234107340E+03  0.41548842586E+03  0.12509000000E+03 0.  0.
<mgrwt>
<rscale>  2 0.49368527E+03</rscale>
<asrwt>0</asrwt>
<pdfrwt beam="1">  1       21 0.23719525E+00 0.49368527E+03</pdfrwt>
<pdfrwt beam="2">  1       21 0.55554153E-02 0.49368527E+03</pdfrwt>
<totfact> 0.15202820E+04</totfact>
</mgrwt>
</event>
<event>
 7    0  0.4709932E-002  0.4605121E+03  0.7546771E-02  0.1024633E+00
         21   -1    0    0  502  501  0.00000000000E+00  0.00000000000E+00  0.13544141896E+03  0.13544141896E+03  0.00000000000E+00 0. -1.
         21   -1    0    0  501  502 -0.00000000000E+00 -0.00000000000E+00 -0.39144495078E+03  0.39144495078E+03  0.00000000000E+00 0. -1.
      99926    2    1    2    0    0  0.00000000000E+00  0.00000000000E+00 -0.25600353182E+03  0.52688636973E+03  0.46051214784E+03 0.  0.
      99925    2    3    3    0    0  0.82986031169E+02  0.79754739035E+02 -0.12990876524E+03  0.31523831747E+03  0.26315662589E+03 0.  0.
         25    1    4    4    0    0  0.39167767888E+02 -0.24112849210E+01 -0.64905647994E+02  0.14628800217E+03  0.12509000000E+03 0.  0.
         25    1    4    4    0    0  0.43818263281E+02  0.82166023956E+02 -0.65003117246E+02  0.16895031530E+03  0.12509000000E+03 0.  0.
         25    1    3    3    0    0 -0.82986031169E+02 -0.79754739035E+02 -0.12609476658E+03  0.21164805226E+03  0.12509000000E+03 0.  0.
<mgrwt>
<rscale>  2 0.46051215E+03</rscale>
<asrwt>0</asrwt>
<pdfrwt beam="1">  1       21 0.19917856E-01 0.46051215E+03</pdfrwt>
<pdfrwt beam="2">  1       21 0.57565434E-01 0.46051215E+03</pdfrwt>
<totfact> 0.60720701E+04</totfact>
</mgrwt>
</event>
<event>
 7    0  0.4709932E-002  0.4556909E+03  0.7546771E-02  0.1026038E+00
         21   -1    0    0  502  501  0.00000000000E+00  0.00000000000E+00  0.37653847455E+03  0.37653847455E+03  0.00000000000E+00 0.  1.
         21   -1    0    0  501  502 -0.00000000000E+00 -0.00000000000E+00 -0.13787050773E+03  0.13787050773E+03  0.00000000000E+00 0.  1.
      99926    2    1    2    0    0  0.00000000000E+00  0.00000000000E+00  0.23866796681E+03  0.51440898228E+03  0.45569090694E+03 0.  0.
      99925    2    3    3    0    0  0.26939988808E+02  0.14163303622E+02  0.27398702363E+03  0.38091251775E+03  0.26286706697E+03 0.  0.
         25    1    4    4    0    0  0.54612824163E+01 -0.21651260579E+02  0.17379588748E+03  0.21529310555E+03  0.12509000000E+03 0.  0.
         25    1    3    3    0    0 -0.26939988808E+02 -0.14163303622E+02 -0.35319056818E+02  0.13349646453E+03  0.12509000000E+03 0.  0.
         25    1    4    4    0    0  0.21478706392E+02  0.35814564201E+02  0.10019113615E+03  0.16561941221E+03  0.12509000000E+03 0.  0.
<mgrwt>
<rscale>  2 0.45569091E+03</rscale>
<asrwt>0</asrwt>
<pdfrwt beam="1">  1       21 0.55373305E-01 0.45569091E+03</pdfrwt>
<pdfrwt beam="2">  1       21 0.20275075E-01 0.45569091E+03</pdfrwt>
<totfact> 0.63918629E+04</totfact>
</mgrwt>
</event>
<event>
 7    0  0.4709932E-002  0.4558301E+03  0.7546771E-02  0.1025998E+00
         21   -1    0    0  502  501  0.00000000000E+00  0.00000000000E+00  0.12266238879E+03  0.12266238879E+03  0.00000000000E+00 0. -1.
         21   -1    0    0  501  502 -0.00000000000E+00 -0.00000000000E+00 -0.42348170469E+03  0.42348170469E+03  0.00000000000E+00 0. -1.
      99926    2    1    2    0    0  0.00000000000E+00  0.00000000000E+00 -0.30081931589E+03  0.54614409348E+03  0.45583013286E+03 0.  0.
      99925    2    3    3    0    0 -0.92676499553E+02  0.64572530956E+02 -0.20704345805E+03  0.35327116915E+03  0.26301136878E+03 0.  0.
         25    1    4    4    0    0 -0.86346023947E+02  0.39765179637E+02 -0.13174023090E+03  0.20503634288E+03  0.12509000000E+03 0.  0.
         25    1    3    3    0    0  0.92676499553E+02 -0.64572530956E+02 -0.93775857845E+02  0.19287292433E+03  0.12509000000E+03 0.  0.
         25    1    4    4    0    0 -0.63304756068E+01  0.24807351319E+02 -0.75303227153E+02  0.14823482627E+03  0.12509000000E+03 0.  0.
<mgrwt>
<rscale>  2 0.45583013E+03</rscale>
<asrwt>0</asrwt>
<pdfrwt beam="1">  1       21 0.18038587E-01 0.45583013E+03</pdfrwt>
<pdfrwt beam="2">  1       21 0.62276721E-01 0.45583013E+03</pdfrwt>
<totfact> 0.61715650E+04</totfact>
</mgrwt>
</event>
<event>
 7    0  0.4709932E-002  0.4562318E+03  0.7546771E-02  0.1025880E+00
         21   -1    0    0  502  501  0.00000000000E+00  0.00000000000E+00  0.12838555002E+03  0.12838555002E+03  0.00000000000E+00 0. -1.
         21   -1    0    0  501  502 -0.00000000000E+00 -0.00000000000E+00 -0.40531712931E+03  0.40531712931E+03  0.00000000000E+00 0. -1.
      99926    2    1    2    0    0  0.00000000000E+00  0.00000000000E+00 -0.27693157930E+03  0.53370267933E+03  0.45623179450E+03 0.  0.
      99925    2    3    3    0    0  0.23275196441E+02 -0.28946736998E+02 -0.47586561714E+02  0.26983473217E+03  0.26299553889E+03 0.  0.
         25    1    3    3    0    0 -0.23275196441E+02  0.28946736998E+02 -0.22934501758E+03  0.26386794717E+03  0.12509000000E+03 0.  0.
         25    1    4    4    0    0  0.51460455759E+02 -0.21331184564E+02 -0.30043905435E+02  0.14019037876E+03  0.12509000000E+03 0.  0.
         25    1    4    4    0    0 -0.28185259318E+02 -0.76155524344E+01 -0.17542656279E+02  0.12964435341E+03  0.12509000000E+03 0.  0.
<mgrwt>
<rscale>  2 0.45623179E+03</rscale>
<asrwt>0</asrwt>
<pdfrwt beam="1">  1       21 0.18880228E-01 0.45623179E+03</pdfrwt>
<pdfrwt beam="2">  1       21 0.59605461E-01 0.45623179E+03</pdfrwt>
<totfact> 0.62345655E+04</totfact>
</mgrwt>
</event>
<event>
 7    0  0.4709932E-002  0.4567986E+03  0.7546771E-02  0.1025714E+00
         21   -1    0    0  502  501  0.00000000000E+00  0.00000000000E+00  0.41486375643E+03  0.41486375643E+03  0.00000000000E+00 0. -1.
         21   -1    0    0  501  502 -0.00000000000E+00 -0.00000000000E+00 -0.12574305612E+03  0.12574305612E+03  0.00000000000E+00 0. -1.
      99926    2    1    2    0    0 -0.17763568394E-14  0.00000000000E+00  0.28912070031E+03  0.54060681254E+03  0.45679858408E+03 0.  0.
      99925    2    3    3    0    0  0.14911046858E+02 -0.10644617177E+03  0.13287615439E+03  0.31342188119E+03  0.26272433538E+03 0.  0.
         25    1    4    4    0    0  0.99703124677E+01 -0.95295539524E+02  0.84076253170E+02  0.17859723243E+03  0.12509000000E+03 0.  0.
         25    1    4    4    0    0  0.49407343907E+01 -0.11150632245E+02  0.48799901222E+02  0.13482464877E+03  0.12509000000E+03 0.  0.
         25    1    3    3    0    0 -0.14911046858E+02  0.10644617177E+03  0.15624454592E+03  0.22718493135E+03  0.12509000000E+03 0.  0.
<mgrwt>
<rscale>  2 0.45679858E+03</rscale>
<asrwt>0</asrwt>
<pdfrwt beam="1">  1       21 0.61009375E-01 0.45679858E+03</pdfrwt>
<pdfrwt beam="2">  1       21 0.18491626E-01 0.45679858E+03</pdfrwt>
<totfact> 0.61609891E+04</totfact>
</mgrwt>
</event>
<event>
 7    0  0.4709932E-002  0.4572329E+03  0.7546771E-02  0.1025587E+00
         21   -1    0    0  502  501  0.00000000000E+00  0.00000000000E+00  0.16370449839E+03  0.16370449839E+03  0.00000000000E+00 0. -1.
         21   -1    0    0  501  502 -0.00000000000E+00 -0.00000000000E+00 -0.31926717108E+03  0.31926717108E+03  0.00000000000E+00 0. -1.
      99926    2    1    2    0    0  0.00000000000E+00  0.00000000000E+00 -0.15556267269E+03  0.48297166947E+03  0.45723286012E+03 0.  0.
      99925    2    3    3    0    0  0.98448865180E+02 -0.27163909654E+02 -0.15393850429E+03  0.32147800685E+03  0.26309881935E+03 0.  0.
         25    1    3    3    0    0 -0.98448865180E+02  0.27163909654E+02 -0.16241684031E+01  0.16149366262E+03  0.12509000000E+03 0.  0.
         25    1    4    4    0    0  0.16789361385E+02  0.11541768356E+02 -0.54932286044E+02  0.13813094955E+03  0.12509000000E+03 0.  0.
         25    1    4    4    0    0  0.81659503795E+02 -0.38705678010E+02 -0.99006218245E+02  0.18334705730E+03  0.12509000000E+03 0.  0.
<mgrwt>
<rscale>  2 0.45723286E+03</rscale>
<asrwt>0</asrwt>
<pdfrwt beam="1">  1       21 0.24074191E-01 0.45723286E+03</pdfrwt>
<pdfrwt beam="2">  1       21 0.46951054E-01 0.45723286E+03</pdfrwt>
<totfact> 0.65318997E+04</totfact>
</mgrwt>
</event>
<event>
 7    0  0.4709932E-002  0.4490856E+03  0.7546771E-02  0.1027995E+00
         21   -1    0    0  502  501  0.00000000000E+00  0.00000000000E+00  0.13364051296E+03  0.13364051296E+03  0.00000000000E+00 0. -1.
         21   -1    0    0  501  502 -0.00000000000E+00 -0.00000000000E+00 -0.37727682264E+03  0.37727682264E+03  0.00000000000E+00 0. -1.
      99926    2    1    2    0    0  0.00000000000E+00  0.00000000000E+00 -0.24363630968E+03  0.51091733560E+03  0.44908559587E+03 0.  0.
      99925    2    3    3    0    0  0.68314333656E+02  0.76066639626E+02 -0.11622400632E+03  0.30516412179E+03  0.26299075979E+03 0.  0.
         25    1    4    4    0    0 -0.31685058983E+01  0.52397265030E+02 -0.46892901104E+02  0.14353384648E+03  0.12509000000E+03 0.  0.
         25    1    3    3    0    0 -0.68314333656E+02 -0.76066639626E+02 -0.12741230335E+03  0.20575321381E+03  0.12509000000E+03 0.  0.
         25    1    4    4    0    0  0.71482839554E+02  0.23669374595E+02 -0.69331105220E+02  0.16163027531E+03  0.12509000000E+03 0.  0.
<mgrwt>
<rscale>  2 0.44908560E+03</rscale>
<asrwt>0</asrwt>
<pdfrwt beam="1">  1       21 0.19653017E-01 0.44908560E+03</pdfrwt>
<pdfrwt beam="2">  1       21 0.55481885E-01 0.44908560E+03</pdfrwt>
<totfact> 0.67628970E+04</totfact>
</mgrwt>
</event>
<event>
 7    0  0.4709932E-002  0.4574573E+03  0.7546771E-02  0.1025521E+00
         21   -1    0    0  502  501  0.00000000000E+00  0.00000000000E+00  0.20689819131E+03  0.20689819131E+03  0.00000000000E+00 0. -1.
         21   -1    0    0  501  502 -0.00000000000E+00 -0.00000000000E+00 -0.25286255642E+03  0.25286255642E+03  0.00000000000E+00 0. -1.
      99926    2    1    2    0    0  0.14210854715E-13 -0.11102230246E-14 -0.45964365109E+02  0.45976074774E+03  0.45745734479E+03 0.  0.
      99925    2    3    3    0    0 -0.10857760813E+03 -0.13069490145E+01 -0.68480860034E+02  0.29259225266E+03  0.26292545145E+03 0.  0.
         25    1    4    4    0    0 -0.22984374968E+02 -0.26431593287E+02 -0.43138638893E+02  0.13687717444E+03  0.12509000000E+03 0.  0.
         25    1    3    3    0    0  0.10857760813E+03  0.13069490145E+01  0.22516494925E+02  0.16716849508E+03  0.12509000000E+03 0.  0.
         25    1    4    4    0    0 -0.85593233163E+02  0.25124644273E+02 -0.25342221141E+02  0.15571507822E+03  0.12509000000E+03 0.  0.
<mgrwt>
<rscale>  2 0.45745734E+03</rscale>
<asrwt>0</asrwt>
<pdfrwt beam="1">  1       21 0.30426205E-01 0.45745734E+03</pdfrwt>
<pdfrwt beam="2">  1       21 0.37185670E-01 0.45745734E+03</pdfrwt>
<totfact> 0.66877555E+04</totfact>
</mgrwt>
</event>
<event>
 7    0  0.4709932E-002  0.4416484E+03  0.7546771E-02  0.1030242E+00
         21   -1    0    0  502  501  0.00000000000E+00  0.00000000000E+00  0.65303270047E+03  0.65303270047E+03  0.00000000000E+00 0. -1.
         21   -1    0    0  501  502 -0.00000000000E+00 -0.00000000000E+00 -0.74672095677E+02  0.74672095677E+02  0.00000000000E+00 0. -1.
      99926    2    1    2    0    0  0.00000000000E+00 -0.71054273576E-14  0.57836060479E+03  0.72770479615E+03  0.44164836823E+03 0.  0.
      99925    2    3    3    0    0  0.82597424675E+02 -0.54844785704E+02  0.38813740801E+03  0.47938512762E+03  0.26330432584E+03 0.  0.
         25    1    3    3    0    0 -0.82597424675E+02  0.54844785704E+02  0.19022319678E+03  0.24831966852E+03  0.12509000000E+03 0.  0.
         25    1    4    4    0    0  0.50934484629E+02 -0.33542743635E+02  0.13209066662E+03  0.19187206593E+03  0.12509000000E+03 0.  0.
         25    1    4    4    0    0  0.31662940046E+02 -0.21302042068E+02  0.25604674139E+03  0.28751306169E+03  0.12509000000E+03 0.  0.
<mgrwt>
<rscale>  2 0.44164837E+03</rscale>
<asrwt>0</asrwt>
<pdfrwt beam="1">  1       21 0.96034218E-01 0.44164837E+03</pdfrwt>
<pdfrwt beam="2">  1       21 0.10981191E-01 0.44164837E+03</pdfrwt>
<totfact> 0.57197549E+04</totfact>
</mgrwt>
</event>
<event>
 7    0  0.4709932E-002  0.4525160E+03  0.7546771E-02  0.1026974E+00
         21   -1    0    0  502  501  0.00000000000E+00  0.00000000000E+00  0.10830675473E+04  0.10830675473E+04  0.00000000000E+00 0. -1.
         21   -1    0    0  501  502 -0.00000000000E+00 -0.00000000000E+00 -0.47266375802E+02  0.47266375802E+02  0.00000000000E+00 0. -1.
      99926    2    1    2    0    0  0.00000000000E+00  0.71054273576E-14  0.10358011715E+04  0.11303339231E+04  0.45251597855E+03 0.  0.
      99925    2    3    3    0    0 -0.89502406723E+01 -0.47533100981E+02  0.90230690098E+03  0.94110461551E+03  0.26302214978E+03 0.  0.
         25    1    4    4    0    0 -0.15280521052E+02 -0.63543228928E+02  0.46924118122E+03  0.49000615355E+03  0.12509000000E+03 0.  0.
         25    1    3    3    0    0  0.89502406723E+01  0.47533100981E+02  0.13349427056E+03  0.18922930764E+03  0.12509000000E+03 0.  0.
         25    1    4    4    0    0  0.63302803795E+01  0.16010127947E+02  0.43306571976E+03  0.45109846196E+03  0.12509000000E+03 0.  0.
<mgrwt>
<rscale>  2 0.45251598E+03</rscale>
<asrwt>0</asrwt>
<pdfrwt beam="1">  1       21 0.15927462E+00 0.45251598E+03</pdfrwt>
<pdfrwt beam="2">  1       21 0.69509383E-02 0.45251598E+03</pdfrwt>
<totfact> 0.35120962E+04</totfact>
</mgrwt>
</event>
<event>
 7    0  0.4709932E-002  0.4425762E+03  0.7546771E-02  0.1029959E+00
         21   -1    0    0  502  501  0.00000000000E+00  0.00000000000E+00  0.20616624783E+03  0.20616624783E+03  0.00000000000E+00 0.  1.
         21   -1    0    0  501  502 -0.00000000000E+00 -0.00000000000E+00 -0.23751909220E+03  0.23751909220E+03  0.00000000000E+00 0.  1.
      99926    2    1    2    0    0  0.00000000000E+00  0.00000000000E+00 -0.31352844367E+02  0.44368534003E+03  0.44257618565E+03 0.  0.
      99925    2    3    3    0    0 -0.50673840354E+02 -0.87288130121E+02 -0.15476433902E+02  0.28217179798E+03  0.26304818534E+03 0.  0.
         25    1    4    4    0    0 -0.62507058824E+02 -0.42000761029E+02  0.94103513249E+01  0.14631219752E+03  0.12509000000E+03 0.  0.
         25    1    4    4    0    0  0.11833218471E+02 -0.45287369092E+02 -0.24886785227E+02  0.13585960046E+03  0.12509000000E+03 0.  0.
         25    1    3    3    0    0  0.50673840354E+02  0.87288130121E+02 -0.15876410464E+02  0.16151354205E+03  0.12509000000E+03 0.  0.
<mgrwt>
<rscale>  2 0.44257619E+03</rscale>
<asrwt>0</asrwt>
<pdfrwt beam="1">  1       21 0.30318566E-01 0.44257619E+03</pdfrwt>
<pdfrwt beam="2">  1       21 0.34929278E-01 0.44257619E+03</pdfrwt>
<totfact> 0.76709371E+04</totfact>
</mgrwt>
</event>
<event>
 7    0  0.4709932E-002  0.4520421E+03  0.7546771E-02  0.1027115E+00
         21   -1    0    0  502  501  0.00000000000E+00  0.00000000000E+00  0.37013137609E+03  0.37013137609E+03  0.00000000000E+00 0.  1.
         21   -1    0    0  501  502 -0.00000000000E+00 -0.00000000000E+00 -0.13801993327E+03  0.13801993327E+03  0.00000000000E+00 0.  1.
      99926    2    1    2    0    0  0.00000000000E+00  0.00000000000E+00  0.23211144282E+03  0.50815130936E+03  0.45204206808E+03 0.  0.
      99925    2    3    3    0    0  0.10250227054E+03  0.18372553643E+02  0.10527868595E+03  0.30180615553E+03  0.26298115447E+03 0.  0.
         25    1    3    3    0    0 -0.10250227054E+03 -0.18372553643E+02  0.12683275687E+03  0.20634515383E+03  0.12509000000E+03 0.  0.
         25    1    4    4    0    0  0.36334878704E+02 -0.16530314736E+02  0.80345409384E+02  0.15393624532E+03  0.12509000000E+03 0.  0.
         25    1    4    4    0    0  0.66167391837E+02  0.34902868379E+02  0.24933276566E+02  0.14786991020E+03  0.12509000000E+03 0.  0.
<mgrwt>
<rscale>  2 0.45204207E+03</rscale>
<asrwt>0</asrwt>
<pdfrwt beam="1">  1       21 0.54431085E-01 0.45204207E+03</pdfrwt>
<pdfrwt beam="2">  1       21 0.20297049E-01 0.45204207E+03</pdfrwt>
<totfact> 0.66243176E+04</totfact>
</mgrwt>
</event>
<event>
 7    0  0.4709932E-002  0.4571936E+03  0.7546771E-02  0.1025598E+00
         21   -1    0    0  502  501  0.00000000000E+00  0.00000000000E+00  0.18950009280E+03  0.18950009280E+03  0.00000000000E+00 0.  1.
         21   -1    0    0  501  502 -0.00000000000E+00 -0.00000000000E+00 -0.27575970285E+03  0.27575970285E+03  0.00000000000E+00 0.  1.
      99926    2    1    2    0    0  0.00000000000E+00 -0.14210854715E-13 -0.86259610059E+02  0.46525979565E+03  0.45719356636E+03 0.  0.
      99925    2    3    3    0    0 -0.68239568591E+02  0.92495749989E+02 -0.45831025346E+02  0.29063425041E+03  0.26297467966E+03 0.  0.
         25    1    4    4    0    0 -0.22919592503E+02  0.48811464117E+02 -0.62009334520E+02  0.14966807414E+03  0.12509000000E+03 0.  0.
         25    1    4    4    0    0 -0.45319976088E+02  0.43684285872E+02  0.16178309174E+02  0.14096617627E+03  0.12509000000E+03 0.  0.
         25    1    3    3    0    0  0.68239568591E+02 -0.92495749989E+02 -0.40428584713E+02  0.17462554524E+03  0.12509000000E+03 0.  0.
<mgrwt>
<rscale>  2 0.45719357E+03</rscale>
<asrwt>0</asrwt>
<pdfrwt beam="1">  1       21 0.27867661E-01 0.45719357E+03</pdfrwt>
<pdfrwt beam="2">  1       21 0.40552898E-01 0.45719357E+03</pdfrwt>
<totfact> 0.66621589E+04</totfact>
</mgrwt>
</event>
<event>
 7    0  0.4709932E-002  0.4464028E+03  0.7546771E-02  0.1028800E+00
         21   -1    0    0  502  501  0.00000000000E+00  0.00000000000E+00  0.87847409513E+03  0.87847409513E+03  0.00000000000E+00 0.  1.
         21   -1    0    0  501  502 -0.00000000000E+00 -0.00000000000E+00 -0.56710689361E+02  0.56710689361E+02  0.00000000000E+00 0.  1.
      99926    2    1    2    0    0 -0.14210854715E-13 -0.71054273576E-14  0.82176340576E+03  0.93518478449E+03  0.44640282938E+03 0.  0.
      99925    2    3    3    0    0  0.78571217508E+02  0.46895133188E+02  0.62849462779E+03  0.68744920291E+03  0.26307474164E+03 0.  0.
         25    1    3    3    0    0 -0.78571217508E+02 -0.46895133188E+02  0.19326877798E+03  0.24773558157E+03  0.12509000000E+03 0.  0.
         25    1    4    4    0    0  0.41066501791E+02  0.40012255765E+02  0.41362001792E+03  0.43590878117E+03  0.12509000000E+03 0.  0.
         25    1    4    4    0    0  0.37504715717E+02  0.68828774228E+01  0.21487460987E+03  0.25154042174E+03  0.12509000000E+03 0.  0.
<mgrwt>
<rscale>  2 0.44640283E+03</rscale>
<asrwt>0</asrwt>
<pdfrwt beam="1">  1       21 0.12918736E+00 0.44640283E+03</pdfrwt>
<pdfrwt beam="2">  1       21 0.83398078E-02 0.44640283E+03</pdfrwt>
<totfact> 0.44675732E+04</totfact>
</mgrwt>
</event>
<event>
 7    0  0.4709932E-002  0.4572750E+03  0.7546771E-02  0.1025575E+00
         21   -1    0    0  502  501  0.00000000000E+00  0.00000000000E+00  0.15277676485E+03  0.15277676485E+03  0.00000000000E+00 0. -1.
         21   -1    0    0  501  502 -0.00000000000E+00 -0.00000000000E+00 -0.34216658021E+03  0.34216658021E+03  0.00000000000E+00 0. -1.
      99926    2    1    2    0    0  0.00000000000E+00  0.00000000000E+00 -0.18938981536E+03  0.49494334505E+03  0.45727498581E+03 0.  0.
      99925    2    3    3    0    0 -0.21899526266E+02 -0.30182980575E+02 -0.23694028115E+03  0.35602194114E+03  0.26309755638E+03 0.  0.
         25    1    4    4    0    0 -0.44327697856E+02 -0.12007192232E+02 -0.89483974105E+02  0.16051170420E+03  0.12509000000E+03 0.  0.
         25    1    3    3    0    0  0.21899526266E+02  0.30182980575E+02  0.47550465793E+02  0.13892140391E+03  0.12509000000E+03 0.  0.
         25    1    4    4    0    0  0.22428171590E+02 -0.18175788344E+02 -0.14745630705E+03  0.19551023695E+03  0.12509000000E+03 0.  0.
<mgrwt>
<rscale>  2 0.45727499E+03</rscale>
<asrwt>0</asrwt>
<pdfrwt beam="1">  1       21 0.22467172E-01 0.45727499E+03</pdfrwt>
<pdfrwt beam="2">  1       21 0.50318613E-01 0.45727499E+03</pdfrwt>
<totfact> 0.64455414E+04</totfact>
</mgrwt>
</event>
<event>
 7    0  0.4709932E-002  0.4329780E+03  0.7546771E-02  0.1032923E+00
         21   -1    0    0  502  501  0.00000000000E+00  0.00000000000E+00  0.44880029534E+03  0.44880029534E+03  0.00000000000E+00 0.  1.
         21   -1    0    0  501  502 -0.00000000000E+00 -0.00000000000E+00 -0.10442835769E+03  0.10442835769E+03  0.00000000000E+00 0.  1.
      99926    2    1    2    0    0  0.00000000000E+00  0.00000000000E+00  0.34437193766E+03  0.55322865303E+03  0.43297795682E+03 0.  0.
      99925    2    3    3    0    0  0.40979182035E+02 -0.70959955462E+02  0.17109639608E+03  0.32434761395E+03  0.26308323642E+03 0.  0.
         25    1    4    4    0    0  0.18436504462E+02 -0.33583856742E+02  0.13284761852E+03  0.18645047057E+03  0.12509000000E+03 0.  0.
         25    1    4    4    0    0  0.22542677573E+02 -0.37376098720E+02  0.38248777556E+02  0.13789714338E+03  0.12509000000E+03 0.  0.
         25    1    3    3    0    0 -0.40979182035E+02  0.70959955462E+02  0.17327554158E+03  0.22888103908E+03  0.12509000000E+03 0.  0.
<mgrwt>
<rscale>  2 0.43297796E+03</rscale>
<asrwt>0</asrwt>
<pdfrwt beam="1">  1       21 0.66000042E-01 0.43297796E+03</pdfrwt>
<pdfrwt beam="2">  1       21 0.15357112E-01 0.43297796E+03</pdfrwt>
<totfact> 0.73674306E+04</totfact>
</mgrwt>
</event>
<event>
 7    0  0.4709932E-002  0.4491032E+03  0.7546771E-02  0.1027990E+00
         21   -1    0    0  502  501  0.00000000000E+00  0.00000000000E+00  0.43478916586E+03  0.43478916586E+03  0.00000000000E+00 0.  1.
         21   -1    0    0  501  502 -0.00000000000E+00 -0.00000000000E+00 -0.11597214347E+03  0.11597214347E+03  0.00000000000E+00 0.  1.
      99926    2    1    2    0    0  0.00000000000E+00  0.00000000000E+00  0.31881702239E+03  0.55076130933E+03  0.44910324658E+03 0.  0.
      99925    2    3    3    0    0  0.37739259496E+02  0.99764358073E+02  0.18545357245E+03  0.33907640971E+03  0.26306388052E+03 0.  0.
         25    1    3    3    0    0 -0.37739259496E+02 -0.99764358073E+02  0.13336344994E+03  0.21168489962E+03  0.12509000000E+03 0.  0.
         25    1    4    4    0    0 -0.18451926387E+02  0.55271938923E+02  0.10925105284E+03  0.17600784490E+03  0.12509000000E+03 0.  0.
         25    1    4    4    0    0  0.56191185883E+02  0.44492419151E+02  0.76202519606E+02  0.16306856480E+03  0.12509000000E+03 0.  0.
<mgrwt>
<rscale>  2 0.44910325E+03</rscale>
<asrwt>0</asrwt>
<pdfrwt beam="1">  1       21 0.63939582E-01 0.44910325E+03</pdfrwt>
<pdfrwt beam="2">  1       21 0.17054727E-01 0.44910325E+03</pdfrwt>
<totfact> 0.64786224E+04</totfact>
</mgrwt>
</event>
<event>
 7    0  0.4709932E-002  0.4526655E+03  0.7546771E-02  0.1026930E+00
         21   -1    0    0  502  501  0.00000000000E+00  0.00000000000E+00  0.21385191296E+04  0.21385191296E+04  0.00000000000E+00 0.  1.
         21   -1    0    0  501  502 -0.00000000000E+00 -0.00000000000E+00 -0.23954198541E+02  0.23954198541E+02  0.00000000000E+00 0.  1.
      99926    2    1    2    0    0  0.00000000000E+00 -0.17763568394E-14  0.21145649311E+04  0.21624733281E+04  0.45266549157E+03 0.  0.
      99925    2    3    3    0    0 -0.86264170479E+02  0.10468506507E+02  0.99411500073E+03  0.10317184249E+04  0.26196789280E+03 0.  0.
         25    1    4    4    0    0 -0.22746563948E+02 -0.28438295253E+02  0.45348429075E+03  0.47182799076E+03  0.12509000000E+03 0.  0.
         25    1    3    3    0    0  0.86264170479E+02 -0.10468506507E+02  0.11204499303E+04  0.11307549032E+04  0.12509000000E+03 0.  0.
         25    1    4    4    0    0 -0.63517606532E+02  0.38906801761E+02  0.54063070998E+03  0.55989043414E+03  0.12509000000E+03 0.  0.
<mgrwt>
<rscale>  2 0.45266549E+03</rscale>
<asrwt>0</asrwt>
<pdfrwt beam="1">  1       21 0.31448798E+00 0.45266549E+03</pdfrwt>
<pdfrwt beam="2">  1       21 0.35226777E-02 0.45266549E+03</pdfrwt>
<totfact> 0.11439932E+04</totfact>
</mgrwt>
</event>
<event>
 7    0  0.4709932E-002  0.4593756E+03  0.7546771E-02  0.1024962E+00
         21   -1    0    0  502  501  0.00000000000E+00  0.00000000000E+00  0.23377430631E+03  0.23377430631E+03  0.00000000000E+00 0. -1.
         21   -1    0    0  501  502 -0.00000000000E+00 -0.00000000000E+00 -0.22567273080E+03  0.22567273080E+03  0.00000000000E+00 0. -1.
      99926    2    1    2    0    0 -0.71054273576E-14  0.00000000000E+00  0.81015755173E+01  0.45944703711E+03  0.45937560273E+03 0.  0.
      99925    2    3    3    0    0 -0.50210093184E+02 -0.97647419884E+02  0.46478470744E+02  0.28863612922E+03  0.26285831693E+03 0.  0.
         25    1    4    4    0    0 -0.60721201854E+02 -0.33601262686E+02  0.11993457449E+02  0.14355298788E+03  0.12509000000E+03 0.  0.
         25    1    3    3    0    0  0.50210093184E+02  0.97647419884E+02 -0.38376895227E+02  0.17081090789E+03  0.12509000000E+03 0.  0.
         25    1    4    4    0    0  0.10511108670E+02 -0.64046157197E+02  0.34485013295E+02  0.14508314133E+03  0.12509000000E+03 0.  0.
<mgrwt>
<rscale>  2 0.45937560E+03</rscale>
<asrwt>0</asrwt>
<pdfrwt beam="1">  1       21 0.34378574E-01 0.45937560E+03</pdfrwt>
<pdfrwt beam="2">  1       21 0.33187166E-01 0.45937560E+03</pdfrwt>
<totfact> 0.65890587E+04</totfact>
</mgrwt>
</event>
<event>
 7    0  0.4709932E-002  0.4603926E+03  0.7546771E-02  0.1024667E+00
         21   -1    0    0  502  501  0.00000000000E+00  0.00000000000E+00  0.44732861222E+03  0.44732861222E+03  0.00000000000E+00 0. -1.
         21   -1    0    0  501  502 -0.00000000000E+00 -0.00000000000E+00 -0.11845952453E+03  0.11845952453E+03  0.00000000000E+00 0. -1.
      99926    2    1    2    0    0  0.00000000000E+00  0.00000000000E+00  0.32886908769E+03  0.56578813675E+03  0.46039259209E+03 0.  0.
      99925    2    3    3    0    0  0.34987136517E+02 -0.82730644268E+02  0.11167881967E+03  0.29954092110E+03  0.26302879201E+03 0.  0.
         25    1    4    4    0    0  0.10262028206E+02 -0.82744544100E+02  0.56376077319E+02  0.16055447361E+03  0.12509000000E+03 0.  0.
         25    1    3    3    0    0 -0.34987136517E+02  0.82730644268E+02  0.21719026802E+03  0.26624721566E+03  0.12509000000E+03 0.  0.
         25    1    4    4    0    0  0.24725108311E+02  0.13899831829E-01  0.55302742350E+02  0.13898644749E+03  0.12509000000E+03 0.  0.
<mgrwt>
<rscale>  2 0.46039259E+03</rscale>
<asrwt>0</asrwt>
<pdfrwt beam="1">  1       21 0.65783619E-01 0.46039259E+03</pdfrwt>
<pdfrwt beam="2">  1       21 0.17420518E-01 0.46039259E+03</pdfrwt>
<totfact> 0.58308254E+04</totfact>
</mgrwt>
</event>
<event>
 7    0  0.4709932E-002  0.4537837E+03  0.7546771E-02  0.1026600E+00
         21   -1    0    0  502  501  0.00000000000E+00  0.00000000000E+00  0.98234631049E+02  0.98234631049E+02  0.00000000000E+00 0. -1.
         21   -1    0    0  501  502 -0.00000000000E+00 -0.00000000000E+00 -0.52405051991E+03  0.52405051991E+03  0.00000000000E+00 0. -1.
      99926    2    1    2    0    0 -0.14210854715E-13  0.00000000000E+00 -0.42581588886E+03  0.62228515096E+03  0.45378369065E+03 0.  0.
      99925    2    3    3    0    0 -0.89612798721E+02 -0.21549576960E+02 -0.35550111840E+03  0.45173746553E+03  0.26304154542E+03 0.  0.
         25    1    3    3    0    0  0.89612798721E+02  0.21549576960E+02 -0.70314770462E+02  0.17054768543E+03  0.12509000000E+03 0.  0.
         25    1    4    4    0    0 -0.14360063637E+02 -0.35915302957E+02 -0.18777396295E+03  0.22891633772E+03  0.12509000000E+03 0.  0.
         25    1    4    4    0    0 -0.75252735083E+02  0.14365725998E+02 -0.16772715545E+03  0.22282112780E+03  0.12509000000E+03 0.  0.
<mgrwt>
<rscale>  2 0.45378369E+03</rscale>
<asrwt>0</asrwt>
<pdfrwt beam="1">  1       21 0.14446270E-01 0.45378369E+03</pdfrwt>
<pdfrwt beam="2">  1       21 0.77066251E-01 0.45378369E+03</pdfrwt>
<totfact> 0.57880988E+04</totfact>
</mgrwt>
</event>
<event>
 7    0  0.4709932E-002  0.4565615E+03  0.7546771E-02  0.1025783E+00
         21   -1    0    0  502  501  0.00000000000E+00  0.00000000000E+00  0.43252182635E+02  0.43252182635E+02  0.00000000000E+00 0. -1.
         21   -1    0    0  501  502 -0.00000000000E+00 -0.00000000000E+00 -0.12048431135E+04  0.12048431135E+04  0.00000000000E+00 0. -1.
      99926    2    1    2    0    0  0.00000000000E+00  0.00000000000E+00 -0.11615909309E+04  0.12480952961E+04  0.45656147184E+03 0.  0.
      99925    2    3    3    0    0  0.77444497656E+02  0.35574906576E+02 -0.52022515308E+03  0.58911062772E+03  0.26297128664E+03 0.  0.
         25    1    4    4    0    0  0.49449901730E+02 -0.12265252837E+02 -0.31170175294E+03  0.33970755083E+03  0.12509000000E+03 0.  0.
         25    1    4    4    0    0  0.27994595925E+02  0.47840159413E+02 -0.20852340015E+03  0.24940307689E+03  0.12509000000E+03 0.  0.
         25    1    3    3    0    0 -0.77444497656E+02 -0.35574906576E+02 -0.64136577779E+03  0.65898466842E+03  0.12509000000E+03 0.  0.
<mgrwt>
<rscale>  2 0.45656147E+03</rscale>
<asrwt>0</asrwt>
<pdfrwt beam="1">  1       21 0.63606148E-02 0.45656147E+03</pdfrwt>
<pdfrwt beam="2">  1       21 0.17718282E+00 0.45656147E+03</pdfrwt>
<totfact> 0.30290278E+04</totfact>
</mgrwt>
</event>
<event>
 7    0  0.4709932E-002  0.4547717E+03  0.7546771E-02  0.1026309E+00
         21   -1    0    0  502  501  0.00000000000E+00  0.00000000000E+00  0.27576229667E+03  0.27576229667E+03  0.00000000000E+00 0. -1.
         21   -1    0    0  501  502 -0.00000000000E+00 -0.00000000000E+00 -0.18749596302E+03  0.18749596302E+03  0.00000000000E+00 0. -1.
      99926    2    1    2    0    0  0.00000000000E+00  0.00000000000E+00  0.88266333651E+02  0.46325825969E+03  0.45477166745E+03 0.  0.
      99925    2    3    3    0    0  0.92167561146E+02  0.52823945263E+02  0.16470037422E+02  0.28412857266E+03  0.26300675876E+03 0.  0.
         25    1    4    4    0    0  0.62534152857E+02 -0.91092985817E+01  0.18896972479E+02  0.14141465010E+03  0.12509000000E+03 0.  0.
         25    1    4    4    0    0  0.29633408289E+02  0.61933243844E+02 -0.24269350568E+01  0.14271392256E+03  0.12509000000E+03 0.  0.
         25    1    3    3    0    0 -0.92167561146E+02 -0.52823945263E+02  0.71796296229E+02  0.17912968702E+03  0.12509000000E+03 0.  0.
<mgrwt>
<rscale>  2 0.45477167E+03</rscale>
<asrwt>0</asrwt>
<pdfrwt beam="1">  1       21 0.40553279E-01 0.45477167E+03</pdfrwt>
<pdfrwt beam="2">  1       21 0.27572936E-01 0.45477167E+03</pdfrwt>
<totfact> 0.68063140E+04</totfact>
</mgrwt>
</event>
<event>
 7    0  0.4709932E-002  0.4573632E+03  0.7546771E-02  0.1025549E+00
         21   -1    0    0  502  501  0.00000000000E+00  0.00000000000E+00  0.43625487317E+02  0.43625487317E+02  0.00000000000E+00 0.  1.
         21   -1    0    0  501  502 -0.00000000000E+00 -0.00000000000E+00 -0.11987320434E+04  0.11987320434E+04  0.00000000000E+00 0.  1.
      99926    2    1    2    0    0  0.71054273576E-14  0.00000000000E+00 -0.11551065561E+04  0.12423575307E+04  0.45736317979E+03 0.  0.
      99925    2    3    3    0    0  0.53677508919E+02 -0.38287111749E+02 -0.98399953414E+03  0.10203838860E+04  0.26187976965E+03 0.  0.
         25    1    4    4    0    0  0.55011715133E+02 -0.47233285280E+02 -0.53678115709E+03  0.55591257474E+03  0.12509000000E+03 0.  0.
         25    1    4    4    0    0 -0.13342062138E+01  0.89461735318E+01 -0.44721837704E+03  0.46447131127E+03  0.12509000000E+03 0.  0.
         25    1    3    3    0    0 -0.53677508919E+02  0.38287111749E+02 -0.17110702197E+03  0.22197364474E+03  0.12509000000E+03 0.  0.
<mgrwt>
<rscale>  2 0.45736318E+03</rscale>
<asrwt>0</asrwt>
<pdfrwt beam="1">  1       21 0.64155130E-02 0.45736318E+03</pdfrwt>
<pdfrwt beam="2">  1       21 0.17628412E+00 0.45736318E+03</pdfrwt>
<totfact> 0.30274951E+04</totfact>
</mgrwt>
</event>
<event>
 7    0  0.4709932E-002  0.4550103E+03  0.7546771E-02  0.1026238E+00
         21   -1    0    0  502  501  0.00000000000E+00  0.00000000000E+00  0.23183946540E+03  0.23183946540E+03  0.00000000000E+00 0. -1.
         21   -1    0    0  501  502 -0.00000000000E+00 -0.00000000000E+00 -0.22325182595E+03  0.22325182595E+03  0.00000000000E+00 0. -1.
      99926    2    1    2    0    0  0.00000000000E+00  0.00000000000E+00  0.85876394575E+01  0.45509129135E+03  0.45501025913E+03 0.  0.
      99925    2    3    3    0    0  0.93157613647E+02 -0.35638734323E+02 -0.48230543843E+02  0.28531415974E+03  0.26292493990E+03 0.  0.
         25    1    3    3    0    0 -0.93157613647E+02  0.35638734323E+02  0.56818183301E+02  0.16977713161E+03  0.12509000000E+03 0.  0.
         25    1    4    4    0    0  0.28165118904E+02  0.51919671722E+01  0.69695010519E+01  0.12851580639E+03  0.12509000000E+03 0.  0.
         25    1    4    4    0    0  0.64992494743E+02 -0.40830701495E+02 -0.55200044895E+02  0.15679835335E+03  0.12509000000E+03 0.  0.
<mgrwt>
<rscale>  2 0.45501026E+03</rscale>
<asrwt>0</asrwt>
<pdfrwt beam="1">  1       21 0.34094039E-01 0.45501026E+03</pdfrwt>
<pdfrwt beam="2">  1       21 0.32831151E-01 0.45501026E+03</pdfrwt>
<totfact> 0.68533497E+04</totfact>
</mgrwt>
</event>
<event>
 7    0  0.4709932E-002  0.4299499E+03  0.7546771E-02  0.1033876E+00
         21   -1    0    0  502  501  0.00000000000E+00  0.00000000000E+00  0.11348815564E+04  0.11348815564E+04  0.00000000000E+00 0.  1.
         21   -1    0    0  501  502 -0.00000000000E+00 -0.00000000000E+00 -0.40721641005E+02  0.40721641005E+02  0.00000000000E+00 0.  1.
      99926    2    1    2    0    0  0.14210854715E-13  0.00000000000E+00  0.10941599154E+04  0.11756031974E+04  0.42994994742E+03 0.  0.
      99925    2    3    3    0    0 -0.84727566862E+02  0.77859933817E+01  0.64856760051E+03  0.70502971594E+03  0.26303533154E+03 0.  0.
         25    1    3    3    0    0  0.84727566862E+02 -0.77859933817E+01  0.44559231486E+03  0.47057348145E+03  0.12509000000E+03 0.  0.
         25    1    4    4    0    0 -0.10802866007E+01  0.12719617042E+02  0.28349431313E+03  0.31012818213E+03  0.12509000000E+03 0.  0.
         25    1    4    4    0    0 -0.83647280261E+02 -0.49336236605E+01  0.36507328738E+03  0.39490153380E+03  0.12509000000E+03 0.  0.
<mgrwt>
<rscale>  2 0.42994995E+03</rscale>
<asrwt>0</asrwt>
<pdfrwt beam="1">  1       21 0.16689433E+00 0.42994995E+03</pdfrwt>
<pdfrwt beam="2">  1       21 0.59884774E-02 0.42994995E+03</pdfrwt>
<totfact> 0.40236498E+04</totfact>
</mgrwt>
</event>
<event>
 7    0  0.4709932E-002  0.4471502E+03  0.7546771E-02  0.1028575E+00
         21   -1    0    0  502  501  0.00000000000E+00  0.00000000000E+00  0.15847311616E+04  0.15847311616E+04  0.00000000000E+00 0. -1.
         21   -1    0    0  501  502 -0.00000000000E+00 -0.00000000000E+00 -0.31542145788E+02  0.31542145788E+02  0.00000000000E+00 0. -1.
      99926    2    1    2    0    0  0.00000000000E+00 -0.17763568394E-14  0.15531890159E+04  0.16162733074E+04  0.44715018209E+03 0.  0.
      99925    2    3    3    0    0 -0.10456682763E+03 -0.15062612710E+02  0.97867899070E+03  0.10188870163E+04  0.26297734004E+03 0.  0.
         25    1    3    3    0    0  0.10456682763E+03  0.15062612710E+02  0.57451002516E+03  0.59738629115E+03  0.12509000000E+03 0.  0.
         25    1    4    4    0    0 -0.55007238021E+02 -0.31554137436E+02  0.61440469097E+03  0.63020797536E+03  0.12509000000E+03 0.  0.
         25    1    4    4    0    0 -0.49559589611E+02  0.16491524726E+02  0.36427429973E+03  0.38867904093E+03  0.12509000000E+03 0.  0.
<mgrwt>
<rscale>  2 0.44715018E+03</rscale>
<asrwt>0</asrwt>
<pdfrwt beam="1">  1       21 0.23304865E+00 0.44715018E+03</pdfrwt>
<pdfrwt beam="2">  1       21 0.46385519E-02 0.44715018E+03</pdfrwt>
<totfact> 0.22399030E+04</totfact>
</mgrwt>
</event>
<event>
 7    0  0.4709932E-002  0.4120895E+03  0.7546771E-02  0.1039672E+00
         21   -1    0    0  502  501  0.00000000000E+00  0.00000000000E+00  0.47549255227E+02  0.47549255227E+02  0.00000000000E+00 0.  1.
         21   -1    0    0  501  502 -0.00000000000E+00 -0.00000000000E+00 -0.89285170316E+03  0.89285170316E+03  0.00000000000E+00 0.  1.
      99926    2    1    2    0    0  0.00000000000E+00  0.13322676296E-14 -0.84530244794E+03  0.94040095839E+03  0.41208947336E+03 0.  0.
      99925    2    3    3    0    0 -0.54828876691E+02  0.37909628476E+00 -0.63682185213E+03  0.69116609654E+03  0.26298698109E+03 0.  0.
         25    1    4    4    0    0 -0.29300109575E+02 -0.37874628649E+02 -0.35472520280E+03  0.37917075509E+03  0.12509000000E+03 0.  0.
         25    1    3    3    0    0  0.54828876691E+02 -0.37909628476E+00 -0.20848059581E+03  0.24923486185E+03  0.12509000000E+03 0.  0.
         25    1    4    4    0    0 -0.25528767116E+02  0.38253724933E+02 -0.28209664933E+03  0.31199534145E+03  0.12509000000E+03 0.  0.
<mgrwt>
<rscale>  2 0.41208947E+03</rscale>
<asrwt>0</asrwt>
<pdfrwt beam="1">  1       21 0.69925378E-02 0.41208947E+03</pdfrwt>
<pdfrwt beam="2">  1       21 0.13130172E+00 0.41208947E+03</pdfrwt>
<totfact> 0.58971955E+04</totfact>
</mgrwt>
</event>
<event>
 7    0  0.4709932E-002  0.4538667E+03  0.7546771E-02  0.1026575E+00
         21   -1    0    0  502  501  0.00000000000E+00  0.00000000000E+00  0.12475431189E+03  0.12475431189E+03  0.00000000000E+00 0.  1.
         21   -1    0    0  501  502 -0.00000000000E+00 -0.00000000000E+00 -0.41280126049E+03  0.41280126049E+03  0.00000000000E+00 0.  1.
      99926    2    1    2    0    0  0.14210854715E-13  0.00000000000E+00 -0.28804694860E+03  0.53755557238E+03  0.45386666411E+03 0.  0.
      99925    2    3    3    0    0  0.10004710553E+03 -0.48790421498E+02 -0.16590942666E+03  0.33029966553E+03  0.26302471869E+03 0.  0.
         25    1    3    3    0    0 -0.10004710553E+03  0.48790421498E+02 -0.12213752195E+03  0.20725590684E+03  0.12509000000E+03 0.  0.
         25    1    4    4    0    0  0.63895917713E+02 -0.99023949680E+01 -0.12524651823E+03  0.18845409031E+03  0.12509000000E+03 0.  0.
         25    1    4    4    0    0  0.36151187817E+02 -0.38888026529E+02 -0.40662908428E+02  0.14184557522E+03  0.12509000000E+03 0.  0.
<mgrwt>
<rscale>  2 0.45386666E+03</rscale>
<asrwt>0</asrwt>
<pdfrwt beam="1">  1       21 0.18346222E-01 0.45386666E+03</pdfrwt>
<pdfrwt beam="2">  1       21 0.60706068E-01 0.45386666E+03</pdfrwt>
<totfact> 0.63261948E+04</totfact>
</mgrwt>
</event>
<event>
 6    0  0.4709932E-002  0.4484193E+03  0.7546771E-02  0.1028194E+00
         21   -1    0    0  502  501  0.00000000000E+00  0.00000000000E+00  0.90818381180E+02  0.90818381180E+02  0.00000000000E+00 0. -1.
         21   -1    0    0  501  502 -0.00000000000E+00 -0.00000000000E+00 -0.55352192439E+03  0.55352192439E+03  0.00000000000E+00 0. -1.
      99926    2    1    2    0    0 -0.35527136788E-14  0.00000000000E+00 -0.46270354321E+03  0.64434030557E+03  0.44841929093E+03 0.  0.
         25    1    3    3    0    0  0.18060605955E+02  0.36305472394E+02 -0.30417567889E+03  0.33138289718E+03  0.12509000000E+03 0.  0.
         25    1    3    3    0    0 -0.38943844305E+02  0.16645201815E+02 -0.85530278936E+02  0.15734237340E+03  0.12509000000E+03 0.  0.
         25    1    3    3    0    0  0.20883238349E+02 -0.52950674209E+02 -0.72997585381E+02  0.15561503499E+03  0.12509000000E+03 0.  0.
<mgrwt>
<rscale>  2 0.44841929E+03</rscale>
<asrwt>0</asrwt>
<pdfrwt beam="1">  1       21 0.13355644E-01 0.44841929E+03</pdfrwt>
<pdfrwt beam="2">  1       21 0.81400283E-01 0.44841929E+03</pdfrwt>
<totfact> 0.59034718E+04</totfact>
</mgrwt>
</event>
<event>
 7    0  0.4709932E-002  0.4380953E+03  0.7546771E-02  0.1031333E+00
         21   -1    0    0  502  501  0.00000000000E+00  0.00000000000E+00  0.32050200600E+03  0.32050200600E+03  0.00000000000E+00 0.  1.
         21   -1    0    0  501  502 -0.00000000000E+00 -0.00000000000E+00 -0.14970847337E+03  0.14970847337E+03  0.00000000000E+00 0.  1.
      99926    2    1    2    0    0  0.00000000000E+00  0.00000000000E+00  0.17079353263E+03  0.47021047937E+03  0.43809526832E+03 0.  0.
      99925    2    3    3    0    0 -0.93847164018E+02  0.21827655570E+02  0.10360349920E+03  0.29861285283E+03  0.26296808569E+03 0.  0.
         25    1    4    4    0    0 -0.47093634643E+02  0.33837678885E+02  0.88141341462E+02  0.16364352450E+03  0.12509000000E+03 0.  0.
         25    1    4    4    0    0 -0.46753529375E+02 -0.12010023315E+02  0.15462157734E+02  0.13496932833E+03  0.12509000000E+03 0.  0.
         25    1    3    3    0    0  0.93847164018E+02 -0.21827655570E+02  0.67190033429E+02  0.17159762654E+03  0.12509000000E+03 0.  0.
<mgrwt>
<rscale>  2 0.43809527E+03</rscale>
<asrwt>0</asrwt>
<pdfrwt beam="1">  1       21 0.47132648E-01 0.43809527E+03</pdfrwt>
<pdfrwt beam="2">  1       21 0.22015952E-01 0.43809527E+03</pdfrwt>
<totfact> 0.77280079E+04</totfact>
</mgrwt>
</event>
<event>
 7    0  0.4709932E-002  0.4398978E+03  0.7546771E-02  0.1030778E+00
         21   -1    0    0  502  501  0.00000000000E+00  0.00000000000E+00  0.12179473211E+04  0.12179473211E+04  0.00000000000E+00 0. -1.
         21   -1    0    0  501  502 -0.00000000000E+00 -0.00000000000E+00 -0.39720533292E+02  0.39720533292E+02  0.00000000000E+00 0. -1.
      99926    2    1    2    0    0  0.00000000000E+00  0.00000000000E+00  0.11782267878E+04  0.12576678544E+04  0.43989779319E+03 0.  0.
      99925    2    3    3    0    0  0.27848213705E+02  0.77221925199E+02  0.90740260820E+03  0.94826198324E+03  0.26283558883E+03 0.  0.
         25    1    4    4    0    0  0.29317040838E+02  0.11736638397E+02  0.52508998047E+03  0.54070716035E+03  0.12509000000E+03 0.  0.
         25    1    4    4    0    0 -0.14688271333E+01  0.65485286802E+02  0.38231262773E+03  0.40755482289E+03  0.12509000000E+03 0.  0.
         25    1    3    3    0    0 -0.27848213705E+02 -0.77221925199E+02  0.27082417957E+03  0.30940587111E+03  0.12509000000E+03 0.  0.
<mgrwt>
<rscale>  2 0.43989779E+03</rscale>
<asrwt>0</asrwt>
<pdfrwt beam="1">  1       21 0.17910988E+00 0.43989779E+03</pdfrwt>
<pdfrwt beam="2">  1       21 0.58412557E-02 0.43989779E+03</pdfrwt>
<totfact> 0.34216776E+04</totfact>
</mgrwt>
</event>
<event>
 7    0  0.4709932E-002  0.4526892E+03  0.7546771E-02  0.1026923E+00
         21   -1    0    0  502  501  0.00000000000E+00  0.00000000000E+00  0.81374013805E+03  0.81374013805E+03  0.00000000000E+00 0.  1.
         21   -1    0    0  501  502 -0.00000000000E+00 -0.00000000000E+00 -0.62958519484E+02  0.62958519484E+02  0.00000000000E+00 0.  1.
      99926    2    1    2    0    0  0.00000000000E+00  0.00000000000E+00  0.75078161857E+03  0.87669865754E+03  0.45268918404E+03 0.  0.
      99925    2    3    3    0    0 -0.10928464853E+03 -0.19490159507E+02  0.47984268311E+03  0.55829888434E+03  0.26291755933E+03 0.  0.
         25    1    4    4    0    0 -0.86768245976E+02  0.15826158206E+02  0.24259689176E+03  0.28684482876E+03  0.12509000000E+03 0.  0.
         25    1    3    3    0    0  0.10928464853E+03  0.19490159507E+02  0.27093893546E+03  0.31839977319E+03  0.12509000000E+03 0.  0.
         25    1    4    4    0    0 -0.22516402555E+02 -0.35316317713E+02  0.23724579135E+03  0.27145405558E+03  0.12509000000E+03 0.  0.
<mgrwt>
<rscale>  2 0.45268918E+03</rscale>
<asrwt>0</asrwt>
<pdfrwt beam="1">  1       21 0.11966766E+00 0.45268918E+03</pdfrwt>
<pdfrwt beam="2">  1       21 0.92586062E-02 0.45268918E+03</pdfrwt>
<totfact> 0.45066671E+04</totfact>
</mgrwt>
</event>
<event>
 7    0  0.4709932E-002  0.4393405E+03  0.7546771E-02  0.1030949E+00
         21   -1    0    0  502  501  0.00000000000E+00  0.00000000000E+00  0.15492356104E+02  0.15492356104E+02  0.00000000000E+00 0.  1.
         21   -1    0    0  501  502 -0.00000000000E+00 -0.00000000000E+00 -0.31147635437E+04  0.31147635437E+04  0.00000000000E+00 0.  1.
      99926    2    1    2    0    0 -0.35527136788E-14  0.00000000000E+00 -0.30992711876E+04  0.31302558998E+04  0.43934053306E+03 0.  0.
      99925    2    3    3    0    0 -0.29161713651E+02  0.74186733318E+02 -0.15772731449E+04  0.16010470759E+04  0.26307240216E+03 0.  0.
         25    1    4    4    0    0 -0.41601437579E+02  0.94054727926E+01 -0.84007857344E+03  0.85041087727E+03  0.12509000000E+03 0.  0.
         25    1    3    3    0    0  0.29161713651E+02 -0.74186733318E+02 -0.15219980427E+04  0.15292088239E+04  0.12509000000E+03 0.  0.
         25    1    4    4    0    0  0.12439723929E+02  0.64781260526E+02 -0.73719457145E+03  0.75063619865E+03  0.12509000000E+03 0.  0.
<mgrwt>
<rscale>  2 0.43934053E+03</rscale>
<asrwt>0</asrwt>
<pdfrwt beam="1">  1       21 0.22782843E-02 0.43934053E+03</pdfrwt>
<pdfrwt beam="2">  1       21 0.45805415E+00 0.43934053E+03</pdfrwt>
<totfact> 0.29257440E+03</totfact>
</mgrwt>
</event>
<event>
 7    0  0.4709932E-002  0.4561892E+03  0.7546771E-02  0.1025892E+00
         21   -1    0    0  502  501  0.00000000000E+00  0.00000000000E+00  0.18504958200E+03  0.18504958200E+03  0.00000000000E+00 0. -1.
         21   -1    0    0  501  502 -0.00000000000E+00 -0.00000000000E+00 -0.28115245578E+03  0.28115245578E+03  0.00000000000E+00 0. -1.
      99926    2    1    2    0    0  0.00000000000E+00  0.14210854715E-13 -0.96102873779E+02  0.46620203778E+03  0.45618919067E+03 0.  0.
      99925    2    3    3    0    0  0.64196258102E+01 -0.11238488428E+03 -0.39359620208E+02  0.28861014963E+03  0.26282135560E+03 0.  0.
         25    1    4    4    0    0 -0.87464026039E+00 -0.97527766830E+02 -0.92563559853E+01  0.15888869854E+03  0.12509000000E+03 0.  0.
         25    1    4    4    0    0  0.72942660706E+01 -0.14857117451E+02 -0.30103264223E+02  0.12972145109E+03  0.12509000000E+03 0.  0.
         25    1    3    3    0    0 -0.64196258102E+01  0.11238488428E+03 -0.56743253571E+02  0.17759188815E+03  0.12509000000E+03 0.  0.
<mgrwt>
<rscale>  2 0.45618919E+03</rscale>
<asrwt>0</asrwt>
<pdfrwt beam="1">  1       21 0.27213174E-01 0.45618919E+03</pdfrwt>
<pdfrwt beam="2">  1       21 0.41345949E-01 0.45618919E+03</pdfrwt>
<totfact> 0.67084778E+04</totfact>
</mgrwt>
</event>
<event>
 7    0  0.4709932E-002  0.4491080E+03  0.7546771E-02  0.1027988E+00
         21   -1    0    0  502  501  0.00000000000E+00  0.00000000000E+00  0.17756666907E+03  0.17756666907E+03  0.00000000000E+00 0. -1.
         21   -1    0    0  501  502 -0.00000000000E+00 -0.00000000000E+00 -0.28397504484E+03  0.28397504484E+03  0.00000000000E+00 0. -1.
      99926    2    1    2    0    0  0.00000000000E+00  0.00000000000E+00 -0.10640837577E+03  0.46154171391E+03  0.44910801735E+03 0.  0.
      99925    2    3    3    0    0 -0.83675044394E+02  0.59158443259E+02 -0.33616357888E+02  0.28420750844E+03  0.26294983148E+03 0.  0.
         25    1    4    4    0    0 -0.42735985504E+02  0.58229347252E+02  0.11906400529E+02  0.14493547465E+03  0.12509000000E+03 0.  0.
         25    1    3    3    0    0  0.83675044394E+02 -0.59158443259E+02 -0.72792017881E+02  0.17733420547E+03  0.12509000000E+03 0.  0.
         25    1    4    4    0    0 -0.40939058890E+02  0.92909600693E+00 -0.45522758417E+02  0.13927203379E+03  0.12509000000E+03 0.  0.
<mgrwt>
<rscale>  2 0.44910802E+03</rscale>
<asrwt>0</asrwt>
<pdfrwt beam="1">  1       21 0.26112745E-01 0.44910802E+03</pdfrwt>
<pdfrwt beam="2">  1       21 0.41761036E-01 0.44910802E+03</pdfrwt>
<totfact> 0.71346824E+04</totfact>
</mgrwt>
</event>
<event>
 7    0  0.4709932E-002  0.4657694E+03  0.7546771E-02  0.1023121E+00
         21   -1    0    0  502  501  0.00000000000E+00  0.00000000000E+00  0.14398165549E+03  0.14398165549E+03  0.00000000000E+00 0.  1.
         21   -1    0    0  501  502 -0.00000000000E+00 -0.00000000000E+00 -0.37668191922E+03  0.37668191922E+03  0.00000000000E+00 0.  1.
      99926    2    1    2    0    0  0.00000000000E+00  0.00000000000E+00 -0.23270026373E+03  0.52066357472E+03  0.46576941215E+03 0.  0.
      99925    2    3    3    0    0 -0.38620184824E+02  0.97862621822E+02 -0.73875288288E+02  0.29275681231E+03  0.26302163696E+03 0.  0.
         25    1    4    4    0    0  0.20127483525E+02  0.38691394667E+02 -0.26162173075E+02  0.13503372547E+03  0.12509000000E+03 0.  0.
         25    1    3    3    0    0  0.38620184824E+02 -0.97862621822E+02 -0.15882497544E+03  0.22790676240E+03  0.12509000000E+03 0.  0.
         25    1    4    4    0    0 -0.58747668348E+02  0.59171227155E+02 -0.47713115213E+02  0.15772308684E+03  0.12509000000E+03 0.  0.
<mgrwt>
<rscale>  2 0.46576941E+03</rscale>
<asrwt>0</asrwt>
<pdfrwt beam="1">  1       21 0.21173773E-01 0.46576941E+03</pdfrwt>
<pdfrwt beam="2">  1       21 0.55394399E-01 0.46576941E+03</pdfrwt>
<totfact> 0.58666018E+04</totfact>
</mgrwt>
</event>
<event>
 7    0  0.4709932E-002  0.4553140E+03  0.7546771E-02  0.1026149E+00
         21   -1    0    0  502  501  0.00000000000E+00  0.00000000000E+00  0.86779544443E+03  0.86779544443E+03  0.00000000000E+00 0.  1.
         21   -1    0    0  501  502 -0.00000000000E+00 -0.00000000000E+00 -0.59723409711E+02  0.59723409711E+02  0.00000000000E+00 0.  1.
      99926    2    1    2    0    0 -0.17763568394E-14  0.00000000000E+00  0.80807203472E+03  0.92751885414E+03  0.45531397023E+03 0.  0.
      99925    2    3    3    0    0 -0.57881389059E+01 -0.41539887528E+02  0.72301935887E+03  0.77054582914E+03  0.26310609400E+03 0.  0.
         25    1    3    3    0    0  0.57881389059E+01  0.41539887528E+02  0.85052675851E+02  0.15697302500E+03  0.12509000000E+03 0.  0.
         25    1    4    4    0    0  0.22658395368E+02 -0.91205515225E+01  0.44065810094E+03  0.45871958468E+03  0.12509000000E+03 0.  0.
         25    1    4    4    0    0 -0.28446534274E+02 -0.32419336005E+02  0.28236125793E+03  0.31182624447E+03  0.12509000000E+03 0.  0.
<mgrwt>
<rscale>  2 0.45531397E+03</rscale>
<asrwt>0</asrwt>
<pdfrwt beam="1">  1       21 0.12761697E+00 0.45531397E+03</pdfrwt>
<pdfrwt beam="2">  1       21 0.87828549E-02 0.45531397E+03</pdfrwt>
<totfact> 0.41961693E+04</totfact>
</mgrwt>
</event>
<event>
 7    0  0.4709932E-002  0.4538924E+03  0.7546771E-02  0.1026568E+00
         21   -1    0    0  502  501  0.00000000000E+00  0.00000000000E+00  0.20885720286E+04  0.20885720286E+04  0.00000000000E+00 0.  1.
         21   -1    0    0  501  502 -0.00000000000E+00 -0.00000000000E+00 -0.24660186263E+02  0.24660186263E+02  0.00000000000E+00 0.  1.
      99926    2    1    2    0    0  0.00000000000E+00  0.14210854715E-13  0.20639118424E+04  0.21132322149E+04  0.45389238923E+03 0.  0.
      99925    2    3    3    0    0  0.30171969266E+02 -0.10049507638E+03  0.14840556976E+04  0.15108284758E+04  0.26300525035E+03 0.  0.
         25    1    3    3    0    0 -0.30171969266E+02  0.10049507638E+03  0.57985614481E+03  0.60240373910E+03  0.12509000000E+03 0.  0.
         25    1    4    4    0    0  0.49589347553E+02 -0.37415159783E+02  0.82845283877E+03  0.84014320907E+03  0.12509000000E+03 0.  0.
         25    1    4    4    0    0 -0.19417378287E+02 -0.63079916597E+02  0.65560285880E+03  0.67068526675E+03  0.12509000000E+03 0.  0.
<mgrwt>
<rscale>  2 0.45389239E+03</rscale>
<asrwt>0</asrwt>
<pdfrwt beam="1">  1       21 0.30714282E+00 0.45389239E+03</pdfrwt>
<pdfrwt beam="2">  1       21 0.36264994E-02 0.45389239E+03</pdfrwt>
<totfact> 0.12051031E+04</totfact>
</mgrwt>
</event>
<event>
 7    0  0.4709932E-002  0.4552208E+03  0.7546771E-02  0.1026176E+00
         21   -1    0    0  502  501  0.00000000000E+00  0.00000000000E+00  0.41454712677E+02  0.41454712677E+02  0.00000000000E+00 0. -1.
         21   -1    0    0  501  502 -0.00000000000E+00 -0.00000000000E+00 -0.12497129421E+04  0.12497129421E+04  0.00000000000E+00 0. -1.
      99926    2    1    2    0    0 -0.14210854715E-13 -0.71054273576E-14 -0.12082582294E+04  0.12911676548E+04  0.45522078574E+03 0.  0.
      99925    2    3    3    0    0 -0.84526053088E+02 -0.38070696010E+02 -0.57530210817E+03  0.63934329877E+03  0.26304620598E+03 0.  0.
         25    1    3    3    0    0  0.84526053088E+02  0.38070696010E+02 -0.63295612124E+03  0.65182435598E+03  0.12509000000E+03 0.  0.
         25    1    4    4    0    0 -0.35212527053E+01 -0.22688501718E+02 -0.30163224403E+03  0.32734795871E+03  0.12509000000E+03 0.  0.
         25    1    4    4    0    0 -0.81004800383E+02 -0.15382194292E+02 -0.27366986414E+03  0.31199534007E+03  0.12509000000E+03 0.  0.
<mgrwt>
<rscale>  2 0.45522079E+03</rscale>
<asrwt>0</asrwt>
<pdfrwt beam="1">  1       21 0.60962828E-02 0.45522079E+03</pdfrwt>
<pdfrwt beam="2">  1       21 0.18378127E+00 0.45522079E+03</pdfrwt>
<totfact> 0.29321944E+04</totfact>
</mgrwt>
</event>
<event>
 7    0  0.4709932E-002  0.4536455E+03  0.7546771E-02  0.1026640E+00
         21   -1    0    0  502  501  0.00000000000E+00  0.00000000000E+00  0.98250824301E+02  0.98250824301E+02  0.00000000000E+00 0. -1.
         21   -1    0    0  501  502 -0.00000000000E+00 -0.00000000000E+00 -0.52364505708E+03  0.52364505708E+03  0.00000000000E+00 0. -1.
      99926    2    1    2    0    0  0.44408920985E-15  0.00000000000E+00 -0.42539423278E+03  0.62189588138E+03  0.45364549375E+03 0.  0.
      99925    2    3    3    0    0 -0.28636039073E+01 -0.92349023679E+02 -0.35468046843E+03  0.45106120408E+03  0.26290955238E+03 0.  0.
         25    1    3    3    0    0  0.28636039073E+01  0.92349023679E+02 -0.70713764351E+02  0.17083467731E+03  0.12509000000E+03 0.  0.
         25    1    4    4    0    0  0.27614603137E+02 -0.71810449268E+02 -0.21061470961E+03  0.25675936387E+03  0.12509000000E+03 0.  0.
         25    1    4    4    0    0 -0.30478207044E+02 -0.20538574412E+02 -0.14406575882E+03  0.19430184021E+03  0.12509000000E+03 0.  0.
<mgrwt>
<rscale>  2 0.45364549E+03</rscale>
<asrwt>0</asrwt>
<pdfrwt beam="1">  1       21 0.14448651E-01 0.45364549E+03</pdfrwt>
<pdfrwt beam="2">  1       21 0.77006627E-01 0.45364549E+03</pdfrwt>
<totfact> 0.57967855E+04</totfact>
</mgrwt>
</event>
<event>
 7    0  0.4709932E-002  0.4586240E+03  0.7546771E-02  0.1025181E+00
         21   -1    0    0  502  501  0.00000000000E+00  0.00000000000E+00  0.12364533319E+03  0.12364533319E+03  0.00000000000E+00 0.  1.
         21   -1    0    0  501  502 -0.00000000000E+00 -0.00000000000E+00 -0.42528085535E+03  0.42528085535E+03  0.00000000000E+00 0.  1.
      99926    2    1    2    0    0  0.00000000000E+00  0.00000000000E+00 -0.30163552216E+03  0.54892618854E+03  0.45862399875E+03 0.  0.
      99925    2    3    3    0    0  0.10795020622E+02 -0.10232793673E+03 -0.12378641115E+03  0.30837400399E+03  0.26302834760E+03 0.  0.
         25    1    4    4    0    0 -0.12705359389E+02 -0.83777992549E+02 -0.88075550172E+02  0.17488564501E+03  0.12509000000E+03 0.  0.
         25    1    3    3    0    0 -0.10795020622E+02  0.10232793673E+03 -0.17784911101E+03  0.24055218455E+03  0.12509000000E+03 0.  0.
         25    1    4    4    0    0  0.23500380012E+02 -0.18549944184E+02 -0.35710860981E+02  0.13348835898E+03  0.12509000000E+03 0.  0.
<mgrwt>
<rscale>  2 0.45862400E+03</rscale>
<asrwt>0</asrwt>
<pdfrwt beam="1">  1       21 0.18183137E-01 0.45862400E+03</pdfrwt>
<pdfrwt beam="2">  1       21 0.62541302E-01 0.45862400E+03</pdfrwt>
<totfact> 0.60192912E+04</totfact>
</mgrwt>
</event>
<event>
 7    0  0.4709932E-002  0.4516304E+03  0.7546771E-02  0.1027237E+00
         21   -1    0    0  502  501  0.00000000000E+00  0.00000000000E+00  0.71547937689E+02  0.71547937689E+02  0.00000000000E+00 0.  1.
         21   -1    0    0  501  502 -0.00000000000E+00 -0.00000000000E+00 -0.71270415052E+03  0.71270415052E+03  0.00000000000E+00 0.  1.
      99926    2    1    2    0    0 -0.14210854715E-13 -0.17763568394E-14 -0.64115621283E+03  0.78425208821E+03  0.45163043366E+03 0.  0.
      99925    2    3    3    0    0 -0.56890409345E+02 -0.14585695644E+02 -0.56557548762E+03  0.62674267479E+03  0.26359341231E+03 0.  0.
         25    1    4    4    0    0  0.88718818080E+01  0.12554148305E+02 -0.27341927423E+03  0.30106797330E+03  0.12509000000E+03 0.  0.
         25    1    4    4    0    0 -0.65762291153E+02 -0.27139843949E+02 -0.29215621339E+03  0.32567470149E+03  0.12509000000E+03 0.  0.
         25    1    3    3    0    0  0.56890409345E+02  0.14585695644E+02 -0.75580725213E+02  0.15750941342E+03  0.12509000000E+03 0.  0.
<mgrwt>
<rscale>  2 0.45163043E+03</rscale>
<asrwt>0</asrwt>
<pdfrwt beam="1">  1       21 0.10521755E-01 0.45163043E+03</pdfrwt>
<pdfrwt beam="2">  1       21 0.10480944E+00 0.45163043E+03</pdfrwt>
<totfact> 0.49841137E+04</totfact>
</mgrwt>
</event>
<event>
 7    0  0.4709932E-002  0.4621428E+03  0.7546771E-02  0.1024162E+00
         21   -1    0    0  502  501  0.00000000000E+00  0.00000000000E+00  0.24182242401E+03  0.24182242401E+03  0.00000000000E+00 0.  1.
         21   -1    0    0  501  502 -0.00000000000E+00 -0.00000000000E+00 -0.22079834399E+03  0.22079834399E+03  0.00000000000E+00 0.  1.
      99926    2    1    2    0    0  0.44408920985E-14 -0.71054273576E-14  0.21024080025E+02  0.46262076800E+03  0.46214279508E+03 0.  0.
      99925    2    3    3    0    0 -0.44166028395E+01  0.49301127270E+02 -0.95907599325E+02  0.28437758225E+03  0.26310118614E+03 0.  0.
         25    1    4    4    0    0  0.32395986670E+02  0.27587682867E+02 -0.70525624119E+02  0.14977300142E+03  0.12509000000E+03 0.  0.
         25    1    3    3    0    0  0.44166028395E+01 -0.49301127270E+02  0.11693167935E+03  0.17824318575E+03  0.12509000000E+03 0.  0.
         25    1    4    4    0    0 -0.36812589509E+02  0.21713444403E+02 -0.25381975206E+02  0.13460458083E+03  0.12509000000E+03 0.  0.
<mgrwt>
<rscale>  2 0.46214280E+03</rscale>
<asrwt>0</asrwt>
<pdfrwt beam="1">  1       21 0.35562121E-01 0.46214280E+03</pdfrwt>
<pdfrwt beam="2">  1       21 0.32470344E-01 0.46214280E+03</pdfrwt>
<totfact> 0.64250537E+04</totfact>
</mgrwt>
</event>
<event>
 7    0  0.4709932E-002  0.4603134E+03  0.7546771E-02  0.1024690E+00
         21   -1    0    0  502  501  0.00000000000E+00  0.00000000000E+00  0.19652445976E+03  0.19652445976E+03  0.00000000000E+00 0. -1.
         21   -1    0    0  501  502 -0.00000000000E+00 -0.00000000000E+00 -0.26954456224E+03  0.26954456224E+03  0.00000000000E+00 0. -1.
      99926    2    1    2    0    0 -0.71054273576E-14 -0.35527136788E-14 -0.73020102483E+02  0.46606902200E+03  0.46031336924E+03 0.  0.
      99925    2    3    3    0    0 -0.60560082098E+02 -0.22796016953E+02  0.54457353880E+02  0.27610799465E+03  0.26283614550E+03 0.  0.
         25    1    3    3    0    0  0.60560082098E+02  0.22796016953E+02 -0.12747745636E+03  0.18996102735E+03  0.12509000000E+03 0.  0.
         25    1    4    4    0    0 -0.30438624101E+02 -0.27654193761E+02 -0.10118101319E+02  0.13206493987E+03  0.12509000000E+03 0.  0.
         25    1    4    4    0    0 -0.30121457997E+02  0.48581768080E+01  0.64575455198E+02  0.14404305477E+03  0.12509000000E+03 0.  0.
<mgrwt>
<rscale>  2 0.46031337E+03</rscale>
<asrwt>0</asrwt>
<pdfrwt beam="1">  1       21 0.28900656E-01 0.46031337E+03</pdfrwt>
<pdfrwt beam="2">  1       21 0.39638906E-01 0.46031337E+03</pdfrwt>
<totfact> 0.64944050E+04</totfact>
</mgrwt>
</event>
<event>
 7    0  0.4709932E-002  0.4545753E+03  0.7546771E-02  0.1026366E+00
         21   -1    0    0  502  501  0.00000000000E+00  0.00000000000E+00  0.33965618384E+03  0.33965618384E+03  0.00000000000E+00 0.  1.
         21   -1    0    0  501  502 -0.00000000000E+00 -0.00000000000E+00 -0.15209404352E+03  0.15209404352E+03  0.00000000000E+00 0.  1.
      99926    2    1    2    0    0 -0.14210854715E-13  0.00000000000E+00  0.18756214032E+03  0.49175022736E+03  0.45457532888E+03 0.  0.
      99925    2    3    3    0    0 -0.11122814849E+03  0.10173748809E+02  0.13423775330E+03  0.31577805760E+03  0.26309846269E+03 0.  0.
         25    1    4    4    0    0 -0.98544262311E+02  0.70347767017E+01  0.64382575437E+02  0.17191010394E+03  0.12509000000E+03 0.  0.
         25    1    4    4    0    0 -0.12683886177E+02  0.31389721078E+01  0.69855177865E+02  0.14386795366E+03  0.12509000000E+03 0.  0.
         25    1    3    3    0    0  0.11122814849E+03 -0.10173748809E+02  0.53324387019E+02  0.17597216977E+03  0.12509000000E+03 0.  0.
<mgrwt>
<rscale>  2 0.45457533E+03</rscale>
<asrwt>0</asrwt>
<pdfrwt beam="1">  1       21 0.49949439E-01 0.45457533E+03</pdfrwt>
<pdfrwt beam="2">  1       21 0.22366771E-01 0.45457533E+03</pdfrwt>
<totfact> 0.66076688E+04</totfact>
</mgrwt>
</event>
<event>
 7    0  0.4709932E-002  0.4530540E+03  0.7546771E-02  0.1026815E+00
         21   -1    0    0  502  501  0.00000000000E+00  0.00000000000E+00  0.29843974673E+03  0.29843974673E+03  0.00000000000E+00 0. -1.
         21   -1    0    0  501  502 -0.00000000000E+00 -0.00000000000E+00 -0.17194249202E+03  0.17194249202E+03  0.00000000000E+00 0. -1.
      99926    2    1    2    0    0  0.00000000000E+00  0.00000000000E+00  0.12649725471E+03  0.47038223875E+03  0.45305396487E+03 0.  0.
      99925    2    3    3    0    0 -0.35668998253E+02 -0.29835423832E+02 -0.25272534410E+02  0.26828323593E+03  0.26301095744E+03 0.  0.
         25    1    4    4    0    0 -0.23790448551E+02 -0.55225079162E+02 -0.93666155497E+01  0.13910800264E+03  0.12509000000E+03 0.  0.
         25    1    4    4    0    0 -0.11878549701E+02  0.25389655330E+02 -0.15905918860E+02  0.12917523329E+03  0.12509000000E+03 0.  0.
         25    1    3    3    0    0  0.35668998253E+02  0.29835423832E+02  0.15176978912E+03  0.20209900282E+03  0.12509000000E+03 0.  0.
<mgrwt>
<rscale>  2 0.45305396E+03</rscale>
<asrwt>0</asrwt>
<pdfrwt beam="1">  1       21 0.43888198E-01 0.45305396E+03</pdfrwt>
<pdfrwt beam="2">  1       21 0.25285661E-01 0.45305396E+03</pdfrwt>
<totfact> 0.68458159E+04</totfact>
</mgrwt>
</event>
<event>
 7    0  0.4709932E-002  0.4549890E+03  0.7546771E-02  0.1026245E+00
         21   -1    0    0  502  501  0.00000000000E+00  0.00000000000E+00  0.18197527841E+03  0.18197527841E+03  0.00000000000E+00 0. -1.
         21   -1    0    0  501  502 -0.00000000000E+00 -0.00000000000E+00 -0.28439986024E+03  0.28439986024E+03  0.00000000000E+00 0. -1.
      99926    2    1    2    0    0  0.00000000000E+00  0.00000000000E+00 -0.10242458184E+03  0.46637513865E+03  0.45498898337E+03 0.  0.
      99925    2    3    3    0    0  0.10352444796E+03  0.45692776829E+02 -0.62646434101E+02  0.29306919438E+03  0.26298257701E+03 0.  0.
         25    1    3    3    0    0 -0.10352444796E+03 -0.45692776829E+02 -0.39778147735E+02  0.17330594426E+03  0.12509000000E+03 0.  0.
         25    1    4    4    0    0  0.82973830695E+02 -0.39175655566E+01 -0.31745327525E+02  0.15347728764E+03  0.12509000000E+03 0.  0.
         25    1    4    4    0    0  0.20550617266E+02  0.49610342386E+02 -0.30901106576E+02  0.13959190675E+03  0.12509000000E+03 0.  0.
<mgrwt>
<rscale>  2 0.45498898E+03</rscale>
<asrwt>0</asrwt>
<pdfrwt beam="1">  1       21 0.26761071E-01 0.45498898E+03</pdfrwt>
<pdfrwt beam="2">  1       21 0.41823508E-01 0.45498898E+03</pdfrwt>
<totfact> 0.67712546E+04</totfact>
</mgrwt>
</event>
<event>
 7    0  0.4709932E-002  0.4581055E+03  0.7546771E-02  0.1025332E+00
         21   -1    0    0  502  501  0.00000000000E+00  0.00000000000E+00  0.15358788133E+04  0.15358788133E+04  0.00000000000E+00 0.  1.
         21   -1    0    0  501  502 -0.00000000000E+00 -0.00000000000E+00 -0.34159706068E+02  0.34159706068E+02  0.00000000000E+00 0.  1.
      99926    2    1    2    0    0 -0.35527136788E-14  0.00000000000E+00  0.15017191072E+04  0.15700385194E+04  0.45810552854E+03 0.  0.
      99925    2    3    3    0    0 -0.22537182102E+02  0.10764426318E+03  0.81431132633E+03  0.86273930594E+03  0.26290865686E+03 0.  0.
         25    1    4    4    0    0 -0.20593252733E+02  0.56252687522E+02  0.53078749661E+03  0.54860853217E+03  0.12509000000E+03 0.  0.
         25    1    3    3    0    0  0.22537182102E+02 -0.10764426318E+03  0.68740778090E+03  0.70729921342E+03  0.12509000000E+03 0.  0.
         25    1    4    4    0    0 -0.19439293694E+01  0.51391575662E+02  0.28352382973E+03  0.31413077378E+03  0.12509000000E+03 0.  0.
<mgrwt>
<rscale>  2 0.45810553E+03</rscale>
<asrwt>0</asrwt>
<pdfrwt beam="1">  1       21 0.22586449E+00 0.45810553E+03</pdfrwt>
<pdfrwt beam="2">  1       21 0.50234872E-02 0.45810553E+03</pdfrwt>
<totfact> 0.21588261E+04</totfact>
</mgrwt>
</event>
<event>
 7    0  0.4709932E-002  0.4517913E+03  0.7546771E-02  0.1027189E+00
         21   -1    0    0  502  501  0.00000000000E+00  0.00000000000E+00  0.11217123640E+03  0.11217123640E+03  0.00000000000E+00 0.  1.
         21   -1    0    0  501  502 -0.00000000000E+00 -0.00000000000E+00 -0.45491925612E+03  0.45491925612E+03  0.00000000000E+00 0.  1.
      99926    2    1    2    0    0 -0.14210854715E-13  0.00000000000E+00 -0.34274801973E+03  0.56709049252E+03  0.45179134750E+03 0.  0.
      99925    2    3    3    0    0  0.93224447705E+02  0.50526218940E+02 -0.18031740722E+03  0.33627691313E+03  0.26329469897E+03 0.  0.
         25    1    4    4    0    0  0.10053281679E+02  0.80028136230E+01 -0.60881351373E+02  0.13971098934E+03  0.12509000000E+03 0.  0.
         25    1    3    3    0    0 -0.93224447705E+02 -0.50526218940E+02 -0.16243061250E+03  0.23081357939E+03  0.12509000000E+03 0.  0.
         25    1    4    4    0    0  0.83171166027E+02  0.42523405317E+02 -0.11943605585E+03  0.19656592379E+03  0.12509000000E+03 0.  0.
<mgrwt>
<rscale>  2 0.45179135E+03</rscale>
<asrwt>0</asrwt>
<pdfrwt beam="1">  1       21 0.16495770E-01 0.45179135E+03</pdfrwt>
<pdfrwt beam="2">  1       21 0.66899891E-01 0.45179135E+03</pdfrwt>
<totfact> 0.62317412E+04</totfact>
</mgrwt>
</event>
<event>
 7    0  0.4709932E-002  0.4548819E+03  0.7546771E-02  0.1026276E+00
         21   -1    0    0  502  501  0.00000000000E+00  0.00000000000E+00  0.28696580311E+03  0.28696580311E+03  0.00000000000E+00 0. -1.
         21   -1    0    0  501  502 -0.00000000000E+00 -0.00000000000E+00 -0.18026324215E+03  0.18026324215E+03  0.00000000000E+00 0. -1.
      99926    2    1    2    0    0  0.00000000000E+00  0.00000000000E+00  0.10670256096E+03  0.46722904526E+03  0.45488190139E+03 0.  0.
      99925    2    3    3    0    0  0.67472761225E+02 -0.77666461612E+02  0.18847197925E+02  0.28297181831E+03  0.26293189294E+03 0.  0.
         25    1    3    3    0    0 -0.67472761225E+02  0.77666461612E+02  0.87855363033E+02  0.18425722694E+03  0.12509000000E+03 0.  0.
         25    1    4    4    0    0  0.22495481727E+02  0.21122460179E+01  0.32381405083E+01  0.12715542433E+03  0.12509000000E+03 0.  0.
         25    1    4    4    0    0  0.44977279498E+02 -0.79778707630E+02  0.15609057417E+02  0.15581639399E+03  0.12509000000E+03 0.  0.
<mgrwt>
<rscale>  2 0.45488190E+03</rscale>
<asrwt>0</asrwt>
<pdfrwt beam="1">  1       21 0.42200853E-01 0.45488190E+03</pdfrwt>
<pdfrwt beam="2">  1       21 0.26509300E-01 0.45488190E+03</pdfrwt>
<totfact> 0.67705968E+04</totfact>
</mgrwt>
</event>
<event>
 7    0  0.4709932E-002  0.4509071E+03  0.7546771E-02  0.1027452E+00
         21   -1    0    0  502  501  0.00000000000E+00  0.00000000000E+00  0.23101629684E+02  0.23101629684E+02  0.00000000000E+00 0. -1.
         21   -1    0    0  501  502 -0.00000000000E+00 -0.00000000000E+00 -0.22002477617E+04  0.22002477617E+04  0.00000000000E+00 0. -1.
      99926    2    1    2    0    0  0.71054273576E-14  0.14210854715E-13 -0.21771461320E+04  0.22233493914E+04  0.45090712571E+03 0.  0.
      99925    2    3    3    0    0  0.39512208223E+02  0.74764713499E+02 -0.10337271297E+04  0.10700040399E+04  0.26299408663E+03 0.  0.
         25    1    4    4    0    0  0.21764541172E+02  0.78999298000E+02 -0.58499683587E+03  0.60380741169E+03  0.12509000000E+03 0.  0.
         25    1    3    3    0    0 -0.39512208223E+02 -0.74764713499E+02 -0.11434190023E+04  0.11533453515E+04  0.12509000000E+03 0.  0.
         25    1    4    4    0    0  0.17747667051E+02 -0.42345845010E+01 -0.44873029388E+03  0.46619662819E+03  0.12509000000E+03 0.  0.
<mgrwt>
<rscale>  2 0.45090713E+03</rscale>
<asrwt>0</asrwt>
<pdfrwt beam="1">  1       21 0.33972979E-02 0.45090713E+03</pdfrwt>
<pdfrwt beam="2">  1       21 0.32356591E+00 0.45090713E+03</pdfrwt>
<totfact> 0.10731164E+04</totfact>
</mgrwt>
</event>
<event>
 7    0  0.4709932E-002  0.4566223E+03  0.7546771E-02  0.1025765E+00
         21   -1    0    0  502  501  0.00000000000E+00  0.00000000000E+00  0.18756440948E+04  0.18756440948E+04  0.00000000000E+00 0. -1.
         21   -1    0    0  501  502 -0.00000000000E+00 -0.00000000000E+00 -0.27790972775E+02  0.27790972775E+02  0.00000000000E+00 0. -1.
      99926    2    1    2    0    0  0.00000000000E+00  0.00000000000E+00  0.18478531220E+04  0.19034350676E+04  0.45662226829E+03 0.  0.
      99925    2    3    3    0    0 -0.50409616993E+02 -0.91615580217E+02  0.96452742416E+03  0.10051888092E+04  0.26297689294E+03 0.  0.
         25    1    4    4    0    0 -0.63857278246E+02 -0.43639022375E+02  0.55114929193E+03  0.57043419108E+03  0.12509000000E+03 0.  0.
         25    1    3    3    0    0  0.50409616993E+02  0.91615580217E+02  0.88332569788E+03  0.89824625836E+03  0.12509000000E+03 0.  0.
         25    1    4    4    0    0  0.13447661253E+02 -0.47976557842E+02  0.41337813223E+03  0.43475461815E+03  0.12509000000E+03 0.  0.
<mgrwt>
<rscale>  2 0.45662227E+03</rscale>
<asrwt>0</asrwt>
<pdfrwt beam="1">  1       21 0.27582993E+00 0.45662227E+03</pdfrwt>
<pdfrwt beam="2">  1       21 0.40869090E-02 0.45662227E+03</pdfrwt>
<totfact> 0.15159305E+04</totfact>
</mgrwt>
</event>
<event>
 7    0  0.4709932E-002  0.4593699E+03  0.7546771E-02  0.1024964E+00
         21   -1    0    0  502  501  0.00000000000E+00  0.00000000000E+00  0.15632444788E+04  0.15632444788E+04  0.00000000000E+00 0.  1.
         21   -1    0    0  501  502 -0.00000000000E+00 -0.00000000000E+00 -0.33747227301E+02  0.33747227301E+02  0.00000000000E+00 0.  1.
      99926    2    1    2    0    0  0.00000000000E+00  0.35527136788E-14  0.15294972515E+04  0.15969917061E+04  0.45936985863E+03 0.  0.
      99925    2    3    3    0    0  0.32638188924E+02 -0.24037139054E+02  0.57564081321E+03  0.63411443023E+03  0.26286066529E+03 0.  0.
         25    1    3    3    0    0 -0.32638188924E+02  0.24037139054E+02  0.95385643830E+03  0.96287727589E+03  0.12509000000E+03 0.  0.
         25    1    4    4    0    0  0.22098914631E+02 -0.42011693359E+02  0.23191225189E+03  0.26773894951E+03  0.12509000000E+03 0.  0.
         25    1    4    4    0    0  0.10539274294E+02  0.17974554305E+02  0.34372856132E+03  0.36637548072E+03  0.12509000000E+03 0.  0.
<mgrwt>
<rscale>  2 0.45936986E+03</rscale>
<asrwt>0</asrwt>
<pdfrwt beam="1">  1       21 0.22988885E+00 0.45936986E+03</pdfrwt>
<pdfrwt beam="2">  1       21 0.49628286E-02 0.45936986E+03</pdfrwt>
<totfact> 0.20783640E+04</totfact>
</mgrwt>
</event>
<event>
 7    0  0.4709932E-002  0.4379841E+03  0.7546771E-02  0.1031367E+00
         21   -1    0    0  502  501  0.00000000000E+00  0.00000000000E+00  0.95267672418E+02  0.95267672418E+02  0.00000000000E+00 0. -1.
         21   -1    0    0  501  502 -0.00000000000E+00 -0.00000000000E+00 -0.50339754022E+03  0.50339754022E+03  0.00000000000E+00 0. -1.
      99926    2    1    2    0    0  0.71054273576E-14  0.00000000000E+00 -0.40812986780E+03  0.59866521264E+03  0.43798407258E+03 0.  0.
      99925    2    3    3    0    0 -0.43047247885E+02 -0.55596083830E+02 -0.35076623622E+03  0.44412691830E+03  0.26318772198E+03 0.  0.
         25    1    4    4    0    0  0.12314805862E+02 -0.13332069251E+02 -0.13274886707E+03  0.18330075920E+03  0.12509000000E+03 0.  0.
         25    1    3    3    0    0  0.43047247885E+02  0.55596083830E+02 -0.57363631584E+02  0.15453829434E+03  0.12509000000E+03 0.  0.
         25    1    4    4    0    0 -0.55362053747E+02 -0.42264014579E+02 -0.21801736915E+03  0.26082615911E+03  0.12509000000E+03 0.  0.
<mgrwt>
<rscale>  2 0.43798407E+03</rscale>
<asrwt>0</asrwt>
<pdfrwt beam="1">  1       21 0.14009952E-01 0.43798407E+03</pdfrwt>
<pdfrwt beam="2">  1       21 0.74029050E-01 0.43798407E+03</pdfrwt>
<totfact> 0.67371364E+04</totfact>
</mgrwt>
</event>
<event>
 7    0  0.4709932E-002  0.4519349E+03  0.7546771E-02  0.1027147E+00
         21   -1    0    0  502  501  0.00000000000E+00  0.00000000000E+00  0.25215057735E+03  0.25215057735E+03  0.00000000000E+00 0. -1.
         21   -1    0    0  501  502 -0.00000000000E+00 -0.00000000000E+00 -0.20250314372E+03  0.20250314372E+03  0.00000000000E+00 0. -1.
      99926    2    1    2    0    0 -0.31918911958E-15  0.14210854715E-13  0.49647433631E+02  0.45465372107E+03  0.45193488294E+03 0.  0.
      99925    2    3    3    0    0 -0.79972987757E-01  0.68589885478E+02  0.11760481994E+03  0.29663380701E+03  0.26354533386E+03 0.  0.
         25    1    4    4    0    0  0.27003664258E+02  0.25906163869E+01  0.62567335168E+02  0.14247136101E+03  0.12509000000E+03 0.  0.
         25    1    4    4    0    0 -0.27083637246E+02  0.65999269091E+02  0.55037484773E+02  0.15416244600E+03  0.12509000000E+03 0.  0.
         25    1    3    3    0    0  0.79972987757E-01 -0.68589885478E+02 -0.67957386311E+02  0.15801991406E+03  0.12509000000E+03 0.  0.
<mgrwt>
<rscale>  2 0.45193488E+03</rscale>
<asrwt>0</asrwt>
<pdfrwt beam="1">  1       21 0.37080967E-01 0.45193488E+03</pdfrwt>
<pdfrwt beam="2">  1       21 0.29779874E-01 0.45193488E+03</pdfrwt>
<totfact> 0.70274004E+04</totfact>
</mgrwt>
</event>
<event>
 7    0  0.4709932E-002  0.4557423E+03  0.7546771E-02  0.1026023E+00
         21   -1    0    0  502  501  0.00000000000E+00  0.00000000000E+00  0.95242185008E+02  0.95242185008E+02  0.00000000000E+00 0.  1.
         21   -1    0    0  501  502 -0.00000000000E+00 -0.00000000000E+00 -0.54519194363E+03  0.54519194363E+03  0.00000000000E+00 0.  1.
      99926    2    1    2    0    0  0.00000000000E+00  0.14210854715E-13 -0.44994975863E+03  0.64043412864E+03  0.45574234809E+03 0.  0.
      99925    2    3    3    0    0 -0.20045217002E+02 -0.93457367164E+02 -0.19629054573E+03  0.34189335322E+03  0.26310643556E+03 0.  0.
         25    1    3    3    0    0  0.20045217002E+02  0.93457367164E+02 -0.25365921290E+03  0.29854077542E+03  0.12509000000E+03 0.  0.
         25    1    4    4    0    0 -0.28912047905E+01 -0.67297984500E+02 -0.14535325115E+03  0.20325465186E+03  0.12509000000E+03 0.  0.
         25    1    4    4    0    0 -0.17154012211E+02 -0.26159382664E+02 -0.50937294583E+02  0.13863870136E+03  0.12509000000E+03 0.  0.
<mgrwt>
<rscale>  2 0.45574235E+03</rscale>
<asrwt>0</asrwt>
<pdfrwt beam="1">  1       21 0.14006203E-01 0.45574235E+03</pdfrwt>
<pdfrwt beam="2">  1       21 0.80175287E-01 0.45574235E+03</pdfrwt>
<totfact> 0.55927611E+04</totfact>
</mgrwt>
</event>
<event>
 7    0  0.4709932E-002  0.4480123E+03  0.7546771E-02  0.1028316E+00
         21   -1    0    0  502  501  0.00000000000E+00  0.00000000000E+00  0.88184808038E+02  0.88184808038E+02  0.00000000000E+00 0.  1.
         21   -1    0    0  501  502 -0.00000000000E+00 -0.00000000000E+00 -0.56901825017E+03  0.56901825017E+03  0.00000000000E+00 0.  1.
      99926    2    1    2    0    0  0.00000000000E+00  0.00000000000E+00 -0.48083344213E+03  0.65720305821E+03  0.44801234430E+03 0.  0.
      99925    2    3    3    0    0  0.32588266505E+02 -0.76697795002E+02 -0.20766999583E+03  0.34541735717E+03  0.26313832218E+03 0.  0.
         25    1    4    4    0    0 -0.14724176467E+02 -0.65010232741E+02 -0.10915895069E+03  0.17890309206E+03  0.12509000000E+03 0.  0.
         25    1    3    3    0    0 -0.32588266505E+02  0.76697795002E+02 -0.27316344630E+03  0.31178570103E+03  0.12509000000E+03 0.  0.
         25    1    4    4    0    0  0.47312442972E+02 -0.11687562261E+02 -0.98511045137E+02  0.16651426511E+03  0.12509000000E+03 0.  0.
<mgrwt>
<rscale>  2 0.44801234E+03</rscale>
<asrwt>0</asrwt>
<pdfrwt beam="1">  1       21 0.12968354E-01 0.44801234E+03</pdfrwt>
<pdfrwt beam="2">  1       21 0.83679153E-01 0.44801234E+03</pdfrwt>
<totfact> 0.58442720E+04</totfact>
</mgrwt>
</event>
<event>
 7    0  0.4709932E-002  0.4555401E+03  0.7546771E-02  0.1026083E+00
         21   -1    0    0  502  501  0.00000000000E+00  0.00000000000E+00  0.14973754036E+04  0.14973754036E+04  0.00000000000E+00 0. -1.
         21   -1    0    0  501  502 -0.00000000000E+00 -0.00000000000E+00 -0.34646757371E+02  0.34646757371E+02  0.00000000000E+00 0. -1.
      99926    2    1    2    0    0  0.00000000000E+00 -0.19984014443E-14  0.14627286462E+04  0.15320221610E+04  0.45554012909E+03 0.  0.
      99925    2    3    3    0    0 -0.10159502905E+03  0.17747050845E+01  0.74888113089E+03  0.80020901354E+03  0.26303387165E+03 0.  0.
         25    1    4    4    0    0 -0.31252885825E+02  0.33734044996E+02  0.31278293848E+03  0.33999324018E+03  0.12509000000E+03 0.  0.
         25    1    3    3    0    0  0.10159502905E+03 -0.17747050845E+01  0.71384751532E+03  0.73181314741E+03  0.12509000000E+03 0.  0.
         25    1    4    4    0    0 -0.70342143223E+02 -0.31959339911E+02  0.43609819242E+03  0.46021577336E+03  0.12509000000E+03 0.  0.
<mgrwt>
<rscale>  2 0.45554013E+03</rscale>
<asrwt>0</asrwt>
<pdfrwt beam="1">  1       21 0.22020222E+00 0.45554013E+03</pdfrwt>
<pdfrwt beam="2">  1       21 0.50951124E-02 0.45554013E+03</pdfrwt>
<totfact> 0.22908868E+04</totfact>
</mgrwt>
</event>
<event>
 7    0  0.4709932E-002  0.4581450E+03  0.7546771E-02  0.1025321E+00
         21   -1    0    0  502  501  0.00000000000E+00  0.00000000000E+00  0.15977325583E+04  0.15977325583E+04  0.00000000000E+00 0. -1.
         21   -1    0    0  501  502 -0.00000000000E+00 -0.00000000000E+00 -0.32842927648E+02  0.32842927648E+02  0.00000000000E+00 0. -1.
      99926    2    1    2    0    0 -0.14210854715E-13 -0.17763568394E-14  0.15648896307E+04  0.16305754860E+04  0.45814501989E+03 0.  0.
      99925    2    3    3    0    0  0.97360978994E+02 -0.61685908655E+01  0.12062092459E+04  0.12383812251E+04  0.26292603905E+03 0.  0.
         25    1    3    3    0    0 -0.97360978994E+02  0.61685908655E+01  0.35868038472E+03  0.39219426083E+03  0.12509000000E+03 0.  0.
         25    1    4    4    0    0  0.45988118974E+02  0.16027633681E+02  0.75429229179E+03  0.76614369519E+03  0.12509000000E+03 0.  0.
         25    1    4    4    0    0  0.51372860020E+02 -0.22196224547E+02  0.45191695415E+03  0.47223752994E+03  0.12509000000E+03 0.  0.
<mgrwt>
<rscale>  2 0.45814502E+03</rscale>
<asrwt>0</asrwt>
<pdfrwt beam="1">  1       21 0.23496062E+00 0.45814502E+03</pdfrwt>
<pdfrwt beam="2">  1       21 0.48298434E-02 0.45814502E+03</pdfrwt>
<totfact> 0.20248592E+04</totfact>
</mgrwt>
</event>
<event>
 7    0  0.4709932E-002  0.4579371E+03  0.7546771E-02  0.1025381E+00
         21   -1    0    0  502  501  0.00000000000E+00  0.00000000000E+00  0.26484283213E+02  0.26484283213E+02  0.00000000000E+00 0.  1.
         21   -1    0    0  501  502 -0.00000000000E+00 -0.00000000000E+00 -0.19795362537E+04  0.19795362537E+04  0.00000000000E+00 0.  1.
      99926    2    1    2    0    0  0.14210854715E-13  0.14210854715E-13 -0.19530519705E+04  0.20060205369E+04  0.45793710823E+03 0.  0.
      99925    2    3    3    0    0 -0.81014848776E+02 -0.82619568149E+02 -0.12566047302E+04  0.12890298359E+04  0.26296971511E+03 0.  0.
         25    1    3    3    0    0  0.81014848776E+02  0.82619568149E+02 -0.69644724024E+03  0.71699070098E+03  0.12509000000E+03 0.  0.
         25    1    4    4    0    0 -0.71109632448E+02 -0.14989711625E+02 -0.61698751414E+03  0.63372105219E+03  0.12509000000E+03 0.  0.
         25    1    4    4    0    0 -0.99052163280E+01 -0.67629856524E+02 -0.63961721609E+03  0.65530878372E+03  0.12509000000E+03 0.  0.
<mgrwt>
<rscale>  2 0.45793711E+03</rscale>
<asrwt>0</asrwt>
<pdfrwt beam="1">  1       21 0.38947488E-02 0.45793711E+03</pdfrwt>
<pdfrwt beam="2">  1       21 0.29110818E+00 0.45793711E+03</pdfrwt>
<totfact> 0.13305672E+04</totfact>
</mgrwt>
</event>
<event>
 7    0  0.4709932E-002  0.4518279E+03  0.7546771E-02  0.1027178E+00
         21   -1    0    0  502  501  0.00000000000E+00  0.00000000000E+00  0.73866146690E+03  0.73866146690E+03  0.00000000000E+00 0. -1.
         21   -1    0    0  501  502 -0.00000000000E+00 -0.00000000000E+00 -0.69094036783E+02  0.69094036783E+02  0.00000000000E+00 0. -1.
      99926    2    1    2    0    0  0.00000000000E+00  0.00000000000E+00  0.66956743012E+03  0.80775550368E+03  0.45182785467E+03 0.  0.
      99925    2    3    3    0    0  0.24716575771E+02 -0.92522543140E+02  0.51965340292E+03  0.59028584199E+03  0.26310907620E+03 0.  0.
         25    1    3    3    0    0 -0.24716575771E+02  0.92522543140E+02  0.14991402719E+03  0.21746966169E+03  0.12509000000E+03 0.  0.
         25    1    4    4    0    0  0.42690651969E+01 -0.85019044076E+02  0.24976542623E+03  0.29202181256E+03  0.12509000000E+03 0.  0.
         25    1    4    4    0    0  0.20447510574E+02 -0.75034990643E+01  0.26988797669E+03  0.29826402943E+03  0.12509000000E+03 0.  0.
<mgrwt>
<rscale>  2 0.45182785E+03</rscale>
<asrwt>0</asrwt>
<pdfrwt beam="1">  1       21 0.10862668E+00 0.45182785E+03</pdfrwt>
<pdfrwt beam="2">  1       21 0.10160888E-01 0.45182785E+03</pdfrwt>
<totfact> 0.48590284E+04</totfact>
</mgrwt>
</event>
<event>
 7    0  0.4709932E-002  0.4688465E+03  0.7546771E-02  0.1022246E+00
         21   -1    0    0  502  501  0.00000000000E+00  0.00000000000E+00  0.47803111114E+03  0.47803111114E+03  0.00000000000E+00 0. -1.
         21   -1    0    0  501  502 -0.00000000000E+00 -0.00000000000E+00 -0.11495958273E+03  0.11495958273E+03  0.00000000000E+00 0. -1.
      99926    2    1    2    0    0  0.71054273576E-14  0.00000000000E+00  0.36307152841E+03  0.59299069388E+03  0.46884648690E+03 0.  0.
      99925    2    3    3    0    0  0.38487132672E+02  0.88332115044E+02  0.12347553015E+03  0.30604545099E+03  0.26293305155E+03 0.  0.
         25    1    4    4    0    0  0.52407872568E+02  0.31311184529E+02  0.40906863447E+02  0.14507878880E+03  0.12509000000E+03 0.  0.
         25    1    4    4    0    0 -0.13920739896E+02  0.57020930515E+02  0.82568666699E+02  0.16096666219E+03  0.12509000000E+03 0.  0.
         25    1    3    3    0    0 -0.38487132672E+02 -0.88332115044E+02  0.23959599826E+03  0.28694524288E+03  0.12509000000E+03 0.  0.
<mgrwt>
<rscale>  2 0.46884649E+03</rscale>
<asrwt>0</asrwt>
<pdfrwt beam="1">  1       21 0.70298692E-01 0.46884649E+03</pdfrwt>
<pdfrwt beam="2">  1       21 0.16905821E-01 0.46884649E+03</pdfrwt>
<totfact> 0.53062197E+04</totfact>
</mgrwt>
</event>
<event>
 7    0  0.4709932E-002  0.4530462E+03  0.7546771E-02  0.1026818E+00
         21   -1    0    0  502  501  0.00000000000E+00  0.00000000000E+00  0.71296251748E+02  0.71296251748E+02  0.00000000000E+00 0.  1.
         21   -1    0    0  501  502 -0.00000000000E+00 -0.00000000000E+00 -0.71971125297E+03  0.71971125297E+03  0.00000000000E+00 0.  1.
      99926    2    1    2    0    0  0.71054273576E-14 -0.53290705182E-14 -0.64841500123E+03  0.79100750472E+03  0.45304619931E+03 0.  0.
      99925    2    3    3    0    0  0.59941131579E+02 -0.11273639455E+02 -0.57143931189E+03  0.63197040512E+03  0.26291381016E+03 0.  0.
         25    1    4    4    0    0  0.57180770513E+01 -0.37124680526E+02 -0.25746575812E+03  0.28869891412E+03  0.12509000000E+03 0.  0.
         25    1    3    3    0    0 -0.59941131579E+02  0.11273639455E+02 -0.76975689338E+02  0.15903709960E+03  0.12509000000E+03 0.  0.
         25    1    4    4    0    0  0.54223054527E+02  0.25851041071E+02 -0.31397355377E+03  0.34327149100E+03  0.12509000000E+03 0.  0.
<mgrwt>
<rscale>  2 0.45304620E+03</rscale>
<asrwt>0</asrwt>
<pdfrwt beam="1">  1       21 0.10484743E-01 0.45304620E+03</pdfrwt>
<pdfrwt beam="2">  1       21 0.10583989E+00 0.45304620E+03</pdfrwt>
<totfact> 0.48949149E+04</totfact>
</mgrwt>
</event>
<event>
 7    0  0.4709932E-002  0.4551890E+03  0.7546771E-02  0.1026186E+00
         21   -1    0    0  502  501  0.00000000000E+00  0.00000000000E+00  0.25889055553E+02  0.25889055553E+02  0.00000000000E+00 0. -1.
         21   -1    0    0  501  502 -0.00000000000E+00 -0.00000000000E+00 -0.20008170453E+04  0.20008170453E+04  0.00000000000E+00 0. -1.
      99926    2    1    2    0    0  0.00000000000E+00  0.00000000000E+00 -0.19749279898E+04  0.20267061009E+04  0.45518903167E+03 0.  0.
      99925    2    3    3    0    0  0.25348423394E+02  0.11020034528E+03 -0.12160030043E+04  0.12492735956E+04  0.26312459293E+03 0.  0.
         25    1    4    4    0    0 -0.27008297570E+02  0.64300103436E+02 -0.60228282494E+03  0.61907678098E+03  0.12509000000E+03 0.  0.
         25    1    4    4    0    0  0.52356720964E+02  0.45900241839E+02 -0.61372017937E+03  0.63019681457E+03  0.12509000000E+03 0.  0.
         25    1    3    3    0    0 -0.25348423394E+02 -0.11020034528E+03 -0.75892498549E+03  0.77743250534E+03  0.12509000000E+03 0.  0.
<mgrwt>
<rscale>  2 0.45518903E+03</rscale>
<asrwt>0</asrwt>
<pdfrwt beam="1">  1       21 0.38072147E-02 0.45518903E+03</pdfrwt>
<pdfrwt beam="2">  1       21 0.29423775E+00 0.45518903E+03</pdfrwt>
<totfact> 0.13259062E+04</totfact>
</mgrwt>
</event>
<event>
 7    0  0.4709932E-002  0.4586919E+03  0.7546771E-02  0.1025161E+00
         21   -1    0    0  502  501  0.00000000000E+00  0.00000000000E+00  0.10949460054E+04  0.10949460054E+04  0.00000000000E+00 0. -1.
         21   -1    0    0  501  502 -0.00000000000E+00 -0.00000000000E+00 -0.48038503556E+02  0.48038503556E+02  0.00000000000E+00 0. -1.
      99926    2    1    2    0    0  0.71054273576E-14  0.00000000000E+00  0.10469075019E+04  0.11429845090E+04  0.45869191218E+03 0.  0.
      99925    2    3    3    0    0 -0.57781298901E+02  0.70071006468E+02  0.83877768544E+03  0.88372758422E+03  0.26301675434E+03 0.  0.
         25    1    4    4    0    0 -0.64849284164E+01  0.65441660064E+02  0.47654988901E+03  0.49706334605E+03  0.12509000000E+03 0.  0.
         25    1    3    3    0    0  0.57781298901E+02 -0.70071006468E+02  0.20812981642E+03  0.25925692475E+03  0.12509000000E+03 0.  0.
         25    1    4    4    0    0 -0.51296370484E+02  0.46293464039E+01  0.36222779643E+03  0.38666423817E+03  0.12509000000E+03 0.  0.
<mgrwt>
<rscale>  2 0.45869191E+03</rscale>
<asrwt>0</asrwt>
<pdfrwt beam="1">  1       21 0.16102145E+00 0.45869191E+03</pdfrwt>
<pdfrwt beam="2">  1       21 0.70644866E-02 0.45869191E+03</pdfrwt>
<totfact> 0.33055967E+04</totfact>
</mgrwt>
</event>
<event>
 7    0  0.4709932E-002  0.4642489E+03  0.7546771E-02  0.1023556E+00
         21   -1    0    0  502  501  0.00000000000E+00  0.00000000000E+00  0.19632854349E+03  0.19632854349E+03  0.00000000000E+00 0.  1.
         21   -1    0    0  501  502 -0.00000000000E+00 -0.00000000000E+00 -0.27444695108E+03  0.27444695108E+03  0.00000000000E+00 0.  1.
      99926    2    1    2    0    0  0.00000000000E+00 -0.17763568394E-14 -0.78118407594E+02  0.47077549457E+03  0.46424894258E+03 0.  0.
      99925    2    3    3    0    0 -0.10280621479E+03 -0.11180362559E+02  0.16150111092E+02  0.28308377920E+03  0.26302372830E+03 0.  0.
         25    1    4    4    0    0 -0.23487346795E+02 -0.35119090512E+02  0.16372028366E+02  0.13304344174E+03  0.12509000000E+03 0.  0.
         25    1    3    3    0    0  0.10280621479E+03  0.11180362559E+02 -0.94268518687E+02  0.18769171538E+03  0.12509000000E+03 0.  0.
         25    1    4    4    0    0 -0.79318867993E+02  0.23938727953E+02 -0.22191727385E+00  0.15004033745E+03  0.12509000000E+03 0.  0.
<mgrwt>
<rscale>  2 0.46424894E+03</rscale>
<asrwt>0</asrwt>
<pdfrwt beam="1">  1       21 0.28871845E-01 0.46424894E+03</pdfrwt>
<pdfrwt beam="2">  1       21 0.40359846E-01 0.46424894E+03</pdfrwt>
<totfact> 0.62649115E+04</totfact>
</mgrwt>
</event>
<event>
 7    0  0.4709932E-002  0.4556673E+03  0.7546771E-02  0.1026045E+00
         21   -1    0    0  502  501  0.00000000000E+00  0.00000000000E+00  0.39728755906E+02  0.39728755906E+02  0.00000000000E+00 0.  1.
         21   -1    0    0  501  502 -0.00000000000E+00 -0.00000000000E+00 -0.13065641751E+04  0.13065641751E+04  0.00000000000E+00 0.  1.
      99926    2    1    2    0    0  0.00000000000E+00  0.71054273576E-14 -0.12668354192E+04  0.13462929310E+04  0.45566728733E+03 0.  0.
      99925    2    3    3    0    0  0.10466124111E+03  0.35688496238E+02 -0.87585315615E+03  0.92115497425E+03  0.26302108527E+03 0.  0.
         25    1    4    4    0    0  0.55842606748E+02  0.25083497006E+02 -0.57329861724E+03  0.58997151726E+03  0.12509000000E+03 0.  0.
         25    1    4    4    0    0  0.48818634362E+02  0.10604999232E+02 -0.30255453891E+03  0.33118345699E+03  0.12509000000E+03 0.  0.
         25    1    3    3    0    0 -0.10466124111E+03 -0.35688496238E+02 -0.39098226301E+03  0.42513795672E+03  0.12509000000E+03 0.  0.
<mgrwt>
<rscale>  2 0.45566729E+03</rscale>
<asrwt>0</asrwt>
<pdfrwt beam="1">  1       21 0.58424654E-02 0.45566729E+03</pdfrwt>
<pdfrwt beam="2">  1       21 0.19214175E+00 0.45566729E+03</pdfrwt>
<totfact> 0.27655248E+04</totfact>
</mgrwt>
</event>
<event>
 7    0  0.4709932E-002  0.4599100E+03  0.7546771E-02  0.1024807E+00
         21   -1    0    0  502  501  0.00000000000E+00  0.00000000000E+00  0.41904909223E+03  0.41904909223E+03  0.00000000000E+00 0. -1.
         21   -1    0    0  501  502 -0.00000000000E+00 -0.00000000000E+00 -0.12618881820E+03  0.12618881820E+03  0.00000000000E+00 0. -1.
      99926    2    1    2    0    0  0.00000000000E+00  0.00000000000E+00  0.29286027404E+03  0.54523791043E+03  0.45991003344E+03 0.  0.
      99925    2    3    3    0    0  0.72566779517E+02 -0.51764964765E+02  0.27462900978E+03  0.39055941754E+03  0.26300193259E+03 0.  0.
         25    1    4    4    0    0  0.19623832280E+02  0.12771517238E+02  0.12218090975E+03  0.17641963964E+03  0.12509000000E+03 0.  0.
         25    1    3    3    0    0 -0.72566779517E+02  0.51764964765E+02  0.18231264255E+02  0.15467849289E+03  0.12509000000E+03 0.  0.
         25    1    4    4    0    0  0.52942947236E+02 -0.64536482003E+02  0.15244810004E+03  0.21413977789E+03  0.12509000000E+03 0.  0.
<mgrwt>
<rscale>  2 0.45991003E+03</rscale>
<asrwt>0</asrwt>
<pdfrwt beam="1">  1       21 0.61624866E-01 0.45991003E+03</pdfrwt>
<pdfrwt beam="2">  1       21 0.18557179E-01 0.45991003E+03</pdfrwt>
<totfact> 0.59823860E+04</totfact>
</mgrwt>
</event>
<event>
 7    0  0.4709932E-002  0.4542496E+03  0.7546771E-02  0.1026462E+00
         21   -1    0    0  502  501  0.00000000000E+00  0.00000000000E+00  0.75609427794E+03  0.75609427794E+03  0.00000000000E+00 0.  1.
         21   -1    0    0  501  502 -0.00000000000E+00 -0.00000000000E+00 -0.68226505080E+02  0.68226505080E+02  0.00000000000E+00 0.  1.
      99926    2    1    2    0    0  0.00000000000E+00  0.00000000000E+00  0.68786777286E+03  0.82432078302E+03  0.45424957939E+03 0.  0.
      99925    2    3    3    0    0 -0.88857575750E+02  0.53546875948E+02  0.51192207165E+03  0.58480599315E+03  0.26300362258E+03 0.  0.
         25    1    4    4    0    0 -0.15847435411E+02  0.41680272641E+02  0.19231458448E+03  0.23371091939E+03  0.12509000000E+03 0.  0.
         25    1    4    4    0    0 -0.73010140339E+02  0.11866603307E+02  0.31960748717E+03  0.35109507376E+03  0.12509000000E+03 0.  0.
         25    1    3    3    0    0  0.88857575750E+02 -0.53546875948E+02  0.17594570121E+03  0.23951478987E+03  0.12509000000E+03 0.  0.
<mgrwt>
<rscale>  2 0.45424958E+03</rscale>
<asrwt>0</asrwt>
<pdfrwt beam="1">  1       21 0.11119033E+00 0.45424958E+03</pdfrwt>
<pdfrwt beam="2">  1       21 0.10033310E-01 0.45424958E+03</pdfrwt>
<totfact> 0.46886305E+04</totfact>
</mgrwt>
</event>
<event>
 7    0  0.4709932E-002  0.4553534E+03  0.7546771E-02  0.1026138E+00
         21   -1    0    0  502  501  0.00000000000E+00  0.00000000000E+00  0.30324635378E+03  0.30324635378E+03  0.00000000000E+00 0.  1.
         21   -1    0    0  501  502 -0.00000000000E+00 -0.00000000000E+00 -0.17093917536E+03  0.17093917536E+03  0.00000000000E+00 0.  1.
      99926    2    1    2    0    0  0.00000000000E+00  0.00000000000E+00  0.13230717842E+03  0.47418552915E+03  0.45535340845E+03 0.  0.
      99925    2    3    3    0    0  0.10814853812E+03 -0.20471488026E+02  0.54479119522E+02  0.29028364506E+03  0.26302363393E+03 0.  0.
         25    1    3    3    0    0 -0.10814853812E+03  0.20471488026E+02  0.77828058897E+02  0.18390188409E+03  0.12509000000E+03 0.  0.
         25    1    4    4    0    0  0.20926198371E+02 -0.31765146348E+02  0.39785363917E+02  0.13666496838E+03  0.12509000000E+03 0.  0.
         25    1    4    4    0    0  0.87222339750E+02  0.11293658322E+02  0.14693755605E+02  0.15361867668E+03  0.12509000000E+03 0.  0.
<mgrwt>
<rscale>  2 0.45535341E+03</rscale>
<asrwt>0</asrwt>
<pdfrwt beam="1">  1       21 0.44595052E-01 0.45535341E+03</pdfrwt>
<pdfrwt beam="2">  1       21 0.25138114E-01 0.45535341E+03</pdfrwt>
<totfact> 0.66937947E+04</totfact>
</mgrwt>
</event>
<event>
 7    0  0.4709932E-002  0.3963823E+03  0.7546771E-02  0.1045040E+00
         21   -1    0    0  502  501  0.00000000000E+00  0.00000000000E+00  0.52310306543E+02  0.52310306543E+02  0.00000000000E+00 0.  1.
         21   -1    0    0  501  502 -0.00000000000E+00 -0.00000000000E+00 -0.75089869418E+03  0.75089869418E+03  0.00000000000E+00 0.  1.
      99926    2    1    2    0    0  0.00000000000E+00  0.00000000000E+00 -0.69858838763E+03  0.80320900072E+03  0.39638234509E+03 0.  0.
      99925    2    3    3    0    0  0.16513123193E+02 -0.44021488811E+01 -0.40004702159E+03  0.47906934333E+03  0.26301664222E+03 0.  0.
         25    1    3    3    0    0 -0.16513123193E+02  0.44021488811E+01 -0.29854136605E+03  0.32413965739E+03  0.12509000000E+03 0.  0.
         25    1    4    4    0    0 -0.20734028622E+02 -0.71830248066E+01 -0.14647858270E+03  0.19386845819E+03  0.12509000000E+03 0.  0.
         25    1    4    4    0    0  0.37247151815E+02  0.27808759255E+01 -0.25356843888E+03  0.28520088514E+03  0.12509000000E+03 0.  0.
<mgrwt>
<rscale>  2 0.39638235E+03</rscale>
<asrwt>0</asrwt>
<pdfrwt beam="1">  1       21 0.76926923E-02 0.39638235E+03</pdfrwt>
<pdfrwt beam="2">  1       21 0.11042628E+00 0.39638235E+03</pdfrwt>
<totfact> 0.77614782E+04</totfact>
</mgrwt>
</event>
<event>
 7    0  0.4709932E-002  0.4605690E+03  0.7546771E-02  0.1024616E+00
         21   -1    0    0  502  501  0.00000000000E+00  0.00000000000E+00  0.15494348278E+03  0.15494348278E+03  0.00000000000E+00 0. -1.
         21   -1    0    0  501  502 -0.00000000000E+00 -0.00000000000E+00 -0.34226000106E+03  0.34226000106E+03  0.00000000000E+00 0. -1.
      99926    2    1    2    0    0  0.00000000000E+00  0.71054273576E-14 -0.18731651828E+03  0.49720348384E+03  0.46056902449E+03 0.  0.
      99925    2    3    3    0    0 -0.51779349585E+01  0.43958472398E+02 -0.23542109052E+03  0.35606271625E+03  0.26343577915E+03 0.  0.
         25    1    4    4    0    0  0.78689920225E+01  0.59690809370E+02 -0.14216000651E+03  0.19870050153E+03  0.12509000000E+03 0.  0.
         25    1    4    4    0    0 -0.13046926981E+02 -0.15732336972E+02 -0.93261084006E+02  0.15736221472E+03  0.12509000000E+03 0.  0.
         25    1    3    3    0    0  0.51779349585E+01 -0.43958472398E+02  0.48104572240E+02  0.14114076759E+03  0.12509000000E+03 0.  0.
<mgrwt>
<rscale>  2 0.46056902E+03</rscale>
<asrwt>0</asrwt>
<pdfrwt beam="1">  1       21 0.22785807E-01 0.46056902E+03</pdfrwt>
<pdfrwt beam="2">  1       21 0.50332352E-01 0.46056902E+03</pdfrwt>
<totfact> 0.62651588E+04</totfact>
</mgrwt>
</event>
<event>
 7    0  0.4709932E-002  0.4522033E+03  0.7546771E-02  0.1027067E+00
         21   -1    0    0  502  501  0.00000000000E+00  0.00000000000E+00  0.12086285131E+04  0.12086285131E+04  0.00000000000E+00 0.  1.
         21   -1    0    0  501  502 -0.00000000000E+00 -0.00000000000E+00 -0.42297491475E+02  0.42297491475E+02  0.00000000000E+00 0.  1.
      99926    2    1    2    0    0  0.00000000000E+00  0.00000000000E+00  0.11663310216E+04  0.12509260045E+04  0.45220329158E+03 0.  0.
      99925    2    3    3    0    0  0.98951354069E+02 -0.42353710177E+02  0.80083199572E+03  0.84989950510E+03  0.26346171671E+03 0.  0.
         25    1    4    4    0    0  0.92038702663E+01 -0.23286579960E+02  0.31313966516E+03  0.33812857618E+03  0.12509000000E+03 0.  0.
         25    1    3    3    0    0 -0.98951354069E+02  0.42353710177E+02  0.36549902587E+03  0.40102649944E+03  0.12509000000E+03 0.  0.
         25    1    4    4    0    0  0.89747483803E+02 -0.19067130218E+02  0.48769233056E+03  0.51177092892E+03  0.12509000000E+03 0.  0.
<mgrwt>
<rscale>  2 0.45220329E+03</rscale>
<asrwt>0</asrwt>
<pdfrwt beam="1">  1       21 0.17773946E+00 0.45220329E+03</pdfrwt>
<pdfrwt beam="2">  1       21 0.62202201E-02 0.45220329E+03</pdfrwt>
<totfact> 0.31248634E+04</totfact>
</mgrwt>
</event>
<event>
 7    0  0.4709932E-002  0.4568883E+03  0.7546771E-02  0.1025688E+00
         21   -1    0    0  502  501  0.00000000000E+00  0.00000000000E+00  0.28059660832E+03  0.28059660832E+03  0.00000000000E+00 0. -1.
         21   -1    0    0  501  502 -0.00000000000E+00 -0.00000000000E+00 -0.18598487746E+03  0.18598487746E+03  0.00000000000E+00 0. -1.
      99926    2    1    2    0    0  0.00000000000E+00  0.00000000000E+00  0.94611730851E+02  0.46658148578E+03  0.45688828313E+03 0.  0.
      99925    2    3    3    0    0  0.87620766947E+02 -0.62596442012E+02  0.18502756857E+02  0.28482396221E+03  0.26303350373E+03 0.  0.
         25    1    4    4    0    0  0.51877491143E+02  0.89444339611E+01  0.65397815211E+01  0.13587330065E+03  0.12509000000E+03 0.  0.
         25    1    3    3    0    0 -0.87620766947E+02  0.62596442012E+02  0.76108973994E+02  0.18175752357E+03  0.12509000000E+03 0.  0.
         25    1    4    4    0    0  0.35743275804E+02 -0.71540875973E+02  0.11962975336E+02  0.14895066156E+03  0.12509000000E+03 0.  0.
<mgrwt>
<rscale>  2 0.45688828E+03</rscale>
<asrwt>0</asrwt>
<pdfrwt beam="1">  1       21 0.41264207E-01 0.45688828E+03</pdfrwt>
<pdfrwt beam="2">  1       21 0.27350717E-01 0.45688828E+03</pdfrwt>
<totfact> 0.66686437E+04</totfact>
</mgrwt>
</event>
<event>
 7    0  0.4709932E-002  0.4575359E+03  0.7546771E-02  0.1025498E+00
         21   -1    0    0  502  501  0.00000000000E+00  0.00000000000E+00  0.10187449592E+04  0.10187449592E+04  0.00000000000E+00 0. -1.
         21   -1    0    0  501  502 -0.00000000000E+00 -0.00000000000E+00 -0.51371820635E+02  0.51371820635E+02  0.00000000000E+00 0. -1.
      99926    2    1    2    0    0  0.71054273576E-14  0.00000000000E+00  0.96737313861E+03  0.10701167799E+04  0.45753593660E+03 0.  0.
      99925    2    3    3    0    0 -0.45721086542E+02  0.77303521038E+02  0.77718344403E+03  0.82540086266E+03  0.26307076287E+03 0.  0.
         25    1    3    3    0    0  0.45721086542E+02 -0.77303521038E+02  0.19018969458E+03  0.24471591723E+03  0.12509000000E+03 0.  0.
         25    1    4    4    0    0 -0.43524561275E+02  0.76097973089E+02  0.43893790040E+03  0.46475722420E+03  0.12509000000E+03 0.  0.
         25    1    4    4    0    0 -0.21965252674E+01  0.12055479486E+01  0.33824554364E+03  0.36064363846E+03  0.12509000000E+03 0.  0.
<mgrwt>
<rscale>  2 0.45753594E+03</rscale>
<asrwt>0</asrwt>
<pdfrwt beam="1">  1       21 0.14981542E+00 0.45753594E+03</pdfrwt>
<pdfrwt beam="2">  1       21 0.75546802E-02 0.45753594E+03</pdfrwt>
<totfact> 0.35833409E+04</totfact>
</mgrwt>
</event>
<event>
 7    0  0.4709932E-002  0.4578933E+03  0.7546771E-02  0.1025394E+00
         21   -1    0    0  502  501  0.00000000000E+00  0.00000000000E+00  0.61701302763E+03  0.61701302763E+03  0.00000000000E+00 0. -1.
         21   -1    0    0  501  502 -0.00000000000E+00 -0.00000000000E+00 -0.84952113150E+02  0.84952113150E+02  0.00000000000E+00 0. -1.
      99926    2    1    2    0    0 -0.14210854715E-13  0.00000000000E+00  0.53206091448E+03  0.70196514077E+03  0.45789326502E+03 0.  0.
      99925    2    3    3    0    0  0.10584989661E+03  0.34321131233E+02  0.28534443479E+03  0.40380634062E+03  0.26316529710E+03 0.  0.
         25    1    3    3    0    0 -0.10584989661E+03 -0.34321131233E+02  0.24671647969E+03  0.29815880016E+03  0.12509000000E+03 0.  0.
         25    1    4    4    0    0  0.69760448356E+02  0.36344371035E+02  0.10458579136E+03  0.18103350330E+03  0.12509000000E+03 0.  0.
         25    1    4    4    0    0  0.36089448258E+02 -0.20232398017E+01  0.18075864343E+03  0.22277283732E+03  0.12509000000E+03 0.  0.
<mgrwt>
<rscale>  2 0.45789327E+03</rscale>
<asrwt>0</asrwt>
<pdfrwt beam="1">  1       21 0.90737208E-01 0.45789327E+03</pdfrwt>
<pdfrwt beam="2">  1       21 0.12492958E-01 0.45789327E+03</pdfrwt>
<totfact> 0.51611208E+04</totfact>
</mgrwt>
</event>
<event>
 7    0  0.4709932E-002  0.4550503E+03  0.7546771E-02  0.1026227E+00
         21   -1    0    0  502  501  0.00000000000E+00  0.00000000000E+00  0.33295257163E+03  0.33295257163E+03  0.00000000000E+00 0. -1.
         21   -1    0    0  501  502 -0.00000000000E+00 -0.00000000000E+00 -0.15548068877E+03  0.15548068877E+03  0.00000000000E+00 0. -1.
      99926    2    1    2    0    0  0.00000000000E+00  0.00000000000E+00  0.17747188286E+03  0.48843326040E+03  0.45505030564E+03 0.  0.
      99925    2    3    3    0    0  0.26709968719E+02 -0.38282479794E+02  0.81352825697E+00  0.26699556479E+03  0.26288210114E+03 0.  0.
         25    1    3    3    0    0 -0.26709968719E+02  0.38282479794E+02  0.17665835460E+03  0.22143769561E+03  0.12509000000E+03 0.  0.
         25    1    4    4    0    0 -0.21042154769E+02 -0.39837957019E+02  0.46419208030E+01  0.13303717761E+03  0.12509000000E+03 0.  0.
         25    1    4    4    0    0  0.47752123488E+02  0.15554772244E+01 -0.38283925460E+01  0.13395838718E+03  0.12509000000E+03 0.  0.
<mgrwt>
<rscale>  2 0.45505031E+03</rscale>
<asrwt>0</asrwt>
<pdfrwt beam="1">  1       21 0.48963614E-01 0.45505031E+03</pdfrwt>
<pdfrwt beam="2">  1       21 0.22864807E-01 0.45505031E+03</pdfrwt>
<totfact> 0.66064768E+04</totfact>
</mgrwt>
</event>
<event>
 7    0  0.4709932E-002  0.4537043E+03  0.7546771E-02  0.1026623E+00
         21   -1    0    0  502  501  0.00000000000E+00  0.00000000000E+00  0.24782968414E+03  0.24782968414E+03  0.00000000000E+00 0. -1.
         21   -1    0    0  501  502 -0.00000000000E+00 -0.00000000000E+00 -0.20765024770E+03  0.20765024770E+03  0.00000000000E+00 0. -1.
      99926    2    1    2    0    0  0.00000000000E+00  0.00000000000E+00  0.40179436439E+02  0.45547993183E+03  0.45370428826E+03 0.  0.
      99925    2    3    3    0    0  0.96138110790E+02  0.56832635387E+02  0.33789737628E+02  0.28766806949E+03  0.26294236449E+03 0.  0.
         25    1    3    3    0    0 -0.96138110790E+02 -0.56832635387E+02  0.63896988110E+01  0.16781186234E+03  0.12509000000E+03 0.  0.
         25    1    4    4    0    0  0.16662311318E+02  0.25641664622E+02 -0.12304057355E+02  0.12936006150E+03  0.12509000000E+03 0.  0.
         25    1    4    4    0    0  0.79475799473E+02  0.31190970765E+02  0.46093794983E+02  0.15830800799E+03  0.12509000000E+03 0.  0.
<mgrwt>
<rscale>  2 0.45370429E+03</rscale>
<asrwt>0</asrwt>
<pdfrwt beam="1">  1       21 0.36445542E-01 0.45370429E+03</pdfrwt>
<pdfrwt beam="2">  1       21 0.30536801E-01 0.45370429E+03</pdfrwt>
<totfact> 0.69223540E+04</totfact>
</mgrwt>
</event>
<event>
 7    0  0.4709932E-002  0.4651381E+03  0.7546771E-02  0.1023301E+00
         21   -1    0    0  502  501  0.00000000000E+00  0.00000000000E+00  0.13943790854E+03  0.13943790854E+03  0.00000000000E+00 0.  1.
         21   -1    0    0  501  502 -0.00000000000E+00 -0.00000000000E+00 -0.38790280088E+03  0.38790280088E+03  0.00000000000E+00 0.  1.
      99926    2    1    2    0    0  0.00000000000E+00  0.88817841970E-15 -0.24846489234E+03  0.52734070942E+03  0.46513806670E+03 0.  0.
      99925    2    3    3    0    0 -0.10605983569E+02  0.54790893559E+01 -0.29319021086E+03  0.39396016540E+03  0.26287184115E+03 0.  0.
         25    1    4    4    0    0 -0.12302904674E+02  0.42490325076E+02 -0.14777409948E+03  0.19859879598E+03  0.12509000000E+03 0.  0.
         25    1    3    3    0    0  0.10605983569E+02 -0.54790893559E+01  0.44725318522E+02  0.13338054403E+03  0.12509000000E+03 0.  0.
         25    1    4    4    0    0  0.16969211051E+01 -0.37011235720E+02 -0.14541611138E+03  0.19536136942E+03  0.12509000000E+03 0.  0.
<mgrwt>
<rscale>  2 0.46513807E+03</rscale>
<asrwt>0</asrwt>
<pdfrwt beam="1">  1       21 0.20505575E-01 0.46513807E+03</pdfrwt>
<pdfrwt beam="2">  1       21 0.57044530E-01 0.46513807E+03</pdfrwt>
<totfact> 0.58537997E+04</totfact>
</mgrwt>
</event>
<event>
 7    0  0.4709932E-002  0.4576768E+03  0.7546771E-02  0.1025457E+00
         21   -1    0    0  502  501  0.00000000000E+00  0.00000000000E+00  0.98118408890E+03  0.98118408890E+03  0.00000000000E+00 0. -1.
         21   -1    0    0  501  502 -0.00000000000E+00 -0.00000000000E+00 -0.53371232301E+02  0.53371232301E+02  0.00000000000E+00 0. -1.
      99926    2    1    2    0    0  0.00000000000E+00  0.71054273576E-14  0.92781285660E+03  0.10345553212E+04  0.45767675903E+03 0.  0.
      99925    2    3    3    0    0 -0.70704043573E+02  0.58272826540E+02  0.42265338607E+03  0.50613467166E+03  0.26294797397E+03 0.  0.
         25    1    3    3    0    0  0.70704043573E+02 -0.58272826540E+02  0.50515947053E+03  0.52842064954E+03  0.12509000000E+03 0.  0.
         25    1    4    4    0    0 -0.23151843524E+02  0.20078452194E+02  0.13496515497E+03  0.18655362033E+03  0.12509000000E+03 0.  0.
         25    1    4    4    0    0 -0.47552200049E+02  0.38194374346E+02  0.28768823110E+03  0.31958105133E+03  0.12509000000E+03 0.  0.
<mgrwt>
<rscale>  2 0.45767676E+03</rscale>
<asrwt>0</asrwt>
<pdfrwt beam="1">  1       21 0.14429177E+00 0.45767676E+03</pdfrwt>
<pdfrwt beam="2">  1       21 0.78487112E-02 0.45767676E+03</pdfrwt>
<totfact> 0.37068590E+04</totfact>
</mgrwt>
</event>
<event>
 7    0  0.4709932E-002  0.4551551E+03  0.7546771E-02  0.1026196E+00
         21   -1    0    0  502  501  0.00000000000E+00  0.00000000000E+00  0.64134911718E+03  0.64134911718E+03  0.00000000000E+00 0. -1.
         21   -1    0    0  501  502 -0.00000000000E+00 -0.00000000000E+00 -0.80754047255E+02  0.80754047255E+02  0.00000000000E+00 0. -1.
      99926    2    1    2    0    0  0.00000000000E+00  0.00000000000E+00  0.56059506993E+03  0.72210316444E+03  0.45515508089E+03 0.  0.
      99925    2    3    3    0    0  0.93948255013E+02 -0.63227942303E+02  0.36235521587E+03  0.46177530357E+03  0.26288986517E+03 0.  0.
         25    1    4    4    0    0  0.70730567085E+02 -0.34799968186E+02  0.13775728679E+03  0.20208520250E+03  0.12509000000E+03 0.  0.
         25    1    3    3    0    0 -0.93948255013E+02  0.63227942303E+02  0.19823985405E+03  0.26032786087E+03  0.12509000000E+03 0.  0.
         25    1    4    4    0    0  0.23217687928E+02 -0.28427974117E+02  0.22459792909E+03  0.25969010107E+03  0.12509000000E+03 0.  0.
<mgrwt>
<rscale>  2 0.45515508E+03</rscale>
<asrwt>0</asrwt>
<pdfrwt beam="1">  1       21 0.94316044E-01 0.45515508E+03</pdfrwt>
<pdfrwt beam="2">  1       21 0.11875596E-01 0.45515508E+03</pdfrwt>
<totfact> 0.51656282E+04</totfact>
</mgrwt>
</event>
<event>
 7    0  0.4709932E-002  0.4544636E+03  0.7546771E-02  0.1026399E+00
         21   -1    0    0  502  501  0.00000000000E+00  0.00000000000E+00  0.13655213225E+03  0.13655213225E+03  0.00000000000E+00 0. -1.
         21   -1    0    0  501  502 -0.00000000000E+00 -0.00000000000E+00 -0.37812879103E+03  0.37812879103E+03  0.00000000000E+00 0. -1.
      99926    2    1    2    0    0  0.00000000000E+00  0.00000000000E+00 -0.24157665879E+03  0.51468092328E+03  0.45446360769E+03 0.  0.
      99925    2    3    3    0    0  0.23350669858E+02  0.10976280179E+03 -0.16440745778E+03  0.32976007501E+03  0.26290448543E+03 0.  0.
         25    1    4    4    0    0 -0.22514586625E+01  0.32070498249E+02 -0.11327944250E+03  0.17179442982E+03  0.12509000000E+03 0.  0.
         25    1    4    4    0    0  0.25602128521E+02  0.77692303544E+02 -0.51128015280E+02  0.15796564519E+03  0.12509000000E+03 0.  0.
         25    1    3    3    0    0 -0.23350669858E+02 -0.10976280179E+03 -0.77169201011E+02  0.18492084827E+03  0.12509000000E+03 0.  0.
<mgrwt>
<rscale>  2 0.45446361E+03</rscale>
<asrwt>0</asrwt>
<pdfrwt beam="1">  1       21 0.20081196E-01 0.45446361E+03</pdfrwt>
<pdfrwt beam="2">  1       21 0.55607174E-01 0.45446361E+03</pdfrwt>
<totfact> 0.64525313E+04</totfact>
</mgrwt>
</event>
<event>
 7    0  0.4709932E-002  0.4590529E+03  0.7546771E-02  0.1025056E+00
         21   -1    0    0  502  501  0.00000000000E+00  0.00000000000E+00  0.26937831058E+03  0.26937831058E+03  0.00000000000E+00 0.  1.
         21   -1    0    0  501  502 -0.00000000000E+00 -0.00000000000E+00 -0.19557028994E+03  0.19557028994E+03  0.00000000000E+00 0.  1.
      99926    2    1    2    0    0 -0.71054273576E-14 -0.71054273576E-14  0.73808020639E+02  0.46494860052E+03  0.45905291331E+03 0.  0.
      99925    2    3    3    0    0  0.41351608377E+02  0.38888544369E+02  0.14987987826E+03  0.30792404824E+03  0.26292768431E+03 0.  0.
         25    1    4    4    0    0  0.38801960037E+02  0.34540552515E+02  0.39681491004E+02  0.14114096039E+03  0.12509000000E+03 0.  0.
         25    1    4    4    0    0  0.25496483405E+01  0.43479918546E+01  0.11019838725E+03  0.16678308785E+03  0.12509000000E+03 0.  0.
         25    1    3    3    0    0 -0.41351608377E+02 -0.38888544369E+02 -0.76071857620E+02  0.15702455229E+03  0.12509000000E+03 0.  0.
<mgrwt>
<rscale>  2 0.45905291E+03</rscale>
<asrwt>0</asrwt>
<pdfrwt beam="1">  1       21 0.39614458E-01 0.45905291E+03</pdfrwt>
<pdfrwt beam="2">  1       21 0.28760337E-01 0.45905291E+03</pdfrwt>
<totfact> 0.65672416E+04</totfact>
</mgrwt>
</event>
<event>
 7    0  0.4709932E-002  0.4607130E+03  0.7546771E-02  0.1024575E+00
         21   -1    0    0  502  501  0.00000000000E+00  0.00000000000E+00  0.23224340925E+03  0.23224340925E+03  0.00000000000E+00 0. -1.
         21   -1    0    0  501  502 -0.00000000000E+00 -0.00000000000E+00 -0.22848496152E+03  0.22848496152E+03  0.00000000000E+00 0. -1.
      99926    2    1    2    0    0  0.71054273576E-14  0.35527136788E-14  0.37584477304E+01  0.46072837076E+03  0.46071304051E+03 0.  0.
      99925    2    3    3    0    0 -0.58383807930E+02 -0.24531742604E+02  0.10245594963E+03  0.28926647877E+03  0.26299695569E+03 0.  0.
         25    1    4    4    0    0 -0.13439214984E+02  0.18335350895E+02  0.25029024849E+02  0.12957915641E+03  0.12509000000E+03 0.  0.
         25    1    4    4    0    0 -0.44944592946E+02 -0.42867093499E+02  0.77426924784E+02  0.15968732236E+03  0.12509000000E+03 0.  0.
         25    1    3    3    0    0  0.58383807930E+02  0.24531742604E+02 -0.98697501903E+02  0.17146189199E+03  0.12509000000E+03 0.  0.
<mgrwt>
<rscale>  2 0.46071304E+03</rscale>
<asrwt>0</asrwt>
<pdfrwt beam="1">  1       21 0.34153443E-01 0.46071304E+03</pdfrwt>
<pdfrwt beam="2">  1       21 0.33600729E-01 0.46071304E+03</pdfrwt>
<totfact> 0.65109208E+04</totfact>
</mgrwt>
</event>
<event>
 7    0  0.4709932E-002  0.4523669E+03  0.7546771E-02  0.1027019E+00
         21   -1    0    0  502  501  0.00000000000E+00  0.00000000000E+00  0.13059261562E+03  0.13059261562E+03  0.00000000000E+00 0. -1.
         21   -1    0    0  501  502 -0.00000000000E+00 -0.00000000000E+00 -0.39174461958E+03  0.39174461958E+03  0.00000000000E+00 0. -1.
      99926    2    1    2    0    0  0.00000000000E+00 -0.14210854715E-13 -0.26115200396E+03  0.52233723520E+03  0.45236690650E+03 0.  0.
      99925    2    3    3    0    0 -0.86530227346E+02 -0.66757996645E+02 -0.14449442744E+03  0.31935790467E+03  0.26299566794E+03 0.  0.
         25    1    4    4    0    0 -0.57919359256E+02  0.46554325028E+01 -0.68131485594E+02  0.15383670777E+03  0.12509000000E+03 0.  0.
         25    1    4    4    0    0 -0.28610868090E+02 -0.71413429148E+02 -0.76362941844E+02  0.16552119690E+03  0.12509000000E+03 0.  0.
         25    1    3    3    0    0  0.86530227346E+02  0.66757996645E+02 -0.11665757652E+03  0.20297933053E+03  0.12509000000E+03 0.  0.
<mgrwt>
<rscale>  2 0.45236691E+03</rscale>
<asrwt>0</asrwt>
<pdfrwt beam="1">  1       21 0.19204796E-01 0.45236691E+03</pdfrwt>
<pdfrwt beam="2">  1       21 0.57609503E-01 0.45236691E+03</pdfrwt>
<totfact> 0.65076019E+04</totfact>
</mgrwt>
</event>
<event>
 7    0  0.4709932E-002  0.4372702E+03  0.7546771E-02  0.1031588E+00
         21   -1    0    0  502  501  0.00000000000E+00  0.00000000000E+00  0.57750370116E+03  0.57750370116E+03  0.00000000000E+00 0.  1.
         21   -1    0    0  501  502 -0.00000000000E+00 -0.00000000000E+00 -0.82772283456E+02  0.82772283456E+02  0.00000000000E+00 0.  1.
      99926    2    1    2    0    0  0.00000000000E+00  0.35527136788E-14  0.49473141770E+03  0.66027598462E+03  0.43727016843E+03 0.  0.
      99925    2    3    3    0    0  0.86955192173E+02 -0.25920801467E+02  0.36080591549E+03  0.45578480721E+03  0.26329790815E+03 0.  0.
         25    1    4    4    0    0  0.69188978746E+02 -0.20412505661E+02  0.13883723423E+03  0.20031742529E+03  0.12509000000E+03 0.  0.
         25    1    3    3    0    0 -0.86955192173E+02  0.25920801467E+02  0.13392550221E+03  0.20449117741E+03  0.12509000000E+03 0.  0.
         25    1    4    4    0    0  0.17766213427E+02 -0.55082958056E+01  0.22196868126E+03  0.25546738192E+03  0.12509000000E+03 0.  0.
<mgrwt>
<rscale>  2 0.43727017E+03</rscale>
<asrwt>0</asrwt>
<pdfrwt beam="1">  1       21 0.84927013E-01 0.43727017E+03</pdfrwt>
<pdfrwt beam="2">  1       21 0.12172395E-01 0.43727017E+03</pdfrwt>
<totfact> 0.63535621E+04</totfact>
</mgrwt>
</event>
<event>
 7    0  0.4709932E-002  0.4803086E+03  0.7546771E-02  0.1019050E+00
         21   -1    0    0  502  501  0.00000000000E+00  0.00000000000E+00  0.75841289619E+02  0.75841289619E+02  0.00000000000E+00 0. -1.
         21   -1    0    0  501  502 -0.00000000000E+00 -0.00000000000E+00 -0.76045774925E+03  0.76045774925E+03  0.00000000000E+00 0. -1.
      99926    2    1    2    0    0  0.00000000000E+00 -0.71054273576E-14 -0.68461645963E+03  0.83629903887E+03  0.48030863579E+03 0.  0.
      99925    2    3    3    0    0  0.49069482279E+02  0.32999448201E+02 -0.21069802506E+03  0.34259571865E+03  0.26359323018E+03 0.  0.
         25    1    4    4    0    0  0.11423077422E+02 -0.18822109411E+02 -0.76463864824E+02  0.14825312551E+03  0.12509000000E+03 0.  0.
         25    1    3    3    0    0 -0.49069482279E+02 -0.32999448201E+02 -0.47391843457E+03  0.49370332022E+03  0.12509000000E+03 0.  0.
         25    1    4    4    0    0  0.37646404857E+02  0.51821557612E+02 -0.13423416024E+03  0.19434259314E+03  0.12509000000E+03 0.  0.
<mgrwt>
<rscale>  2 0.48030864E+03</rscale>
<asrwt>0</asrwt>
<pdfrwt beam="1">  1       21 0.11153131E-01 0.48030864E+03</pdfrwt>
<pdfrwt beam="2">  1       21 0.11183202E+00 0.48030864E+03</pdfrwt>
<totfact> 0.37943954E+04</totfact>
</mgrwt>
</event>
<event>
 7    0  0.4709932E-002  0.4510119E+03  0.7546771E-02  0.1027421E+00
         21   -1    0    0  502  501  0.00000000000E+00  0.00000000000E+00  0.56944765554E+02  0.56944765554E+02  0.00000000000E+00 0.  1.
         21   -1    0    0  501  502 -0.00000000000E+00 -0.00000000000E+00 -0.89302192667E+03  0.89302192667E+03  0.00000000000E+00 0.  1.
      99926    2    1    2    0    0  0.00000000000E+00  0.00000000000E+00 -0.83607716111E+03  0.94996669222E+03  0.45101185904E+03 0.  0.
      99925    2    3    3    0    0 -0.18352103702E+02 -0.66040686420E+02 -0.70773495328E+03  0.75808807855E+03  0.26288894760E+03 0.  0.
         25    1    3    3    0    0  0.18352103702E+02  0.66040686420E+02 -0.12834220783E+03  0.19187861367E+03  0.12509000000E+03 0.  0.
         25    1    4    4    0    0 -0.12256767651E+02 -0.34995449167E+02 -0.24344539401E+03  0.27620296483E+03  0.12509000000E+03 0.  0.
         25    1    4    4    0    0 -0.60953360510E+01 -0.31045237254E+02 -0.46428955928E+03  0.48188511373E+03  0.12509000000E+03 0.  0.
<mgrwt>
<rscale>  2 0.45101186E+03</rscale>
<asrwt>0</asrwt>
<pdfrwt beam="1">  1       21 0.83742300E-02 0.45101186E+03</pdfrwt>
<pdfrwt beam="2">  1       21 0.13132676E+00 0.45101186E+03</pdfrwt>
<totfact> 0.42450646E+04</totfact>
</mgrwt>
</event>
<event>
 7    0  0.4709932E-002  0.4613748E+03  0.7546771E-02  0.1024383E+00
         21   -1    0    0  502  501  0.00000000000E+00  0.00000000000E+00  0.29954217580E+03  0.29954217580E+03  0.00000000000E+00 0.  1.
         21   -1    0    0  501  502 -0.00000000000E+00 -0.00000000000E+00 -0.17766008073E+03  0.17766008073E+03  0.00000000000E+00 0.  1.
      99926    2    1    2    0    0 -0.17763568394E-14  0.00000000000E+00  0.12188209506E+03  0.47720225653E+03  0.46137484602E+03 0.  0.
      99925    2    3    3    0    0  0.11323491342E+02 -0.11755923370E+03  0.60967596831E+02  0.29470162891E+03  0.26302776914E+03 0.  0.
         25    1    4    4    0    0  0.32807379996E+02 -0.26346585036E+02  0.30697066956E+02  0.13550012821E+03  0.12509000000E+03 0.  0.
         25    1    3    3    0    0 -0.11323491342E+02  0.11755923370E+03  0.60914498234E+02  0.18250062761E+03  0.12509000000E+03 0.  0.
         25    1    4    4    0    0 -0.21483888655E+02 -0.91212648661E+02  0.30270529875E+02  0.15920150070E+03  0.12509000000E+03 0.  0.
<mgrwt>
<rscale>  2 0.46137485E+03</rscale>
<asrwt>0</asrwt>
<pdfrwt beam="1">  1       21 0.44050320E-01 0.46137485E+03</pdfrwt>
<pdfrwt beam="2">  1       21 0.26126482E-01 0.46137485E+03</pdfrwt>
<totfact> 0.63624485E+04</totfact>
</mgrwt>
</event>
<event>
 7    0  0.4709932E-002  0.4533439E+03  0.7546771E-02  0.1026730E+00
         21   -1    0    0  502  501  0.00000000000E+00  0.00000000000E+00  0.72013024006E+03  0.72013024006E+03  0.00000000000E+00 0. -1.
         21   -1    0    0  501  502 -0.00000000000E+00 -0.00000000000E+00 -0.71348447274E+02  0.71348447274E+02  0.00000000000E+00 0. -1.
      99926    2    1    2    0    0  0.22204460493E-15  0.14210854715E-13  0.64878179279E+03  0.79147868734E+03  0.45334390682E+03 0.  0.
      99925    2    3    3    0    0  0.62780136731E+00  0.10345782301E+03  0.33588560569E+03  0.43897982595E+03  0.26302135314E+03 0.  0.
         25    1    4    4    0    0  0.56672959629E+01  0.22862229895E+02  0.10888278961E+03  0.16750453658E+03  0.12509000000E+03 0.  0.
         25    1    3    3    0    0 -0.62780136731E+00 -0.10345782301E+03  0.31289618710E+03  0.35249886138E+03  0.12509000000E+03 0.  0.
         25    1    4    4    0    0 -0.50394945956E+01  0.80595593116E+02  0.22700281608E+03  0.27147528938E+03  0.12509000000E+03 0.  0.
<mgrwt>
<rscale>  2 0.45334391E+03</rscale>
<asrwt>0</asrwt>
<pdfrwt beam="1">  1       21 0.10590150E+00 0.45334391E+03</pdfrwt>
<pdfrwt beam="2">  1       21 0.10492419E-01 0.45334391E+03</pdfrwt>
<totfact> 0.48811095E+04</totfact>
</mgrwt>
</event>
<event>
 7    0  0.4709932E-002  0.4646122E+03  0.7546771E-02  0.1023452E+00
         21   -1    0    0  502  501  0.00000000000E+00  0.00000000000E+00  0.21875833487E+03  0.21875833487E+03  0.00000000000E+00 0.  1.
         21   -1    0    0  501  502 -0.00000000000E+00 -0.00000000000E+00 -0.24669289155E+03  0.24669289155E+03  0.00000000000E+00 0.  1.
      99926    2    1    2    0    0  0.00000000000E+00  0.00000000000E+00 -0.27934556676E+02  0.46545122642E+03  0.46461220897E+03 0.  0.
      99925    2    3    3    0    0 -0.20636914853E+02  0.99064347723E+02  0.50801222870E+02  0.28632429287E+03  0.26298518817E+03 0.  0.
         25    1    4    4    0    0 -0.13332564109E+02  0.29177832544E+02  0.60326318366E+02  0.14253377131E+03  0.12509000000E+03 0.  0.
         25    1    3    3    0    0  0.20636914853E+02 -0.99064347723E+02 -0.78735779545E+02  0.17912693356E+03  0.12509000000E+03 0.  0.
         25    1    4    4    0    0 -0.73043507435E+01  0.69886515179E+02 -0.95250954963E+01  0.14379052155E+03  0.12509000000E+03 0.  0.
<mgrwt>
<rscale>  2 0.46461221E+03</rscale>
<asrwt>0</asrwt>
<pdfrwt beam="1">  1       21 0.32170344E-01 0.46461221E+03</pdfrwt>
<pdfrwt beam="2">  1       21 0.36278366E-01 0.46461221E+03</pdfrwt>
<totfact> 0.62828267E+04</totfact>
</mgrwt>
</event>
<event>
 7    0  0.4709932E-002  0.4615288E+03  0.7546771E-02  0.1024339E+00
         21   -1    0    0  502  501  0.00000000000E+00  0.00000000000E+00  0.31094568060E+03  0.31094568060E+03  0.00000000000E+00 0. -1.
         21   -1    0    0  501  502 -0.00000000000E+00 -0.00000000000E+00 -0.17125888051E+03  0.17125888051E+03  0.00000000000E+00 0. -1.
      99926    2    1    2    0    0  0.14210854715E-13  0.00000000000E+00  0.13968680009E+03  0.48220456110E+03  0.46152880368E+03 0.  0.
      99925    2    3    3    0    0  0.11758099195E+03 -0.87727392714E+01  0.10406783302E+03  0.30665266126E+03  0.26325556056E+03 0.  0.
         25    1    4    4    0    0  0.41235877905E+02  0.20029571934E+02  0.18438405834E+02  0.13449559208E+03  0.12509000000E+03 0.  0.
         25    1    3    3    0    0 -0.11758099195E+03  0.87727392714E+01  0.35618967072E+02  0.17555189984E+03  0.12509000000E+03 0.  0.
         25    1    4    4    0    0  0.76345114049E+02 -0.28802311205E+02  0.85629427185E+02  0.17215706918E+03  0.12509000000E+03 0.  0.
<mgrwt>
<rscale>  2 0.46152880E+03</rscale>
<asrwt>0</asrwt>
<pdfrwt beam="1">  1       21 0.45727306E-01 0.46152880E+03</pdfrwt>
<pdfrwt beam="2">  1       21 0.25185130E-01 0.46152880E+03</pdfrwt>
<totfact> 0.63200919E+04</totfact>
</mgrwt>
</event>
<event>
 7    0  0.4709932E-002  0.4516333E+03  0.7546771E-02  0.1027236E+00
         21   -1    0    0  502  501  0.00000000000E+00  0.00000000000E+00  0.78656198233E+02  0.78656198233E+02  0.00000000000E+00 0.  1.
         21   -1    0    0  501  502 -0.00000000000E+00 -0.00000000000E+00 -0.64830439663E+03  0.64830439663E+03  0.00000000000E+00 0.  1.
      99926    2    1    2    0    0 -0.35527136788E-14  0.71054273576E-14 -0.56964819840E+03  0.72696059487E+03  0.45163329876E+03 0.  0.
      99925    2    3    3    0    0  0.22960648477E+02 -0.49634111744E+02 -0.51287271038E+03  0.57910356742E+03  0.26330930161E+03 0.  0.
         25    1    3    3    0    0 -0.22960648477E+02  0.49634111744E+02 -0.56775488020E+02  0.14785702745E+03  0.12509000000E+03 0.  0.
         25    1    4    4    0    0  0.34773876549E+02 -0.41481406559E+02 -0.33036468263E+03  0.35737691757E+03  0.12509000000E+03 0.  0.
         25    1    4    4    0    0 -0.11813228072E+02 -0.81527051850E+01 -0.18250802775E+03  0.22172664985E+03  0.12509000000E+03 0.  0.
<mgrwt>
<rscale>  2 0.45163330E+03</rscale>
<asrwt>0</asrwt>
<pdfrwt beam="1">  1       21 0.11567088E-01 0.45163330E+03</pdfrwt>
<pdfrwt beam="2">  1       21 0.95338878E-01 0.45163330E+03</pdfrwt>
<totfact> 0.52848934E+04</totfact>
</mgrwt>
</event>
<event>
 7    0  0.4709932E-002  0.4514323E+03  0.7546771E-02  0.1027296E+00
         21   -1    0    0  502  501  0.00000000000E+00  0.00000000000E+00  0.24751550926E+03  0.24751550926E+03  0.00000000000E+00 0.  1.
         21   -1    0    0  501  502 -0.00000000000E+00 -0.00000000000E+00 -0.20583675983E+03  0.20583675983E+03  0.00000000000E+00 0.  1.
      99926    2    1    2    0    0  0.88817841970E-15  0.00000000000E+00  0.41678749424E+02  0.45335226909E+03  0.45143234458E+03 0.  0.
      99925    2    3    3    0    0  0.13665123385E+01  0.10929540833E+03  0.37219587048E+02  0.28717541791E+03  0.26293928835E+03 0.  0.
         25    1    3    3    0    0 -0.13665123385E+01 -0.10929540833E+03  0.44591623765E+01  0.16617685118E+03  0.12509000000E+03 0.  0.
         25    1    4    4    0    0 -0.95518637487E+01  0.96983541212E+02  0.19254598189E+02  0.15973507135E+03  0.12509000000E+03 0.  0.
         25    1    4    4    0    0  0.10918376087E+02  0.12311867117E+02  0.17964988859E+02  0.12744034657E+03  0.12509000000E+03 0.  0.
<mgrwt>
<rscale>  2 0.45143234E+03</rscale>
<asrwt>0</asrwt>
<pdfrwt beam="1">  1       21 0.36399340E-01 0.45143234E+03</pdfrwt>
<pdfrwt beam="2">  1       21 0.30270112E-01 0.45143234E+03</pdfrwt>
<totfact> 0.70656605E+04</totfact>
</mgrwt>
</event>
<event>
 7    0  0.4709932E-002  0.4544628E+03  0.7546771E-02  0.1026399E+00
         21   -1    0    0  502  501  0.00000000000E+00  0.00000000000E+00  0.39691890942E+02  0.39691890942E+02  0.00000000000E+00 0.  1.
         21   -1    0    0  501  502 -0.00000000000E+00 -0.00000000000E+00 -0.13008731811E+04  0.13008731811E+04  0.00000000000E+00 0.  1.
      99926    2    1    2    0    0  0.00000000000E+00  0.26645352591E-14 -0.12611812902E+04  0.13405650720E+04  0.45446283207E+03 0.  0.
      99925    2    3    3    0    0 -0.75919753867E+02 -0.63942246149E+01 -0.54933180334E+03  0.61380383537E+03  0.26303046026E+03 0.  0.
         25    1    4    4    0    0 -0.23151200281E+01 -0.24751407396E+02 -0.25304022171E+03  0.28336346598E+03  0.12509000000E+03 0.  0.
         25    1    4    4    0    0 -0.73604633839E+02  0.18357182781E+02 -0.29629158162E+03  0.33044036939E+03  0.12509000000E+03 0.  0.
         25    1    3    3    0    0  0.75919753867E+02  0.63942246149E+01 -0.71184948682E+03  0.72676123667E+03  0.12509000000E+03 0.  0.
<mgrwt>
<rscale>  2 0.45446283E+03</rscale>
<asrwt>0</asrwt>
<pdfrwt beam="1">  1       21 0.58370420E-02 0.45446283E+03</pdfrwt>
<pdfrwt beam="2">  1       21 0.19130490E+00 0.45446283E+03</pdfrwt>
<totfact> 0.28076105E+04</totfact>
</mgrwt>
</event>
<event>
 7    0  0.4709932E-002  0.4514589E+03  0.7546771E-02  0.1027288E+00
         21   -1    0    0  502  501  0.00000000000E+00  0.00000000000E+00  0.44439874477E+02  0.44439874477E+02  0.00000000000E+00 0. -1.
         21   -1    0    0  501  502 -0.00000000000E+00 -0.00000000000E+00 -0.11465781740E+04  0.11465781740E+04  0.00000000000E+00 0. -1.
      99926    2    1    2    0    0  0.00000000000E+00  0.00000000000E+00 -0.11021382996E+04  0.11910180485E+04  0.45145892452E+03 0.  0.
      99925    2    3    3    0    0 -0.99476327302E+02 -0.36043008173E+02 -0.61707228091E+03  0.67903055972E+03  0.26288716788E+03 0.  0.
         25    1    3    3    0    0  0.99476327302E+02  0.36043008173E+02 -0.48506601865E+03  0.51198748879E+03  0.12509000000E+03 0.  0.
         25    1    4    4    0    0 -0.44066947262E+02 -0.58113850217E+02 -0.31556466249E+03  0.34719976921E+03  0.12509000000E+03 0.  0.
         25    1    4    4    0    0 -0.55409380040E+02  0.22070842044E+02 -0.30150761842E+03  0.33183079051E+03  0.12509000000E+03 0.  0.
<mgrwt>
<rscale>  2 0.45145892E+03</rscale>
<asrwt>0</asrwt>
<pdfrwt beam="1">  1       21 0.65352764E-02 0.45145892E+03</pdfrwt>
<pdfrwt beam="2">  1       21 0.16861442E+00 0.45145892E+03</pdfrwt>
<totfact> 0.33352568E+04</totfact>
</mgrwt>
</event>
<event>
 7    0  0.4709932E-002  0.5000074E+03  0.7546771E-02  0.1013777E+00
         21   -1    0    0  502  501  0.00000000000E+00  0.00000000000E+00  0.12220090228E+03  0.12220090228E+03  0.00000000000E+00 0. -1.
         21   -1    0    0  501  502 -0.00000000000E+00 -0.00000000000E+00 -0.51146804452E+03  0.51146804452E+03  0.00000000000E+00 0. -1.
      99926    2    1    2    0    0  0.00000000000E+00 -0.14210854715E-13 -0.38926714224E+03  0.63366894679E+03  0.50000742605E+03 0.  0.
      99925    2    3    3    0    0  0.68232753201E+02 -0.92622284554E+02 -0.11125365255E+03  0.30782603256E+03  0.26295416884E+03 0.  0.
         25    1    3    3    0    0 -0.68232753201E+02  0.92622284554E+02 -0.27801348969E+03  0.32584291423E+03  0.12509000000E+03 0.  0.
         25    1    4    4    0    0  0.29649836471E+02 -0.88445374676E+02 -0.61317105577E+02  0.16765736680E+03  0.12509000000E+03 0.  0.
         25    1    4    4    0    0  0.38582916730E+02 -0.41769098779E+01 -0.49936546969E+02  0.14016866577E+03  0.12509000000E+03 0.  0.
<mgrwt>
<rscale>  2 0.50000743E+03</rscale>
<asrwt>0</asrwt>
<pdfrwt beam="1">  1       21 0.17970721E-01 0.50000743E+03</pdfrwt>
<pdfrwt beam="2">  1       21 0.75215889E-01 0.50000743E+03</pdfrwt>
<totfact> 0.40304196E+04</totfact>
</mgrwt>
</event>
<event>
 7    0  0.4709932E-002  0.4540592E+03  0.7546771E-02  0.1026518E+00
         21   -1    0    0  502  501  0.00000000000E+00  0.00000000000E+00  0.90092099796E+03  0.90092099796E+03  0.00000000000E+00 0.  1.
         21   -1    0    0  501  502 -0.00000000000E+00 -0.00000000000E+00 -0.57210832205E+02  0.57210832205E+02  0.00000000000E+00 0.  1.
      99926    2    1    2    0    0  0.00000000000E+00  0.00000000000E+00  0.84371016575E+03  0.95813183016E+03  0.45405920338E+03 0.  0.
      99925    2    3    3    0    0  0.62976141247E+02 -0.67929440786E+02  0.66443018078E+03  0.72070979158E+03  0.26339084126E+03 0.  0.
         25    1    4    4    0    0  0.28948914502E+02 -0.75455205423E+02  0.33505838093E+03  0.36666490753E+03  0.12509000000E+03 0.  0.
         25    1    4    4    0    0  0.34027226745E+02  0.75257646373E+01  0.32937179984E+03  0.35404488405E+03  0.12509000000E+03 0.  0.
         25    1    3    3    0    0 -0.62976141247E+02  0.67929440786E+02  0.17927998498E+03  0.23742203858E+03  0.12509000000E+03 0.  0.
<mgrwt>
<rscale>  2 0.45405920E+03</rscale>
<asrwt>0</asrwt>
<pdfrwt beam="1">  1       21 0.13248837E+00 0.45405920E+03</pdfrwt>
<pdfrwt beam="2">  1       21 0.84133582E-02 0.45405920E+03</pdfrwt>
<totfact> 0.41114907E+04</totfact>
</mgrwt>
</event>
<event>
 7    0  0.4709932E-002  0.4690551E+03  0.7546771E-02  0.1022187E+00
         21   -1    0    0  502  501  0.00000000000E+00  0.00000000000E+00  0.10049050584E+03  0.10049050584E+03  0.00000000000E+00 0.  1.
         21   -1    0    0  501  502 -0.00000000000E+00 -0.00000000000E+00 -0.54734699706E+03  0.54734699706E+03  0.00000000000E+00 0.  1.
      99926    2    1    2    0    0  0.00000000000E+00 -0.14210854715E-13 -0.44685649121E+03  0.64783750290E+03  0.46905512088E+03 0.  0.
      99925    2    3    3    0    0  0.45964998884E+02  0.94051653343E+02 -0.37452523980E+03  0.46940596799E+03  0.26289601161E+03 0.  0.
         25    1    4    4    0    0  0.10543740976E+02  0.83434658014E+02 -0.22695741408E+03  0.27245125901E+03  0.12509000000E+03 0.  0.
         25    1    4    4    0    0  0.35421257908E+02  0.10616995329E+02 -0.14756782572E+03  0.19695470898E+03  0.12509000000E+03 0.  0.
         25    1    3    3    0    0 -0.45964998884E+02 -0.94051653343E+02 -0.72331251418E+02  0.17843153491E+03  0.12509000000E+03 0.  0.
<mgrwt>
<rscale>  2 0.46905512E+03</rscale>
<asrwt>0</asrwt>
<pdfrwt beam="1">  1       21 0.14778016E-01 0.46905512E+03</pdfrwt>
<pdfrwt beam="2">  1       21 0.80492204E-01 0.46905512E+03</pdfrwt>
<totfact> 0.50041357E+04</totfact>
</mgrwt>
</event>
<event>
 7    0  0.4709932E-002  0.4541485E+03  0.7546771E-02  0.1026492E+00
         21   -1    0    0  502  501  0.00000000000E+00  0.00000000000E+00  0.50287653649E+02  0.50287653649E+02  0.00000000000E+00 0.  1.
         21   -1    0    0  501  502 -0.00000000000E+00 -0.00000000000E+00 -0.10253553191E+04  0.10253553191E+04  0.00000000000E+00 0.  1.
      99926    2    1    2    0    0  0.00000000000E+00  0.71054273576E-14 -0.97506766542E+03  0.10756429727E+04  0.45414849180E+03 0.  0.
      99925    2    3    3    0    0 -0.33510228500E+02  0.43889824847E+02 -0.38214498664E+03  0.46715791682E+03  0.26296858423E+03 0.  0.
         25    1    4    4    0    0  0.25768455475E+01  0.45845518746E+02 -0.23912398090E+03  0.27374484116E+03  0.12509000000E+03 0.  0.
         25    1    3    3    0    0  0.33510228500E+02 -0.43889824847E+02 -0.59292267878E+03  0.60848505590E+03  0.12509000000E+03 0.  0.
         25    1    4    4    0    0 -0.36087074048E+02 -0.19556938986E+01 -0.14302100574E+03  0.19341307566E+03  0.12509000000E+03 0.  0.
<mgrwt>
<rscale>  2 0.45414849E+03</rscale>
<asrwt>0</asrwt>
<pdfrwt beam="1">  1       21 0.73952438E-02 0.45414849E+03</pdfrwt>
<pdfrwt beam="2">  1       21 0.15078754E+00 0.45414849E+03</pdfrwt>
<totfact> 0.36592853E+04</totfact>
</mgrwt>
</event>
<event>
 7    0  0.4709932E-002  0.4562999E+03  0.7546771E-02  0.1025860E+00
         21   -1    0    0  502  501  0.00000000000E+00  0.00000000000E+00  0.60360042968E+02  0.60360042968E+02  0.00000000000E+00 0. -1.
         21   -1    0    0  501  502 -0.00000000000E+00 -0.00000000000E+00 -0.86236501641E+03  0.86236501641E+03  0.00000000000E+00 0. -1.
      99926    2    1    2    0    0 -0.14210854715E-13  0.35527136788E-14 -0.80200497344E+03  0.92272505938E+03  0.45629985512E+03 0.  0.
      99925    2    3    3    0    0  0.76953468924E+02 -0.18285727691E+02 -0.33789581231E+03  0.43558952817E+03  0.26326498601E+03 0.  0.
         25    1    3    3    0    0 -0.76953468924E+02  0.18285727691E+02 -0.46410916113E+03  0.48713553120E+03  0.12509000000E+03 0.  0.
         25    1    4    4    0    0  0.33880208385E+02 -0.24581954009E+02 -0.22834446712E+03  0.26370598163E+03  0.12509000000E+03 0.  0.
         25    1    4    4    0    0  0.43073260539E+02  0.62962263182E+01 -0.10955134519E+03  0.17188354654E+03  0.12509000000E+03 0.  0.
<mgrwt>
<rscale>  2 0.45629986E+03</rscale>
<asrwt>0</asrwt>
<pdfrwt beam="1">  1       21 0.88764779E-02 0.45629986E+03</pdfrwt>
<pdfrwt beam="2">  1       21 0.12681837E+00 0.45629986E+03</pdfrwt>
<totfact> 0.41838486E+04</totfact>
</mgrwt>
</event>
<event>
 7    0  0.4709932E-002  0.4624437E+03  0.7546771E-02  0.1024075E+00
         21   -1    0    0  502  501  0.00000000000E+00  0.00000000000E+00  0.14831232747E+03  0.14831232747E+03  0.00000000000E+00 0. -1.
         21   -1    0    0  501  502 -0.00000000000E+00 -0.00000000000E+00 -0.36047945223E+03  0.36047945223E+03  0.00000000000E+00 0. -1.
      99926    2    1    2    0    0  0.26645352591E-14 -0.14210854715E-13 -0.21216712476E+03  0.50879177970E+03  0.46244371146E+03 0.  0.
      99925    2    3    3    0    0 -0.18862807487E+01 -0.11200489050E+03 -0.18007517791E+03  0.33783548499E+03  0.26297735961E+03 0.  0.
         25    1    4    4    0    0 -0.26797457693E+02 -0.28830181553E+02 -0.61492854302E+02  0.14483840077E+03  0.12509000000E+03 0.  0.
         25    1    3    3    0    0  0.18862807487E+01  0.11200489050E+03 -0.32091946850E+02  0.17095629472E+03  0.12509000000E+03 0.  0.
         25    1    4    4    0    0  0.24911176944E+02 -0.83174708945E+02 -0.11858232361E+03  0.19299708422E+03  0.12509000000E+03 0.  0.
<mgrwt>
<rscale>  2 0.46244371E+03</rscale>
<asrwt>0</asrwt>
<pdfrwt beam="1">  1       21 0.21810637E-01 0.46244371E+03</pdfrwt>
<pdfrwt beam="2">  1       21 0.53011683E-01 0.46244371E+03</pdfrwt>
<totfact> 0.60974329E+04</totfact>
</mgrwt>
</event>
<event>
 7    0  0.4709932E-002  0.4561806E+03  0.7546771E-02  0.1025895E+00
         21   -1    0    0  502  501  0.00000000000E+00  0.00000000000E+00  0.23269575127E+04  0.23269575127E+04  0.00000000000E+00 0. -1.
         21   -1    0    0  501  502 -0.00000000000E+00 -0.00000000000E+00 -0.22357601185E+02  0.22357601185E+02  0.00000000000E+00 0. -1.
      99926    2    1    2    0    0 -0.71054273576E-14 -0.14210854715E-13  0.23045999116E+04  0.23493151139E+04  0.45618061354E+03 0.  0.
      99925    2    3    3    0    0 -0.43571530864E+02 -0.10298727505E+03  0.15698652501E+04  0.15956657339E+04  0.26299690842E+03 0.  0.
         25    1    3    3    0    0  0.43571530864E+02  0.10298727505E+03  0.73473466147E+03  0.75364938001E+03  0.12509000000E+03 0.  0.
         25    1    4    4    0    0 -0.14659212214E+02 -0.93833900450E+02  0.87002175096E+03  0.88408429949E+03  0.12509000000E+03 0.  0.
         25    1    4    4    0    0 -0.28912318650E+02 -0.91533746052E+01  0.69984349913E+03  0.71158143442E+03  0.12509000000E+03 0.  0.
<mgrwt>
<rscale>  2 0.45618061E+03</rscale>
<asrwt>0</asrwt>
<pdfrwt beam="1">  1       21 0.34219947E+00 0.45618061E+03</pdfrwt>
<pdfrwt beam="2">  1       21 0.32878841E-02 0.45618061E+03</pdfrwt>
<totfact> 0.87188617E+03</totfact>
</mgrwt>
</event>
<event>
 7    0  0.4709932E-002  0.4476637E+03  0.7546771E-02  0.1028421E+00
         21   -1    0    0  502  501  0.00000000000E+00  0.00000000000E+00  0.47945108414E+03  0.47945108414E+03  0.00000000000E+00 0. -1.
         21   -1    0    0  501  502 -0.00000000000E+00 -0.00000000000E+00 -0.10449593638E+03  0.10449593638E+03  0.00000000000E+00 0. -1.
      99926    2    1    2    0    0  0.00000000000E+00 -0.71054273576E-14  0.37495514776E+03  0.58394702051E+03  0.44766366832E+03 0.  0.
      99925    2    3    3    0    0  0.51995105533E+02  0.40870902491E+02  0.34577184172E+03  0.43947178000E+03  0.26306530980E+03 0.  0.
         25    1    4    4    0    0  0.45590854817E+02 -0.82872679697E+00  0.12726354283E+03  0.18418124298E+03  0.12509000000E+03 0.  0.
         25    1    3    3    0    0 -0.51995105533E+02 -0.40870902491E+02  0.29183306040E+02  0.14447524051E+03  0.12509000000E+03 0.  0.
         25    1    4    4    0    0  0.64042507160E+01  0.41699629288E+02  0.21850829889E+03  0.25529053702E+03  0.12509000000E+03 0.  0.
<mgrwt>
<rscale>  2 0.44766367E+03</rscale>
<asrwt>0</asrwt>
<pdfrwt beam="1">  1       21 0.70507511E-01 0.44766367E+03</pdfrwt>
<pdfrwt beam="2">  1       21 0.15367050E-01 0.44766367E+03</pdfrwt>
<totfact> 0.63267300E+04</totfact>
</mgrwt>
</event>
<event>
 7    0  0.4709932E-002  0.4501364E+03  0.7546771E-02  0.1027681E+00
         21   -1    0    0  502  501  0.00000000000E+00  0.00000000000E+00  0.88650383757E+02  0.88650383757E+02  0.00000000000E+00 0. -1.
         21   -1    0    0  501  502 -0.00000000000E+00 -0.00000000000E+00 -0.57140985707E+03  0.57140985707E+03  0.00000000000E+00 0. -1.
      99926    2    1    2    0    0  0.17763568394E-14  0.00000000000E+00 -0.48275947331E+03  0.66006024082E+03  0.45013643759E+03 0.  0.
      99925    2    3    3    0    0 -0.14666849146E+02  0.13809789233E+02 -0.14867856944E+03  0.30276010764E+03  0.26296870351E+03 0.  0.
         25    1    3    3    0    0  0.14666849146E+02 -0.13809789233E+02 -0.33408090387E+03  0.35730013318E+03  0.12509000000E+03 0.  0.
         25    1    4    4    0    0  0.27098066505E+02  0.24380732251E+02 -0.87867671744E+02  0.15715266829E+03  0.12509000000E+03 0.  0.
         25    1    4    4    0    0 -0.41764915650E+02 -0.10570943018E+02 -0.60810897698E+02  0.14560743935E+03  0.12509000000E+03 0.  0.
<mgrwt>
<rscale>  2 0.45013644E+03</rscale>
<asrwt>0</asrwt>
<pdfrwt beam="1">  1       21 0.13036821E-01 0.45013644E+03</pdfrwt>
<pdfrwt beam="2">  1       21 0.84030860E-01 0.45013644E+03</pdfrwt>
<totfact> 0.57290883E+04</totfact>
</mgrwt>
</event>
<event>
 7    0  0.4709932E-002  0.4525609E+03  0.7546771E-02  0.1026961E+00
         21   -1    0    0  502  501  0.00000000000E+00  0.00000000000E+00  0.54460613489E+03  0.54460613489E+03  0.00000000000E+00 0. -1.
         21   -1    0    0  501  502 -0.00000000000E+00 -0.00000000000E+00 -0.94018110403E+02  0.94018110403E+02  0.00000000000E+00 0. -1.
      99926    2    1    2    0    0 -0.14210854715E-13  0.00000000000E+00  0.45058802449E+03  0.63862424529E+03  0.45256088968E+03 0.  0.
      99925    2    3    3    0    0  0.89704450198E+02 -0.34064115875E+02  0.36257715202E+03  0.45806767757E+03  0.26297633675E+03 0.  0.
         25    1    4    4    0    0  0.66838440148E+02 -0.51568103533E+02  0.21155355019E+03  0.25986353935E+03  0.12509000000E+03 0.  0.
         25    1    4    4    0    0  0.22866010050E+02  0.17503987658E+02  0.15102360182E+03  0.19820413822E+03  0.12509000000E+03 0.  0.
         25    1    3    3    0    0 -0.89704450198E+02  0.34064115875E+02  0.88010872469E+02  0.18055656772E+03  0.12509000000E+03 0.  0.
<mgrwt>
<rscale>  2 0.45256089E+03</rscale>
<asrwt>0</asrwt>
<pdfrwt beam="1">  1       21 0.80089136E-01 0.45256089E+03</pdfrwt>
<pdfrwt beam="2">  1       21 0.13826193E-01 0.45256089E+03</pdfrwt>
<totfact> 0.57459719E+04</totfact>
</mgrwt>
</event>
<event>
 7    0  0.4709932E-002  0.4584820E+03  0.7546771E-02  0.1025222E+00
         21   -1    0    0  502  501  0.00000000000E+00  0.00000000000E+00  0.47614627380E+03  0.47614627380E+03  0.00000000000E+00 0. -1.
         21   -1    0    0  501  502 -0.00000000000E+00 -0.00000000000E+00 -0.11036826803E+03  0.11036826803E+03  0.00000000000E+00 0. -1.
      99926    2    1    2    0    0  0.00000000000E+00  0.00000000000E+00  0.36577800578E+03  0.58651454183E+03  0.45848201520E+03 0.  0.
      99925    2    3    3    0    0 -0.92871278051E+02  0.67054169344E+02  0.20302717641E+03  0.35144715474E+03  0.26300899661E+03 0.  0.
         25    1    4    4    0    0 -0.40790551889E+02  0.49110412463E+02  0.57378064260E+02  0.15170844437E+03  0.12509000000E+03 0.  0.
         25    1    3    3    0    0  0.92871278051E+02 -0.67054169344E+02  0.16275082936E+03  0.23506738709E+03  0.12509000000E+03 0.  0.
         25    1    4    4    0    0 -0.52080726162E+02  0.17943756882E+02  0.14564911215E+03  0.19973871037E+03  0.12509000000E+03 0.  0.
<mgrwt>
<rscale>  2 0.45848202E+03</rscale>
<asrwt>0</asrwt>
<pdfrwt beam="1">  1       21 0.70021510E-01 0.45848202E+03</pdfrwt>
<pdfrwt beam="2">  1       21 0.16230628E-01 0.45848202E+03</pdfrwt>
<totfact> 0.57905816E+04</totfact>
</mgrwt>
</event>
<event>
 7    0  0.4709932E-002  0.4429677E+03  0.7546771E-02  0.1029840E+00
         21   -1    0    0  502  501  0.00000000000E+00  0.00000000000E+00  0.90108714127E+02  0.90108714127E+02  0.00000000000E+00 0. -1.
         21   -1    0    0  501  502 -0.00000000000E+00 -0.00000000000E+00 -0.54439890192E+03  0.54439890192E+03  0.00000000000E+00 0. -1.
      99926    2    1    2    0    0  0.00000000000E+00  0.00000000000E+00 -0.45429018780E+03  0.63450761605E+03  0.44296765130E+03 0.  0.
      99925    2    3    3    0    0  0.62755653306E+02  0.35206022152E+02 -0.18630939645E+03  0.33014114508E+03  0.26287686938E+03 0.  0.
         25    1    4    4    0    0  0.49168212494E+02 -0.18319911132E+02 -0.98450955143E+02  0.16761035449E+03  0.12509000000E+03 0.  0.
         25    1    3    3    0    0 -0.62755653306E+02 -0.35206022152E+02 -0.26798079135E+03  0.30436647097E+03  0.12509000000E+03 0.  0.
         25    1    4    4    0    0  0.13587440812E+02  0.53525933283E+02 -0.87858441304E+02  0.16253079059E+03  0.12509000000E+03 0.  0.
<mgrwt>
<rscale>  2 0.44296765E+03</rscale>
<asrwt>0</asrwt>
<pdfrwt beam="1">  1       21 0.13251281E-01 0.44296765E+03</pdfrwt>
<pdfrwt beam="2">  1       21 0.80058663E-01 0.44296765E+03</pdfrwt>
<totfact> 0.62312794E+04</totfact>
</mgrwt>
</event>
<event>
 7    0  0.4709932E-002  0.4524763E+03  0.7546771E-02  0.1026986E+00
         21   -1    0    0  502  501  0.00000000000E+00  0.00000000000E+00  0.47445621711E+03  0.47445621711E+03  0.00000000000E+00 0. -1.
         21   -1    0    0  501  502 -0.00000000000E+00 -0.00000000000E+00 -0.10787866439E+03  0.10787866439E+03  0.00000000000E+00 0. -1.
      99926    2    1    2    0    0  0.00000000000E+00  0.00000000000E+00  0.36657755272E+03  0.58233488151E+03  0.45247631105E+03 0.  0.
      99925    2    3    3    0    0  0.39838283790E+02  0.64773392678E+02  0.33481112892E+03  0.43253736806E+03  0.26307299646E+03 0.  0.
         25    1    4    4    0    0 -0.97219335403E+01  0.57946243263E+02  0.18721726668E+03  0.23270173214E+03  0.12509000000E+03 0.  0.
         25    1    3    3    0    0 -0.39838283790E+02 -0.64773392678E+02  0.31766423803E+02  0.14979751345E+03  0.12509000000E+03 0.  0.
         25    1    4    4    0    0  0.49560217330E+02  0.68271494148E+01  0.14759386224E+03  0.19983563592E+03  0.12509000000E+03 0.  0.
<mgrwt>
<rscale>  2 0.45247631E+03</rscale>
<asrwt>0</asrwt>
<pdfrwt beam="1">  1       21 0.69772972E-01 0.45247631E+03</pdfrwt>
<pdfrwt beam="2">  1       21 0.15864510E-01 0.45247631E+03</pdfrwt>
<totfact> 0.60986604E+04</totfact>
</mgrwt>
</event>
<event>
 7    0  0.4709932E-002  0.4235342E+03  0.7546771E-02  0.1035922E+00
         21   -1    0    0  502  501  0.00000000000E+00  0.00000000000E+00  0.91297169775E+02  0.91297169775E+02  0.00000000000E+00 0.  1.
         21   -1    0    0  501  502 -0.00000000000E+00 -0.00000000000E+00 -0.49120152202E+03  0.49120152202E+03  0.00000000000E+00 0.  1.
      99926    2    1    2    0    0  0.00000000000E+00  0.00000000000E+00 -0.39990435225E+03  0.58249869180E+03  0.42353421940E+03 0.  0.
      99925    2    3    3    0    0 -0.69380594771E+02 -0.40156496368E+02 -0.25676694355E+03  0.37619300356E+03  0.26299372900E+03 0.  0.
         25    1    3    3    0    0  0.69380594771E+02  0.40156496368E+02 -0.14313740870E+03  0.20630568824E+03  0.12509000000E+03 0.  0.
         25    1    4    4    0    0 -0.15995307560E+02 -0.24759508078E+02 -0.75495852414E+02  0.14905037717E+03  0.12509000000E+03 0.  0.
         25    1    4    4    0    0 -0.53385287211E+02 -0.15396988291E+02 -0.18127109114E+03  0.22714262639E+03  0.12509000000E+03 0.  0.
<mgrwt>
<rscale>  2 0.42353422E+03</rscale>
<asrwt>0</asrwt>
<pdfrwt beam="1">  1       21 0.13426054E-01 0.42353422E+03</pdfrwt>
<pdfrwt beam="2">  1       21 0.72235518E-01 0.42353422E+03</pdfrwt>
<totfact> 0.77266354E+04</totfact>
</mgrwt>
</event>
<event>
 7    0  0.4709932E-002  0.4366586E+03  0.7546771E-02  0.1031777E+00
         21   -1    0    0  502  501  0.00000000000E+00  0.00000000000E+00  0.29051231896E+03  0.29051231896E+03  0.00000000000E+00 0. -1.
         21   -1    0    0  501  502 -0.00000000000E+00 -0.00000000000E+00 -0.16408146748E+03  0.16408146748E+03  0.00000000000E+00 0. -1.
      99926    2    1    2    0    0  0.00000000000E+00  0.00000000000E+00  0.12643085148E+03  0.45459378644E+03  0.43665862005E+03 0.  0.
      99925    2    3    3    0    0  0.27886333816E+02 -0.52093459286E+02  0.39304424082E+01  0.26980949480E+03  0.26323058142E+03 0.  0.
         25    1    4    4    0    0  0.12238147233E+02  0.14006062135E+01  0.32691337878E+02  0.12987673240E+03  0.12509000000E+03 0.  0.
         25    1    3    3    0    0 -0.27886333816E+02  0.52093459286E+02  0.12250040907E+03  0.18478429164E+03  0.12509000000E+03 0.  0.
         25    1    4    4    0    0  0.15648186584E+02 -0.53494065500E+02 -0.28760895470E+02  0.13993276241E+03  0.12509000000E+03 0.  0.
<mgrwt>
<rscale>  2 0.43665862E+03</rscale>
<asrwt>0</asrwt>
<pdfrwt beam="1">  1       21 0.42722400E-01 0.43665862E+03</pdfrwt>
<pdfrwt beam="2">  1       21 0.24129628E-01 0.43665862E+03</pdfrwt>
<totfact> 0.79559732E+04</totfact>
</mgrwt>
</event>
<event>
 7    0  0.4709932E-002  0.4558101E+03  0.7546771E-02  0.1026003E+00
         21   -1    0    0  502  501  0.00000000000E+00  0.00000000000E+00  0.19077986771E+03  0.19077986771E+03  0.00000000000E+00 0.  1.
         21   -1    0    0  501  502 -0.00000000000E+00 -0.00000000000E+00 -0.27225472551E+03  0.27225472551E+03  0.00000000000E+00 0.  1.
      99926    2    1    2    0    0  0.00000000000E+00 -0.14210854715E-13 -0.81474857798E+02  0.46303459323E+03  0.45581013818E+03 0.  0.
      99925    2    3    3    0    0 -0.28793988473E+02  0.10823243495E+03 -0.72824082379E+02  0.29491053855E+03  0.26291733496E+03 0.  0.
         25    1    3    3    0    0  0.28793988473E+02 -0.10823243495E+03 -0.86507754189E+01  0.16812405468E+03  0.12509000000E+03 0.  0.
         25    1    4    4    0    0 -0.40845312828E+02  0.47458473172E+02 -0.56613640703E+01  0.14000073357E+03  0.12509000000E+03 0.  0.
         25    1    4    4    0    0  0.12051324355E+02  0.60773961775E+02 -0.67162718309E+02  0.15490980498E+03  0.12509000000E+03 0.  0.
<mgrwt>
<rscale>  2 0.45581014E+03</rscale>
<asrwt>0</asrwt>
<pdfrwt beam="1">  1       21 0.28055863E-01 0.45581014E+03</pdfrwt>
<pdfrwt beam="2">  1       21 0.40037459E-01 0.45581014E+03</pdfrwt>
<totfact> 0.67520378E+04</totfact>
</mgrwt>
</event>
<event>
 7    0  0.4709932E-002  0.4573273E+03  0.7546771E-02  0.1025559E+00
         21   -1    0    0  502  501  0.00000000000E+00  0.00000000000E+00  0.16586076196E+03  0.16586076196E+03  0.00000000000E+00 0.  1.
         21   -1    0    0  501  502 -0.00000000000E+00 -0.00000000000E+00 -0.31524671388E+03  0.31524671388E+03  0.00000000000E+00 0.  1.
      99926    2    1    2    0    0 -0.71054273576E-14  0.00000000000E+00 -0.14938595191E+03  0.48110747584E+03  0.45732727962E+03 0.  0.
      99925    2    3    3    0    0  0.42432487709E+02  0.90908474740E+02 -0.33740503488E+02  0.28340506151E+03  0.26289758561E+03 0.  0.
         25    1    3    3    0    0 -0.42432487709E+02 -0.90908474740E+02 -0.11564544843E+03  0.19770241434E+03  0.12509000000E+03 0.  0.
         25    1    4    4    0    0 -0.64673092448E+01  0.30529243301E+02 -0.42874243270E+02  0.13586599877E+03  0.12509000000E+03 0.  0.
         25    1    4    4    0    0  0.48899796954E+02  0.60379231439E+02  0.91337397813E+01  0.14753906274E+03  0.12509000000E+03 0.  0.
<mgrwt>
<rscale>  2 0.45732728E+03</rscale>
<asrwt>0</asrwt>
<pdfrwt beam="1">  1       21 0.24391289E-01 0.45732728E+03</pdfrwt>
<pdfrwt beam="2">  1       21 0.46359811E-01 0.45732728E+03</pdfrwt>
<totfact> 0.65403036E+04</totfact>
</mgrwt>
</event>
<event>
 7    0  0.4709932E-002  0.4530077E+03  0.7546771E-02  0.1026829E+00
         21   -1    0    0  502  501  0.00000000000E+00  0.00000000000E+00  0.55555447898E+03  0.55555447898E+03  0.00000000000E+00 0.  1.
         21   -1    0    0  501  502 -0.00000000000E+00 -0.00000000000E+00 -0.92347351073E+02  0.92347351073E+02  0.00000000000E+00 0.  1.
      99926    2    1    2    0    0  0.35527136788E-14  0.00000000000E+00  0.46320712791E+03  0.64790183006E+03  0.45300765782E+03 0.  0.
      99925    2    3    3    0    0 -0.14719516208E+02  0.11035109530E+03  0.29355847703E+03  0.40952775169E+03  0.26294937075E+03 0.  0.
         25    1    4    4    0    0 -0.43165344627E+02  0.67245008973E+02  0.17627310128E+03  0.23044490132E+03  0.12509000000E+03 0.  0.
         25    1    3    3    0    0  0.14719516208E+02 -0.11035109530E+03  0.16964865088E+03  0.23837407837E+03  0.12509000000E+03 0.  0.
         25    1    4    4    0    0  0.28445828419E+02  0.43106086325E+02  0.11728537574E+03  0.17908285037E+03  0.12509000000E+03 0.  0.
<mgrwt>
<rscale>  2 0.45300766E+03</rscale>
<asrwt>0</asrwt>
<pdfrwt beam="1">  1       21 0.81699186E-01 0.45300766E+03</pdfrwt>
<pdfrwt beam="2">  1       21 0.13580493E-01 0.45300766E+03</pdfrwt>
<totfact> 0.56708649E+04</totfact>
</mgrwt>
</event>
<event>
 7    0  0.4709932E-002  0.4488371E+03  0.7546771E-02  0.1028069E+00
         21   -1    0    0  502  501  0.00000000000E+00  0.00000000000E+00  0.15933837132E+03  0.15933837132E+03  0.00000000000E+00 0.  1.
         21   -1    0    0  501  502 -0.00000000000E+00 -0.00000000000E+00 -0.31608008314E+03  0.31608008314E+03  0.00000000000E+00 0.  1.
      99926    2    1    2    0    0  0.00000000000E+00  0.14210854715E-13 -0.15674171182E+03  0.47541845445E+03  0.44883710030E+03 0.  0.
      99925    2    3    3    0    0 -0.75241448459E+02 -0.76207507279E+02 -0.10680108548E+03  0.30334162861E+03  0.26294640529E+03 0.  0.
         25    1    3    3    0    0  0.75241448459E+02  0.76207507279E+02 -0.49940626338E+02  0.17207682584E+03  0.12509000000E+03 0.  0.
         25    1    4    4    0    0 -0.64874930256E+02 -0.60485654551E+02 -0.32891909372E+02  0.15683321327E+03  0.12509000000E+03 0.  0.
         25    1    4    4    0    0 -0.10366518203E+02 -0.15721852728E+02 -0.73909176110E+02  0.14650841534E+03  0.12509000000E+03 0.  0.
<mgrwt>
<rscale>  2 0.44883710E+03</rscale>
<asrwt>0</asrwt>
<pdfrwt beam="1">  1       21 0.23432114E-01 0.44883710E+03</pdfrwt>
<pdfrwt beam="2">  1       21 0.46482365E-01 0.44883710E+03</pdfrwt>
<totfact> 0.70417126E+04</totfact>
</mgrwt>
</event>
<event>
 7    0  0.4709932E-002  0.4616925E+03  0.7546771E-02  0.1024291E+00
         21   -1    0    0  502  501  0.00000000000E+00  0.00000000000E+00  0.19352243113E+03  0.19352243113E+03  0.00000000000E+00 0. -1.
         21   -1    0    0  501  502 -0.00000000000E+00 -0.00000000000E+00 -0.27536860882E+03  0.27536860882E+03  0.00000000000E+00 0. -1.
      99926    2    1    2    0    0  0.00000000000E+00  0.00000000000E+00 -0.81846177689E+02  0.46889103994E+03  0.46169254979E+03 0.  0.
      99925    2    3    3    0    0 -0.27924714935E+02  0.29945372642E+02  0.63016205603E+02  0.27316384909E+03  0.26262317345E+03 0.  0.
         25    1    3    3    0    0  0.27924714935E+02 -0.29945372642E+02 -0.14486238329E+03  0.19572719086E+03  0.12509000000E+03 0.  0.
         25    1    4    4    0    0 -0.30940082810E+02  0.34536031084E+02  0.94155873396E+00  0.13341072221E+03  0.12509000000E+03 0.  0.
         25    1    4    4    0    0  0.30153678749E+01 -0.45906584417E+01  0.62074646869E+02  0.13975312688E+03  0.12509000000E+03 0.  0.
<mgrwt>
<rscale>  2 0.46169255E+03</rscale>
<asrwt>0</asrwt>
<pdfrwt beam="1">  1       21 0.28459181E-01 0.46169255E+03</pdfrwt>
<pdfrwt beam="2">  1       21 0.40495383E-01 0.46169255E+03</pdfrwt>
<totfact> 0.64046489E+04</totfact>
</mgrwt>
</event>
<event>
 7    0  0.4709932E-002  0.4553653E+03  0.7546771E-02  0.1026134E+00
         21   -1    0    0  502  501  0.00000000000E+00  0.00000000000E+00  0.13316813566E+03  0.13316813566E+03  0.00000000000E+00 0. -1.
         21   -1    0    0  501  502 -0.00000000000E+00 -0.00000000000E+00 -0.38927777416E+03  0.38927777416E+03  0.00000000000E+00 0. -1.
      99926    2    1    2    0    0  0.00000000000E+00 -0.17763568394E-14 -0.25610963850E+03  0.52244590983E+03  0.45536532780E+03 0.  0.
      99925    2    3    3    0    0  0.11049078456E+03  0.14384003665E+02 -0.13619323179E+03  0.31642997420E+03  0.26299091078E+03 0.  0.
         25    1    3    3    0    0 -0.11049078456E+03 -0.14384003665E+02 -0.11991640671E+03  0.20601593563E+03  0.12509000000E+03 0.  0.
         25    1    4    4    0    0  0.97363000937E+02 -0.36523213233E+01 -0.75748955415E+02  0.17572224034E+03  0.12509000000E+03 0.  0.
         25    1    4    4    0    0  0.13127783628E+02  0.18036324989E+02 -0.60444276375E+02  0.14070773386E+03  0.12509000000E+03 0.  0.
<mgrwt>
<rscale>  2 0.45536533E+03</rscale>
<asrwt>0</asrwt>
<pdfrwt beam="1">  1       21 0.19583550E-01 0.45536533E+03</pdfrwt>
<pdfrwt beam="2">  1       21 0.57246730E-01 0.45536533E+03</pdfrwt>
<totfact> 0.63536505E+04</totfact>
</mgrwt>
</event>
<event>
 7    0  0.4709932E-002  0.4501805E+03  0.7546771E-02  0.1027668E+00
         21   -1    0    0  502  501  0.00000000000E+00  0.00000000000E+00  0.36866368490E+02  0.36866368490E+02  0.00000000000E+00 0. -1.
         21   -1    0    0  501  502 -0.00000000000E+00 -0.00000000000E+00 -0.13743044865E+04  0.13743044865E+04  0.00000000000E+00 0. -1.
      99926    2    1    2    0    0  0.00000000000E+00  0.71054273576E-14 -0.13374381180E+04  0.14111708550E+04  0.45018047766E+03 0.  0.
      99925    2    3    3    0    0  0.66738181458E+02 -0.35860953256E+02 -0.10889327035E+04  0.11228265435E+04  0.26310648260E+03 0.  0.
         25    1    3    3    0    0 -0.66738181458E+02  0.35860953256E+02 -0.24850541450E+03  0.28834431149E+03  0.12509000000E+03 0.  0.
         25    1    4    4    0    0  0.97387131327E+01 -0.17884209680E+02 -0.65960847230E+03  0.67167367993E+03  0.12509000000E+03 0.  0.
         25    1    4    4    0    0  0.56999468325E+02 -0.17976743576E+02 -0.42932423121E+03  0.45115286357E+03  0.12509000000E+03 0.  0.
<mgrwt>
<rscale>  2 0.45018048E+03</rscale>
<asrwt>0</asrwt>
<pdfrwt beam="1">  1       21 0.54215238E-02 0.45018048E+03</pdfrwt>
<pdfrwt beam="2">  1       21 0.20210364E+00 0.45018048E+03</pdfrwt>
<totfact> 0.27034225E+04</totfact>
</mgrwt>
</event>
<event>
 7    0  0.4709932E-002  0.4543748E+03  0.7546771E-02  0.1026425E+00
         21   -1    0    0  502  501  0.00000000000E+00  0.00000000000E+00  0.48719143817E+02  0.48719143817E+02  0.00000000000E+00 0. -1.
         21   -1    0    0  501  502 -0.00000000000E+00 -0.00000000000E+00 -0.10594216987E+04  0.10594216987E+04  0.00000000000E+00 0. -1.
      99926    2    1    2    0    0  0.00000000000E+00 -0.71054273576E-14 -0.10107025549E+04  0.11081408425E+04  0.45437481489E+03 0.  0.
      99925    2    3    3    0    0 -0.91851603734E+02  0.62061348823E+02 -0.58723454399E+03  0.65288158399E+03  0.26290991790E+03 0.  0.
         25    1    3    3    0    0  0.91851603734E+02 -0.62061348823E+02 -0.42346801089E+03  0.45525925853E+03  0.12509000000E+03 0.  0.
         25    1    4    4    0    0 -0.61703299820E+02  0.14616326553E+02 -0.22025341015E+03  0.26111301575E+03  0.12509000000E+03 0.  0.
         25    1    4    4    0    0 -0.30148303914E+02  0.47445022270E+02 -0.36698113385E+03  0.39176856825E+03  0.12509000000E+03 0.  0.
<mgrwt>
<rscale>  2 0.45437481E+03</rscale>
<asrwt>0</asrwt>
<pdfrwt beam="1">  1       21 0.71645804E-02 0.45437481E+03</pdfrwt>
<pdfrwt beam="2">  1       21 0.15579730E+00 0.45437481E+03</pdfrwt>
<totfact> 0.35383142E+04</totfact>
</mgrwt>
</event>
<event>
 7    0  0.4709932E-002  0.4524909E+03  0.7546771E-02  0.1026982E+00
         21   -1    0    0  502  501  0.00000000000E+00  0.00000000000E+00  0.19228916263E+03  0.19228916263E+03  0.00000000000E+00 0.  1.
         21   -1    0    0  501  502 -0.00000000000E+00 -0.00000000000E+00 -0.26619809088E+03  0.26619809088E+03  0.00000000000E+00 0.  1.
      99926    2    1    2    0    0 -0.71054273576E-14  0.00000000000E+00 -0.73908928251E+02  0.45848725351E+03  0.45249091920E+03 0.  0.
      99925    2    3    3    0    0 -0.51579871807E+02 -0.35931259002E+02  0.45873005518E+02  0.27424079274E+03  0.26296794713E+03 0.  0.
         25    1    4    4    0    0  0.81372182834E+01 -0.14773952173E+01  0.38818687523E+02  0.13123564919E+03  0.12509000000E+03 0.  0.
         25    1    4    4    0    0 -0.59717090090E+02 -0.34453863785E+02  0.70543179950E+01  0.14300514355E+03  0.12509000000E+03 0.  0.
         25    1    3    3    0    0  0.51579871807E+02  0.35931259002E+02 -0.11978193377E+03  0.18424646077E+03  0.12509000000E+03 0.  0.
<mgrwt>
<rscale>  2 0.45249092E+03</rscale>
<asrwt>0</asrwt>
<pdfrwt beam="1">  1       21 0.28277818E-01 0.45249092E+03</pdfrwt>
<pdfrwt beam="2">  1       21 0.39146778E-01 0.45249092E+03</pdfrwt>
<totfact> 0.69674590E+04</totfact>
</mgrwt>
</event>
<event>
 7    0  0.4709932E-002  0.4446958E+03  0.7546771E-02  0.1029316E+00
         21   -1    0    0  502  501  0.00000000000E+00  0.00000000000E+00  0.37951241650E+02  0.37951241650E+02  0.00000000000E+00 0.  1.
         21   -1    0    0  501  502 -0.00000000000E+00 -0.00000000000E+00 -0.13026869543E+04  0.13026869543E+04  0.00000000000E+00 0.  1.
      99926    2    1    2    0    0  0.00000000000E+00  0.35527136788E-14 -0.12647357126E+04  0.13406381959E+04  0.44469579443E+03 0.  0.
      99925    2    3    3    0    0 -0.77559264669E+02  0.30567518124E+02 -0.98683553555E+03  0.10246859381E+04  0.26303437958E+03 0.  0.
         25    1    4    4    0    0 -0.46833898266E+02  0.31945712032E+02 -0.37300771549E+03  0.39748736641E+03  0.12509000000E+03 0.  0.
         25    1    4    4    0    0 -0.30725366403E+02 -0.13781939083E+01 -0.61382782006E+03  0.62719857170E+03  0.12509000000E+03 0.  0.
         25    1    3    3    0    0  0.77559264669E+02 -0.30567518124E+02 -0.27790017710E+03  0.31595225783E+03  0.12509000000E+03 0.  0.
<mgrwt>
<rscale>  2 0.44469579E+03</rscale>
<asrwt>0</asrwt>
<pdfrwt beam="1">  1       21 0.55810655E-02 0.44469579E+03</pdfrwt>
<pdfrwt beam="2">  1       21 0.19157159E+00 0.44469579E+03</pdfrwt>
<totfact> 0.30313816E+04</totfact>
</mgrwt>
</event>
<event>
 7    0  0.4709932E-002  0.4553054E+03  0.7546771E-02  0.1026152E+00
         21   -1    0    0  502  501  0.00000000000E+00  0.00000000000E+00  0.18742709673E+03  0.18742709673E+03  0.00000000000E+00 0.  1.
         21   -1    0    0  501  502 -0.00000000000E+00 -0.00000000000E+00 -0.27651152809E+03  0.27651152809E+03  0.00000000000E+00 0.  1.
      99926    2    1    2    0    0  0.00000000000E+00 -0.35527136788E-14 -0.89084431358E+02  0.46393862482E+03  0.45530540485E+03 0.  0.
      99925    2    3    3    0    0  0.10473383077E+03  0.18554020183E+02 -0.97772024546E+02  0.29951110478E+03  0.26236254711E+03 0.  0.
         25    1    4    4    0    0  0.59605833896E+02  0.44869678302E+02 -0.67899947463E+02  0.16069864477E+03  0.12509000000E+03 0.  0.
         25    1    3    3    0    0 -0.10473383077E+03 -0.18554020183E+02  0.86875931888E+01  0.16442752004E+03  0.12509000000E+03 0.  0.
         25    1    4    4    0    0  0.45127996870E+02 -0.26315658118E+02 -0.29872077083E+02  0.13881246001E+03  0.12509000000E+03 0.  0.
<mgrwt>
<rscale>  2 0.45530540E+03</rscale>
<asrwt>0</asrwt>
<pdfrwt beam="1">  1       21 0.27562809E-01 0.45530540E+03</pdfrwt>
<pdfrwt beam="2">  1       21 0.40663459E-01 0.45530540E+03</pdfrwt>
<totfact> 0.67724501E+04</totfact>
</mgrwt>
</event>
<event>
 7    0  0.4709932E-002  0.4679590E+03  0.7546771E-02  0.1022498E+00
         21   -1    0    0  502  501  0.00000000000E+00  0.00000000000E+00  0.48219528469E+02  0.48219528469E+02  0.00000000000E+00 0. -1.
         21   -1    0    0  501  502 -0.00000000000E+00 -0.00000000000E+00 -0.11353577117E+04  0.11353577117E+04  0.00000000000E+00 0. -1.
      99926    2    1    2    0    0  0.00000000000E+00  0.00000000000E+00 -0.10871381833E+04  0.11835772402E+04  0.46795903027E+03 0.  0.
      99925    2    3    3    0    0 -0.90103267342E+02 -0.40341093900E+02 -0.48124753875E+03  0.55708144305E+03  0.26266811377E+03 0.  0.
         25    1    4    4    0    0 -0.29228169089E+02 -0.33382479787E+01 -0.16121085900E+03  0.20615983830E+03  0.12509000000E+03 0.  0.
         25    1    3    3    0    0  0.90103267342E+02  0.40341093900E+02 -0.60589064452E+03  0.62649579716E+03  0.12509000000E+03 0.  0.
         25    1    4    4    0    0 -0.60875098252E+02 -0.37002845921E+02 -0.32003667975E+03  0.35092160475E+03  0.12509000000E+03 0.  0.
<mgrwt>
<rscale>  2 0.46795903E+03</rscale>
<asrwt>0</asrwt>
<pdfrwt beam="1">  1       21 0.70911071E-02 0.46795903E+03</pdfrwt>
<pdfrwt beam="2">  1       21 0.16696437E+00 0.46795903E+03</pdfrwt>
<totfact> 0.29579514E+04</totfact>
</mgrwt>
</event>
<event>
 7    0  0.4709932E-002  0.4563871E+03  0.7546771E-02  0.1025834E+00
         21   -1    0    0  502  501  0.00000000000E+00  0.00000000000E+00  0.38234767850E+03  0.38234767850E+03  0.00000000000E+00 0.  1.
         21   -1    0    0  501  502 -0.00000000000E+00 -0.00000000000E+00 -0.13619095387E+03  0.13619095387E+03  0.00000000000E+00 0.  1.
      99926    2    1    2    0    0 -0.71054273576E-14 -0.17763568394E-14  0.24615672463E+03  0.51853863236E+03  0.45638709466E+03 0.  0.
      99925    2    3    3    0    0 -0.46589229276E+02 -0.15692262923E+02  0.27217293326E+03  0.38164029559E+03  0.26297225370E+03 0.  0.
         25    1    3    3    0    0  0.46589229276E+02  0.15692262923E+02 -0.26016208629E+02  0.13689833677E+03  0.12509000000E+03 0.  0.
         25    1    4    4    0    0  0.11855847978E+02  0.10482646155E+02  0.11304824787E+03  0.16934539099E+03  0.12509000000E+03 0.  0.
         25    1    4    4    0    0 -0.58445077254E+02 -0.26174909078E+02  0.15912468539E+03  0.21229490460E+03  0.12509000000E+03 0.  0.
<mgrwt>
<rscale>  2 0.45638709E+03</rscale>
<asrwt>0</asrwt>
<pdfrwt beam="1">  1       21 0.56227599E-01 0.45638709E+03</pdfrwt>
<pdfrwt beam="2">  1       21 0.20028082E-01 0.45638709E+03</pdfrwt>
<totfact> 0.63287548E+04</totfact>
</mgrwt>
</event>
<event>
 7    0  0.4709932E-002  0.4521868E+03  0.7546771E-02  0.1027072E+00
         21   -1    0    0  502  501  0.00000000000E+00  0.00000000000E+00  0.67377885933E+02  0.67377885933E+02  0.00000000000E+00 0. -1.
         21   -1    0    0  501  502 -0.00000000000E+00 -0.00000000000E+00 -0.75867966931E+03  0.75867966931E+03  0.00000000000E+00 0. -1.
      99926    2    1    2    0    0 -0.14210854715E-13 -0.35527136788E-14 -0.69130178338E+03  0.82605755524E+03  0.45218682961E+03 0.  0.
      99925    2    3    3    0    0  0.87235732143E+02  0.12675989462E+02 -0.31495204180E+03  0.41978499925E+03  0.26316136359E+03 0.  0.
         25    1    3    3    0    0 -0.87235732143E+02 -0.12675989462E+02 -0.37634974157E+03  0.40627255599E+03  0.12509000000E+03 0.  0.
         25    1    4    4    0    0  0.80691335765E+02  0.25808208914E+02 -0.15907727698E+03  0.21938606033E+03  0.12509000000E+03 0.  0.
         25    1    4    4    0    0  0.65443963782E+01 -0.13132219452E+02 -0.15587476483E+03  0.20039893892E+03  0.12509000000E+03 0.  0.
<mgrwt>
<rscale>  2 0.45218683E+03</rscale>
<asrwt>0</asrwt>
<pdfrwt beam="1">  1       21 0.99085127E-02 0.45218683E+03</pdfrwt>
<pdfrwt beam="2">  1       21 0.11157054E+00 0.45218683E+03</pdfrwt>
<totfact> 0.47571512E+04</totfact>
</mgrwt>
</event>
<event>
 7    0  0.4709932E-002  0.4539074E+03  0.7546771E-02  0.1026563E+00
         21   -1    0    0  502  501  0.00000000000E+00  0.00000000000E+00  0.90933929112E+02  0.90933929112E+02  0.00000000000E+00 0. -1.
         21   -1    0    0  501  502 -0.00000000000E+00 -0.00000000000E+00 -0.56643306078E+03  0.56643306078E+03  0.00000000000E+00 0. -1.
      99926    2    1    2    0    0  0.00000000000E+00  0.00000000000E+00 -0.47549913167E+03  0.65736698989E+03  0.45390740816E+03 0.  0.
      99925    2    3    3    0    0  0.36565005793E+02  0.10211662989E+03 -0.34153649859E+03  0.44439210661E+03  0.26281620726E+03 0.  0.
         25    1    4    4    0    0 -0.12111863977E+02  0.55082437634E+02 -0.20876562134E+03  0.24982266698E+03  0.12509000000E+03 0.  0.
         25    1    3    3    0    0 -0.36565005793E+02 -0.10211662989E+03 -0.13396263308E+03  0.21297488329E+03  0.12509000000E+03 0.  0.
         25    1    4    4    0    0  0.48676869770E+02  0.47034192252E+02 -0.13277087724E+03  0.19456943962E+03  0.12509000000E+03 0.  0.
<mgrwt>
<rscale>  2 0.45390741E+03</rscale>
<asrwt>0</asrwt>
<pdfrwt beam="1">  1       21 0.13372637E-01 0.45390741E+03</pdfrwt>
<pdfrwt beam="2">  1       21 0.83298979E-01 0.45390741E+03</pdfrwt>
<totfact> 0.55757813E+04</totfact>
</mgrwt>
</event>
<event>
 7    0  0.4709932E-002  0.4537526E+03  0.7546771E-02  0.1026609E+00
         21   -1    0    0  502  501  0.00000000000E+00  0.00000000000E+00  0.19227869642E+04  0.19227869642E+04  0.00000000000E+00 0. -1.
         21   -1    0    0  501  502 -0.00000000000E+00 -0.00000000000E+00 -0.26769916131E+02  0.26769916131E+02  0.00000000000E+00 0. -1.
      99926    2    1    2    0    0  0.00000000000E+00  0.71054273576E-14  0.18960170481E+04  0.19495568804E+04  0.45375255710E+03 0.  0.
      99925    2    3    3    0    0 -0.27786059316E+02  0.44958216247E+02  0.77074311864E+03  0.81611864617E+03  0.26308056446E+03 0.  0.
         25    1    4    4    0    0  0.20959551988E+02  0.43035178793E+02  0.39784096588E+03  0.41978121881E+03  0.12509000000E+03 0.  0.
         25    1    4    4    0    0 -0.48745611305E+02  0.19230374537E+01  0.37290215276E+03  0.39633742736E+03  0.12509000000E+03 0.  0.
         25    1    3    3    0    0  0.27786059316E+02 -0.44958216247E+02  0.11252739295E+04  0.11334382342E+04  0.12509000000E+03 0.  0.
<mgrwt>
<rscale>  2 0.45375256E+03</rscale>
<asrwt>0</asrwt>
<pdfrwt beam="1">  1       21 0.28276270E+00 0.45375256E+03</pdfrwt>
<pdfrwt beam="2">  1       21 0.39367537E-02 0.45375256E+03</pdfrwt>
<totfact> 0.14692860E+04</totfact>
</mgrwt>
</event>
<event>
 7    0  0.4709932E-002  0.4494400E+03  0.7546771E-02  0.1027889E+00
         21   -1    0    0  502  501  0.00000000000E+00  0.00000000000E+00  0.70528189082E+03  0.70528189082E+03  0.00000000000E+00 0.  1.
         21   -1    0    0  501  502 -0.00000000000E+00 -0.00000000000E+00 -0.71601264167E+02  0.71601264167E+02  0.00000000000E+00 0.  1.
      99926    2    1    2    0    0  0.00000000000E+00  0.00000000000E+00  0.63368062665E+03  0.77688315499E+03  0.44943998477E+03 0.  0.
      99925    2    3    3    0    0 -0.20145622614E+02 -0.84686647168E+02  0.51083855132E+03  0.58114006343E+03  0.26304006062E+03 0.  0.
         25    1    4    4    0    0 -0.19935695640E+02 -0.13055484358E+02  0.29816461412E+03  0.32421832590E+03  0.12509000000E+03 0.  0.
         25    1    3    3    0    0  0.20145622614E+02  0.84686647168E+02  0.12284207533E+03  0.19574309155E+03  0.12509000000E+03 0.  0.
         25    1    4    4    0    0 -0.20992697363E+00 -0.71631162810E+02  0.21267393720E+03  0.25692173754E+03  0.12509000000E+03 0.  0.
<mgrwt>
<rscale>  2 0.44943998E+03</rscale>
<asrwt>0</asrwt>
<pdfrwt beam="1">  1       21 0.10371792E+00 0.44943998E+03</pdfrwt>
<pdfrwt beam="2">  1       21 0.10529598E-01 0.44943998E+03</pdfrwt>
<totfact> 0.51097129E+04</totfact>
</mgrwt>
</event>
<event>
 7    0  0.4709932E-002  0.4567547E+03  0.7546771E-02  0.1025727E+00
         21   -1    0    0  502  501  0.00000000000E+00  0.00000000000E+00  0.19002454831E+04  0.19002454831E+04  0.00000000000E+00 0. -1.
         21   -1    0    0  501  502 -0.00000000000E+00 -0.00000000000E+00 -0.27447094142E+02  0.27447094142E+02  0.00000000000E+00 0. -1.
      99926    2    1    2    0    0  0.00000000000E+00  0.00000000000E+00  0.18727983889E+04  0.19276925772E+04  0.45675471171E+03 0.  0.
      99925    2    3    3    0    0  0.87688080806E+02  0.73160008763E+02  0.11229783184E+04  0.11589798658E+04  0.26289244829E+03 0.  0.
         25    1    4    4    0    0  0.80731548651E+02  0.54092219099E+02  0.68201560187E+03  0.70016879423E+03  0.12509000000E+03 0.  0.
         25    1    3    3    0    0 -0.87688080806E+02 -0.73160008763E+02  0.74982007054E+03  0.76871271141E+03  0.12509000000E+03 0.  0.
         25    1    4    4    0    0  0.69565321555E+01  0.19067789664E+02  0.44096271652E+03  0.45881107158E+03  0.12509000000E+03 0.  0.
<mgrwt>
<rscale>  2 0.45675471E+03</rscale>
<asrwt>0</asrwt>
<pdfrwt beam="1">  1       21 0.27944777E+00 0.45675471E+03</pdfrwt>
<pdfrwt beam="2">  1       21 0.40363387E-02 0.45675471E+03</pdfrwt>
<totfact> 0.14724912E+04</totfact>
</mgrwt>
</event>
<event>
 7    0  0.4709932E-002  0.4520484E+03  0.7546771E-02  0.1027113E+00
         21   -1    0    0  502  501  0.00000000000E+00  0.00000000000E+00  0.14650755204E+03  0.14650755204E+03  0.00000000000E+00 0. -1.
         21   -1    0    0  501  502 -0.00000000000E+00 -0.00000000000E+00 -0.34869827709E+03  0.34869827709E+03  0.00000000000E+00 0. -1.
      99926    2    1    2    0    0  0.71054273576E-14  0.00000000000E+00 -0.20219072505E+03  0.49520582913E+03  0.45204836457E+03 0.  0.
      99925    2    3    3    0    0 -0.56745318509E+02 -0.62510176905E+02 -0.20535957772E+03  0.34425847699E+03  0.26308513723E+03 0.  0.
         25    1    4    4    0    0 -0.52586205434E+02 -0.41135200179E+02 -0.14790774174E+03  0.20489417235E+03  0.12509000000E+03 0.  0.
         25    1    4    4    0    0 -0.41591130755E+01 -0.21374976726E+02 -0.57451835975E+02  0.13936430464E+03  0.12509000000E+03 0.  0.
         25    1    3    3    0    0  0.56745318509E+02  0.62510176905E+02  0.31688526709E+01  0.15094735214E+03  0.12509000000E+03 0.  0.
<mgrwt>
<rscale>  2 0.45204836E+03</rscale>
<asrwt>0</asrwt>
<pdfrwt beam="1">  1       21 0.21545228E-01 0.45204836E+03</pdfrwt>
<pdfrwt beam="2">  1       21 0.51279158E-01 0.45204836E+03</pdfrwt>
<totfact> 0.67168898E+04</totfact>
</mgrwt>
</event>
<event>
 7    0  0.4709932E-002  0.4463953E+03  0.7546771E-02  0.1028802E+00
         21   -1    0    0  502  501  0.00000000000E+00  0.00000000000E+00  0.13213792183E+04  0.13213792183E+04  0.00000000000E+00 0.  1.
         21   -1    0    0  501  502 -0.00000000000E+00 -0.00000000000E+00 -0.37700910939E+02  0.37700910939E+02  0.00000000000E+00 0.  1.
      99926    2    1    2    0    0 -0.71054273576E-14  0.00000000000E+00  0.12836783074E+04  0.13590801292E+04  0.44639534149E+03 0.  0.
      99925    2    3    3    0    0 -0.61622261962E+02 -0.82854179364E+02  0.77234669085E+03  0.82263847505E+03  0.26372813948E+03 0.  0.
         25    1    4    4    0    0 -0.37480531962E+02 -0.27414518540E+02  0.26620335115E+03  0.29777185623E+03  0.12509000000E+03 0.  0.
         25    1    4    4    0    0 -0.24141730000E+02 -0.55439660825E+02  0.50614333970E+03  0.52486661882E+03  0.12509000000E+03 0.  0.
         25    1    3    3    0    0  0.61622261962E+02  0.82854179364E+02  0.51133161651E+03  0.53644165419E+03  0.12509000000E+03 0.  0.
<mgrwt>
<rscale>  2 0.44639534E+03</rscale>
<asrwt>0</asrwt>
<pdfrwt beam="1">  1       21 0.19432044E+00 0.44639534E+03</pdfrwt>
<pdfrwt beam="2">  1       21 0.55442525E-02 0.44639534E+03</pdfrwt>
<totfact> 0.29358182E+04</totfact>
</mgrwt>
</event>
<event>
 7    0  0.4709932E-002  0.4552974E+03  0.7546771E-02  0.1026154E+00
         21   -1    0    0  502  501  0.00000000000E+00  0.00000000000E+00  0.14007659589E+03  0.14007659589E+03  0.00000000000E+00 0. -1.
         21   -1    0    0  501  502 -0.00000000000E+00 -0.00000000000E+00 -0.36996854996E+03  0.36996854996E+03  0.00000000000E+00 0. -1.
      99926    2    1    2    0    0  0.00000000000E+00  0.35527136788E-14 -0.22989195407E+03  0.51004514585E+03  0.45529741956E+03 0.  0.
      99925    2    3    3    0    0 -0.14701329079E+02 -0.18924496368E+02 -0.26889307729E+03  0.37684281347E+03  0.26293108110E+03 0.  0.
         25    1    4    4    0    0 -0.28724139409E+01  0.29282577537E+02 -0.11549431849E+03  0.17277779317E+03  0.12509000000E+03 0.  0.
         25    1    4    4    0    0 -0.11828915138E+02 -0.48207073905E+02 -0.15339875880E+03  0.20406502030E+03  0.12509000000E+03 0.  0.
         25    1    3    3    0    0  0.14701329079E+02  0.18924496368E+02  0.39001123222E+02  0.13320233238E+03  0.12509000000E+03 0.  0.
<mgrwt>
<rscale>  2 0.45529742E+03</rscale>
<asrwt>0</asrwt>
<pdfrwt beam="1">  1       21 0.20599500E-01 0.45529742E+03</pdfrwt>
<pdfrwt beam="2">  1       21 0.54407139E-01 0.45529742E+03</pdfrwt>
<totfact> 0.64418376E+04</totfact>
</mgrwt>
</event>
<event>
 7    0  0.4709932E-002  0.4595338E+03  0.7546771E-02  0.1024917E+00
         21   -1    0    0  502  501  0.00000000000E+00  0.00000000000E+00  0.85258186666E+03  0.85258186666E+03  0.00000000000E+00 0. -1.
         21   -1    0    0  501  502 -0.00000000000E+00 -0.00000000000E+00 -0.61921138309E+02  0.61921138309E+02  0.00000000000E+00 0. -1.
      99926    2    1    2    0    0 -0.14210854715E-13  0.71054273576E-14  0.79066072835E+03  0.91450300497E+03  0.45953384940E+03 0.  0.
      99925    2    3    3    0    0 -0.95992007672E+02 -0.47049248635E+02  0.39908770484E+03  0.48976186242E+03  0.26299731632E+03 0.  0.
         25    1    4    4    0    0 -0.85727322892E+02 -0.80046856538E+01  0.22963830145E+03  0.27530802109E+03  0.12509000000E+03 0.  0.
         25    1    3    3    0    0  0.95992007672E+02  0.47049248635E+02  0.39157302351E+03  0.42474114255E+03  0.12509000000E+03 0.  0.
         25    1    4    4    0    0 -0.10264684780E+02 -0.39044562982E+02  0.16944940339E+03  0.21445384133E+03  0.12509000000E+03 0.  0.
<mgrwt>
<rscale>  2 0.45953385E+03</rscale>
<asrwt>0</asrwt>
<pdfrwt beam="1">  1       21 0.12537968E+00 0.45953385E+03</pdfrwt>
<pdfrwt beam="2">  1       21 0.91060502E-02 0.45953385E+03</pdfrwt>
<totfact> 0.41133261E+04</totfact>
</mgrwt>
</event>
<event>
 7    0  0.4709932E-002  0.4512962E+03  0.7546771E-02  0.1027336E+00
         21   -1    0    0  502  501  0.00000000000E+00  0.00000000000E+00  0.23637810169E+02  0.23637810169E+02  0.00000000000E+00 0. -1.
         21   -1    0    0  501  502 -0.00000000000E+00 -0.00000000000E+00 -0.21540521529E+04  0.21540521529E+04  0.00000000000E+00 0. -1.
      99926    2    1    2    0    0  0.00000000000E+00  0.00000000000E+00 -0.21304143427E+04  0.21776899630E+04  0.45129624808E+03 0.  0.
      99925    2    3    3    0    0 -0.94265011598E+02  0.58650613404E+01 -0.16144767357E+04  0.16384688453E+04  0.26291583382E+03 0.  0.
         25    1    3    3    0    0  0.94265011598E+02 -0.58650613404E+01 -0.51593760702E+03  0.53922111772E+03  0.12509000000E+03 0.  0.
         25    1    4    4    0    0 -0.35731101862E+02  0.16174612563E+02 -0.10013908474E+04  0.10099353777E+04  0.12509000000E+03 0.  0.
         25    1    4    4    0    0 -0.58533909736E+02 -0.10309551222E+02 -0.61308588826E+03  0.62853346762E+03  0.12509000000E+03 0.  0.
<mgrwt>
<rscale>  2 0.45129625E+03</rscale>
<asrwt>0</asrwt>
<pdfrwt beam="1">  1       21 0.34761488E-02 0.45129625E+03</pdfrwt>
<pdfrwt beam="2">  1       21 0.31677235E+00 0.45129625E+03</pdfrwt>
<totfact> 0.11342459E+04</totfact>
</mgrwt>
</event>
<event>
 7    0  0.4709932E-002  0.4491842E+03  0.7546771E-02  0.1027966E+00
         21   -1    0    0  502  501  0.00000000000E+00  0.00000000000E+00  0.12991441178E+03  0.12991441178E+03  0.00000000000E+00 0.  1.
         21   -1    0    0  501  502 -0.00000000000E+00 -0.00000000000E+00 -0.38826809810E+03  0.38826809810E+03  0.00000000000E+00 0.  1.
      99926    2    1    2    0    0  0.00000000000E+00  0.71054273576E-14 -0.25835368632E+03  0.51818250987E+03  0.44918424538E+03 0.  0.
      99925    2    3    3    0    0 -0.39013576464E+02  0.57904417330E+02 -0.68997301686E+02  0.28074129779E+03  0.26302104089E+03 0.  0.
         25    1    4    4    0    0 -0.32830901745E+02  0.19009624996E+01 -0.61832637823E+02  0.14336061163E+03  0.12509000000E+03 0.  0.
         25    1    3    3    0    0  0.39013576464E+02 -0.57904417330E+02 -0.18935638463E+03  0.23744121208E+03  0.12509000000E+03 0.  0.
         25    1    4    4    0    0 -0.61826747187E+01  0.56003454830E+02 -0.71646638627E+01  0.13738068615E+03  0.12509000000E+03 0.  0.
<mgrwt>
<rscale>  2 0.44918425E+03</rscale>
<asrwt>0</asrwt>
<pdfrwt beam="1">  1       21 0.19105060E-01 0.44918425E+03</pdfrwt>
<pdfrwt beam="2">  1       21 0.57098250E-01 0.44918425E+03</pdfrwt>
<totfact> 0.67051907E+04</totfact>
</mgrwt>
</event>
<event>
 7    0  0.4709932E-002  0.4600784E+03  0.7546771E-02  0.1024758E+00
         21   -1    0    0  502  501  0.00000000000E+00  0.00000000000E+00  0.52466951117E+03  0.52466951117E+03  0.00000000000E+00 0.  1.
         21   -1    0    0  501  502 -0.00000000000E+00 -0.00000000000E+00 -0.10085972728E+03  0.10085972728E+03  0.00000000000E+00 0.  1.
      99926    2    1    2    0    0  0.00000000000E+00  0.00000000000E+00  0.42380978389E+03  0.62552923846E+03  0.46007835772E+03 0.  0.
      99925    2    3    3    0    0 -0.90870352585E+02 -0.10466546809E+02  0.36644685309E+03  0.46028704193E+03  0.26308533835E+03 0.  0.
         25    1    4    4    0    0 -0.40793857872E+02  0.28061467699E+02  0.14141445737E+03  0.19518489097E+03  0.12509000000E+03 0.  0.
         25    1    3    3    0    0  0.90870352585E+02  0.10466546809E+02  0.57362930805E+02  0.16524219652E+03  0.12509000000E+03 0.  0.
         25    1    4    4    0    0 -0.50076494713E+02 -0.38528014508E+02  0.22503239572E+03  0.26510215097E+03  0.12509000000E+03 0.  0.
<mgrwt>
<rscale>  2 0.46007836E+03</rscale>
<asrwt>0</asrwt>
<pdfrwt beam="1">  1       21 0.77157279E-01 0.46007836E+03</pdfrwt>
<pdfrwt beam="2">  1       21 0.14832313E-01 0.46007836E+03</pdfrwt>
<totfact> 0.54899192E+04</totfact>
</mgrwt>
</event>
<event>
 7    0  0.4709932E-002  0.4575296E+03  0.7546771E-02  0.1025500E+00
         21   -1    0    0  502  501  0.00000000000E+00  0.00000000000E+00  0.19940704880E+03  0.19940704880E+03  0.00000000000E+00 0. -1.
         21   -1    0    0  501  502 -0.00000000000E+00 -0.00000000000E+00 -0.26244471911E+03  0.26244471911E+03  0.00000000000E+00 0. -1.
      99926    2    1    2    0    0  0.27755575616E-15  0.14210854715E-13 -0.63037670307E+02  0.46185176791E+03  0.45752957023E+03 0.  0.
      99925    2    3    3    0    0  0.49371506186E+00  0.10520546334E+03  0.87389256379E+01  0.28333616327E+03  0.26293455331E+03 0.  0.
         25    1    4    4    0    0 -0.52856878600E+01  0.33608303943E+02  0.40150010761E+02  0.13570920401E+03  0.12509000000E+03 0.  0.
         25    1    4    4    0    0  0.57794029219E+01  0.71597159396E+02 -0.31411085124E+02  0.14762695926E+03  0.12509000000E+03 0.  0.
         25    1    3    3    0    0 -0.49371506186E+00 -0.10520546334E+03 -0.71776595945E+02  0.17851560463E+03  0.12509000000E+03 0.  0.
<mgrwt>
<rscale>  2 0.45752957E+03</rscale>
<asrwt>0</asrwt>
<pdfrwt beam="1">  1       21 0.29324566E-01 0.45752957E+03</pdfrwt>
<pdfrwt beam="2">  1       21 0.38594811E-01 0.45752957E+03</pdfrwt>
<totfact> 0.66690314E+04</totfact>
</mgrwt>
</event>
<event>
 7    0  0.4709932E-002  0.4580912E+03  0.7546771E-02  0.1025336E+00
         21   -1    0    0  502  501  0.00000000000E+00  0.00000000000E+00  0.57110179051E+02  0.57110179051E+02  0.00000000000E+00 0.  1.
         21   -1    0    0  501  502 -0.00000000000E+00 -0.00000000000E+00 -0.91860852685E+03  0.91860852685E+03  0.00000000000E+00 0.  1.
      99926    2    1    2    0    0  0.00000000000E+00  0.00000000000E+00 -0.86149834780E+03  0.97571870590E+03  0.45809124613E+03 0.  0.
      99925    2    3    3    0    0 -0.10185972366E+03 -0.43085145375E+02 -0.46592256718E+03  0.54634772485E+03  0.26302141507E+03 0.  0.
         25    1    4    4    0    0 -0.67962980822E+02 -0.17522684090E+02 -0.31280504000E+03  0.34412281582E+03  0.12509000000E+03 0.  0.
         25    1    4    4    0    0 -0.33896742837E+02 -0.25562461285E+02 -0.15311752719E+03  0.20222490903E+03  0.12509000000E+03 0.  0.
         25    1    3    3    0    0  0.10185972366E+03  0.43085145375E+02 -0.39557578062E+03  0.42937098105E+03  0.12509000000E+03 0.  0.
<mgrwt>
<rscale>  2 0.45809125E+03</rscale>
<asrwt>0</asrwt>
<pdfrwt beam="1">  1       21 0.83985561E-02 0.45809125E+03</pdfrwt>
<pdfrwt beam="2">  1       21 0.13508948E+00 0.45809125E+03</pdfrwt>
<totfact> 0.39161549E+04</totfact>
</mgrwt>
</event>
<event>
 7    0  0.4709932E-002  0.4524565E+03  0.7546771E-02  0.1026992E+00
         21   -1    0    0  502  501  0.00000000000E+00  0.00000000000E+00  0.28929966589E+02  0.28929966589E+02  0.00000000000E+00 0.  1.
         21   -1    0    0  501  502 -0.00000000000E+00 -0.00000000000E+00 -0.17690726838E+04  0.17690726838E+04  0.00000000000E+00 0.  1.
      99926    2    1    2    0    0  0.00000000000E+00  0.14210854715E-13 -0.17401427172E+04  0.17980026504E+04  0.45245646702E+03 0.  0.
      99925    2    3    3    0    0  0.35100614092E+02 -0.10255358590E+03 -0.11878819309E+04  0.12214709728E+04  0.26301818281E+03 0.  0.
         25    1    4    4    0    0 -0.14371471228E+02 -0.23790889181E+02 -0.57057797675E+03  0.58478994625E+03  0.12509000000E+03 0.  0.
         25    1    4    4    0    0  0.49472085320E+02 -0.78762696722E+02 -0.61730395417E+03  0.63668102654E+03  0.12509000000E+03 0.  0.
         25    1    3    3    0    0 -0.35100614092E+02  0.10255358590E+03 -0.55226078628E+03  0.57653167758E+03  0.12509000000E+03 0.  0.
<mgrwt>
<rscale>  2 0.45245647E+03</rscale>
<asrwt>0</asrwt>
<pdfrwt beam="1">  1       21 0.42544063E-02 0.45245647E+03</pdfrwt>
<pdfrwt beam="2">  1       21 0.26015778E+00 0.45245647E+03</pdfrwt>
<totfact> 0.17643697E+04</totfact>
</mgrwt>
</event>
<event>
 7    0  0.4709932E-002  0.4553574E+03  0.7546771E-02  0.1026136E+00
         21   -1    0    0  502  501  0.00000000000E+00  0.00000000000E+00  0.41620182868E+03  0.41620182868E+03  0.00000000000E+00 0. -1.
         21   -1    0    0  501  502 -0.00000000000E+00 -0.00000000000E+00 -0.12454916950E+03  0.12454916950E+03  0.00000000000E+00 0. -1.
      99926    2    1    2    0    0  0.00000000000E+00  0.00000000000E+00  0.29165265918E+03  0.54075099819E+03  0.45535740736E+03 0.  0.
      99925    2    3    3    0    0  0.90266399140E+02 -0.21910766166E+02  0.10616823142E+03  0.29851127079E+03  0.26307637853E+03 0.  0.
         25    1    4    4    0    0  0.40003635175E+02  0.43238321768E+01  0.11916056585E+02  0.13194122501E+03  0.12509000000E+03 0.  0.
         25    1    4    4    0    0  0.50262763965E+02 -0.26234598343E+02  0.94252174840E+02  0.16657004579E+03  0.12509000000E+03 0.  0.
         25    1    3    3    0    0 -0.90266399140E+02  0.21910766166E+02  0.18548442775E+03  0.24223972739E+03  0.12509000000E+03 0.  0.
<mgrwt>
<rscale>  2 0.45535741E+03</rscale>
<asrwt>0</asrwt>
<pdfrwt beam="1">  1       21 0.61206151E-01 0.45535741E+03</pdfrwt>
<pdfrwt beam="2">  1       21 0.18316054E-01 0.45535741E+03</pdfrwt>
<totfact> 0.62305448E+04</totfact>
</mgrwt>
</event>
<event>
 7    0  0.4709932E-002  0.4566463E+03  0.7546771E-02  0.1025758E+00
         21   -1    0    0  502  501  0.00000000000E+00  0.00000000000E+00  0.80168591046E+02  0.80168591046E+02  0.00000000000E+00 0.  1.
         21   -1    0    0  501  502 -0.00000000000E+00 -0.00000000000E+00 -0.65027293349E+03  0.65027293349E+03  0.00000000000E+00 0.  1.
      99926    2    1    2    0    0 -0.14210854715E-13  0.00000000000E+00 -0.57010434245E+03  0.73044152454E+03  0.45664631773E+03 0.  0.
      99925    2    3    3    0    0  0.81680543950E+02 -0.59171421069E+02 -0.44767557263E+03  0.52842845538E+03  0.26201191919E+03 0.  0.
         25    1    4    4    0    0  0.69041374731E+02 -0.52928034777E+02 -0.27983249591E+03  0.31862489256E+03  0.12509000000E+03 0.  0.
         25    1    4    4    0    0  0.12639169219E+02 -0.62433862919E+01 -0.16784307672E+03  0.20980356282E+03  0.12509000000E+03 0.  0.
         25    1    3    3    0    0 -0.81680543950E+02  0.59171421069E+02 -0.12242876982E+03  0.20201306916E+03  0.12509000000E+03 0.  0.
<mgrwt>
<rscale>  2 0.45664632E+03</rscale>
<asrwt>0</asrwt>
<pdfrwt beam="1">  1       21 0.11789499E-01 0.45664632E+03</pdfrwt>
<pdfrwt beam="2">  1       21 0.95628368E-01 0.45664632E+03</pdfrwt>
<totfact> 0.50622647E+04</totfact>
</mgrwt>
</event>
<event>
 7    0  0.4709932E-002  0.4490843E+03  0.7546771E-02  0.1027995E+00
         21   -1    0    0  502  501  0.00000000000E+00  0.00000000000E+00  0.73920323775E+02  0.73920323775E+02  0.00000000000E+00 0. -1.
         21   -1    0    0  501  502 -0.00000000000E+00 -0.00000000000E+00 -0.68207465615E+03  0.68207465615E+03  0.00000000000E+00 0. -1.
      99926    2    1    2    0    0  0.00000000000E+00  0.00000000000E+00 -0.60815433238E+03  0.75599497993E+03  0.44908431022E+03 0.  0.
      99925    2    3    3    0    0 -0.85229751863E+02  0.26486396593E+02 -0.28380756099E+03  0.39708834023E+03  0.26299577652E+03 0.  0.
         25    1    4    4    0    0 -0.20645908199E+02  0.44173229081E+02 -0.11685704046E+03  0.17799045957E+03  0.12509000000E+03 0.  0.
         25    1    4    4    0    0 -0.64583843664E+02 -0.17686832488E+02 -0.16695052053E+03  0.21909788066E+03  0.12509000000E+03 0.  0.
         25    1    3    3    0    0  0.85229751863E+02 -0.26486396593E+02 -0.32434677139E+03  0.35890663970E+03  0.12509000000E+03 0.  0.
<mgrwt>
<rscale>  2 0.44908431E+03</rscale>
<asrwt>0</asrwt>
<pdfrwt beam="1">  1       21 0.10870636E-01 0.44908431E+03</pdfrwt>
<pdfrwt beam="2">  1       21 0.10030509E+00 0.44908431E+03</pdfrwt>
<totfact> 0.52356056E+04</totfact>
</mgrwt>
</event>
<event>
 7    0  0.4709932E-002  0.4525382E+03  0.7546771E-02  0.1026968E+00
         21   -1    0    0  502  501  0.00000000000E+00  0.00000000000E+00  0.37631764264E+03  0.37631764264E+03  0.00000000000E+00 0. -1.
         21   -1    0    0  501  502 -0.00000000000E+00 -0.00000000000E+00 -0.13604918693E+03  0.13604918693E+03  0.00000000000E+00 0. -1.
      99926    2    1    2    0    0  0.00000000000E+00 -0.35527136788E-14  0.24026845571E+03  0.51236682957E+03  0.45253821633E+03 0.  0.
      99925    2    3    3    0    0  0.33654161391E+02  0.28701171293E+02  0.26650415303E+03  0.37711824464E+03  0.26312990526E+03 0.  0.
         25    1    3    3    0    0 -0.33654161391E+02 -0.28701171293E+02 -0.26235697321E+02  0.13524858493E+03  0.12509000000E+03 0.  0.
         25    1    4    4    0    0  0.29518618882E+02  0.43838032527E+02  0.17416445409E+03  0.22084810872E+03  0.12509000000E+03 0.  0.
         25    1    4    4    0    0  0.41355425088E+01 -0.15136861234E+02  0.92339698949E+02  0.15627013592E+03  0.12509000000E+03 0.  0.
<mgrwt>
<rscale>  2 0.45253822E+03</rscale>
<asrwt>0</asrwt>
<pdfrwt beam="1">  1       21 0.55340829E-01 0.45253822E+03</pdfrwt>
<pdfrwt beam="2">  1       21 0.20007234E-01 0.45253822E+03</pdfrwt>
<totfact> 0.65684102E+04</totfact>
</mgrwt>
</event>
<event>
 7    0  0.4709932E-002  0.4580017E+03  0.7546771E-02  0.1025362E+00
         21   -1    0    0  502  501  0.00000000000E+00  0.00000000000E+00  0.66208154071E+02  0.66208154071E+02  0.00000000000E+00 0.  1.
         21   -1    0    0  501  502 -0.00000000000E+00 -0.00000000000E+00 -0.79206847925E+03  0.79206847925E+03  0.00000000000E+00 0.  1.
      99926    2    1    2    0    0  0.00000000000E+00  0.00000000000E+00 -0.72586032518E+03  0.85827663332E+03  0.45800171139E+03 0.  0.
      99925    2    3    3    0    0  0.17358016867E+02 -0.90515896202E+02 -0.58733633890E+03  0.65011604365E+03  0.26304461031E+03 0.  0.
         25    1    3    3    0    0 -0.17358016867E+02  0.90515896202E+02 -0.13852398628E+03  0.20816058966E+03  0.12509000000E+03 0.  0.
         25    1    4    4    0    0 -0.14741916055E+02 -0.32109398357E+02 -0.35394107112E+03  0.37705454178E+03  0.12509000000E+03 0.  0.
         25    1    4    4    0    0  0.32099932922E+02 -0.58406497845E+02 -0.23339526778E+03  0.27306150188E+03  0.12509000000E+03 0.  0.
<mgrwt>
<rscale>  2 0.45800171E+03</rscale>
<asrwt>0</asrwt>
<pdfrwt beam="1">  1       21 0.97364935E-02 0.45800171E+03</pdfrwt>
<pdfrwt beam="2">  1       21 0.11648066E+00 0.45800171E+03</pdfrwt>
<totfact> 0.44025590E+04</totfact>
</mgrwt>
</event>
<event>
 7    0  0.4709932E-002  0.4520482E+03  0.7546771E-02  0.1027113E+00
         21   -1    0    0  502  501  0.00000000000E+00  0.00000000000E+00  0.78217749151E+03  0.78217749151E+03  0.00000000000E+00 0.  1.
         21   -1    0    0  501  502 -0.00000000000E+00 -0.00000000000E+00 -0.65313693862E+02  0.65313693862E+02  0.00000000000E+00 0.  1.
      99926    2    1    2    0    0 -0.66613381478E-15  0.00000000000E+00  0.71686379765E+03  0.84749118537E+03  0.45204823294E+03 0.  0.
      99925    2    3    3    0    0  0.14519913858E+01  0.20397155870E+01  0.65920006482E+03  0.70972731891E+03  0.26298645029E+03 0.  0.
         25    1    3    3    0    0 -0.14519913858E+01 -0.20397155870E+01  0.57663732832E+02  0.13776386646E+03  0.12509000000E+03 0.  0.
         25    1    4    4    0    0  0.25965919809E+02  0.22274925363E+02  0.26683232507E+03  0.29667726420E+03  0.12509000000E+03 0.  0.
         25    1    4    4    0    0 -0.24513928424E+02 -0.20235209776E+02  0.39236773975E+03  0.41305005471E+03  0.12509000000E+03 0.  0.
<mgrwt>
<rscale>  2 0.45204823E+03</rscale>
<asrwt>0</asrwt>
<pdfrwt beam="1">  1       21 0.11502610E+00 0.45204823E+03</pdfrwt>
<pdfrwt beam="2">  1       21 0.96049554E-02 0.45204823E+03</pdfrwt>
<totfact> 0.46622045E+04</totfact>
</mgrwt>
</event>
<event>
 7    0  0.4709932E-002  0.4523099E+03  0.7546771E-02  0.1027035E+00
         21   -1    0    0  502  501  0.00000000000E+00  0.00000000000E+00  0.66949668393E+03  0.66949668393E+03  0.00000000000E+00 0. -1.
         21   -1    0    0  501  502 -0.00000000000E+00 -0.00000000000E+00 -0.76394809081E+02  0.76394809081E+02  0.00000000000E+00 0. -1.
      99926    2    1    2    0    0  0.00000000000E+00  0.35527136788E-14  0.59310187484E+03  0.74589149301E+03  0.45230994395E+03 0.  0.
      99925    2    3    3    0    0  0.29762551813E+02 -0.31916068263E+02  0.20683083309E+03  0.33753225079E+03  0.26314365260E+03 0.  0.
         25    1    3    3    0    0 -0.29762551813E+02  0.31916068263E+02  0.38627104176E+03  0.40835924222E+03  0.12509000000E+03 0.  0.
         25    1    4    4    0    0  0.34344550798E+02  0.14104020149E+02  0.12707871558E+03  0.18214000002E+03  0.12509000000E+03 0.  0.
         25    1    4    4    0    0 -0.45819989842E+01 -0.46020088412E+02  0.79752117506E+02  0.15539225077E+03  0.12509000000E+03 0.  0.
<mgrwt>
<rscale>  2 0.45230994E+03</rscale>
<asrwt>0</asrwt>
<pdfrwt beam="1">  1       21 0.98455392E-01 0.45230994E+03</pdfrwt>
<pdfrwt beam="2">  1       21 0.11234531E-01 0.45230994E+03</pdfrwt>
<totfact> 0.51562805E+04</totfact>
</mgrwt>
</event>
<event>
 7    0  0.4709932E-002  0.4419722E+03  0.7546771E-02  0.1030143E+00
         21   -1    0    0  502  501  0.00000000000E+00  0.00000000000E+00  0.63042881397E+02  0.63042881397E+02  0.00000000000E+00 0.  1.
         21   -1    0    0  501  502 -0.00000000000E+00 -0.00000000000E+00 -0.77462902436E+03  0.77462902436E+03  0.00000000000E+00 0.  1.
      99926    2    1    2    0    0  0.00000000000E+00  0.00000000000E+00 -0.71158614297E+03  0.83767190576E+03  0.44197215166E+03 0.  0.
      99925    2    3    3    0    0 -0.39260708238E+02 -0.78788233104E+02 -0.36136615703E+03  0.45550631922E+03  0.26296676314E+03 0.  0.
         25    1    3    3    0    0  0.39260708238E+02  0.78788233104E+02 -0.35021998593E+03  0.38216558654E+03  0.12509000000E+03 0.  0.
         25    1    4    4    0    0  0.19474646424E+02 -0.34548789759E+02 -0.15255530397E+03  0.20122999179E+03  0.12509000000E+03 0.  0.
         25    1    4    4    0    0 -0.58735354662E+02 -0.44239443345E+02 -0.20881085307E+03  0.25427632743E+03  0.12509000000E+03 0.  0.
<mgrwt>
<rscale>  2 0.44197215E+03</rscale>
<asrwt>0</asrwt>
<pdfrwt beam="1">  1       21 0.92710127E-02 0.44197215E+03</pdfrwt>
<pdfrwt beam="2">  1       21 0.11391602E+00 0.44197215E+03</pdfrwt>
<totfact> 0.51013548E+04</totfact>
</mgrwt>
</event>
<event>
 7    0  0.4709932E-002  0.4545756E+03  0.7546771E-02  0.1026366E+00
         21   -1    0    0  502  501  0.00000000000E+00  0.00000000000E+00  0.16393070490E+04  0.16393070490E+04  0.00000000000E+00 0.  1.
         21   -1    0    0  501  502 -0.00000000000E+00 -0.00000000000E+00 -0.31513166086E+02  0.31513166086E+02  0.00000000000E+00 0.  1.
      99926    2    1    2    0    0  0.00000000000E+00 -0.35527136788E-14  0.16077938829E+04  0.16708202151E+04  0.45457564959E+03 0.  0.
      99925    2    3    3    0    0 -0.50242234953E+02  0.31323441452E+02  0.65921712350E+03  0.71220099102E+03  0.26297831761E+03 0.  0.
         25    1    3    3    0    0  0.50242234953E+02 -0.31323441452E+02  0.94857675939E+03  0.95861922405E+03  0.12509000000E+03 0.  0.
         25    1    4    4    0    0 -0.17988163014E+02  0.35579649246E+02  0.42336073948E+03  0.44325084239E+03  0.12509000000E+03 0.  0.
         25    1    4    4    0    0 -0.32254071939E+02 -0.42562077935E+01  0.23585638402E+03  0.26895014863E+03  0.12509000000E+03 0.  0.
<mgrwt>
<rscale>  2 0.45457565E+03</rscale>
<asrwt>0</asrwt>
<pdfrwt beam="1">  1       21 0.24107451E+00 0.45457565E+03</pdfrwt>
<pdfrwt beam="2">  1       21 0.46342902E-02 0.45457565E+03</pdfrwt>
<totfact> 0.19941385E+04</totfact>
</mgrwt>
</event>
<event>
 7    0  0.4709932E-002  0.4607593E+03  0.7546771E-02  0.1024561E+00
         21   -1    0    0  502  501  0.00000000000E+00  0.00000000000E+00  0.37215594570E+03  0.37215594570E+03  0.00000000000E+00 0. -1.
         21   -1    0    0  501  502 -0.00000000000E+00 -0.00000000000E+00 -0.14261434387E+03  0.14261434387E+03  0.00000000000E+00 0. -1.
      99926    2    1    2    0    0  0.00000000000E+00  0.14210854715E-13  0.22954160183E+03  0.51477028958E+03  0.46075926910E+03 0.  0.
      99925    2    3    3    0    0  0.28525476218E+02  0.65384056757E+02  0.38196062530E+02  0.27529293954E+03  0.26313206892E+03 0.  0.
         25    1    4    4    0    0  0.21160022352E+02  0.73634473200E+02  0.27669437550E+02  0.14927453923E+03  0.12509000000E+03 0.  0.
         25    1    4    4    0    0  0.73654538656E+01 -0.82504164432E+01  0.10526624981E+02  0.12601840031E+03  0.12509000000E+03 0.  0.
         25    1    3    3    0    0 -0.28525476218E+02 -0.65384056757E+02  0.19134553930E+03  0.23947735004E+03  0.12509000000E+03 0.  0.
<mgrwt>
<rscale>  2 0.46075927E+03</rscale>
<asrwt>0</asrwt>
<pdfrwt beam="1">  1       21 0.54728815E-01 0.46075927E+03</pdfrwt>
<pdfrwt beam="2">  1       21 0.20972698E-01 0.46075927E+03</pdfrwt>
<totfact> 0.61390741E+04</totfact>
</mgrwt>
</event>
<event>
 7    0  0.4709932E-002  0.4598706E+03  0.7546771E-02  0.1024819E+00
         21   -1    0    0  502  501  0.00000000000E+00  0.00000000000E+00  0.31746948706E+03  0.31746948706E+03  0.00000000000E+00 0. -1.
         21   -1    0    0  501  502 -0.00000000000E+00 -0.00000000000E+00 -0.16653642430E+03  0.16653642430E+03  0.00000000000E+00 0. -1.
      99926    2    1    2    0    0 -0.17763568394E-14  0.00000000000E+00  0.15093306276E+03  0.48400591137E+03  0.45987056092E+03 0.  0.
      99925    2    3    3    0    0  0.14571572059E+02  0.96342378717E+02  0.23990380709E+02  0.28088984289E+03  0.26235354166E+03 0.  0.
         25    1    4    4    0    0 -0.40662117846E+01  0.82769647502E+01  0.17471063150E+02  0.12664038997E+03  0.12509000000E+03 0.  0.
         25    1    3    3    0    0 -0.14571572059E+02 -0.96342378717E+02  0.12694268205E+03  0.20311606848E+03  0.12509000000E+03 0.  0.
         25    1    4    4    0    0  0.18637783844E+02  0.88065413967E+02  0.65193175589E+01  0.15424945292E+03  0.12509000000E+03 0.  0.
<mgrwt>
<rscale>  2 0.45987056E+03</rscale>
<asrwt>0</asrwt>
<pdfrwt beam="1">  1       21 0.46686689E-01 0.45987056E+03</pdfrwt>
<pdfrwt beam="2">  1       21 0.24490651E-01 0.45987056E+03</pdfrwt>
<totfact> 0.63903108E+04</totfact>
</mgrwt>
</event>
<event>
 6    0  0.4711387E-002  0.4494936E+03  0.7546771E-02  0.1027873E+00
         21   -1    0    0  502  501  0.00000000000E+00  0.00000000000E+00  0.68813004974E+03  0.68813004974E+03  0.00000000000E+00 0.  1.
         21   -1    0    0  501  502 -0.00000000000E+00 -0.00000000000E+00 -0.73403453715E+02  0.73403453715E+02  0.00000000000E+00 0.  1.
      99926    2    1    2    0    0 -0.61582683397E-15  0.00000000000E+00  0.61472659603E+03  0.76153350346E+03  0.44949359175E+03 0.  0.
         25    1    3    3    0    0 -0.40384316445E+02 -0.11760530580E+02  0.18511394021E+03  0.22734089393E+03  0.12509000000E+03 0.  0.
         25    1    3    3    0    0  0.40380363410E+02 -0.51994369468E+02  0.33847442411E+03  0.36680571436E+03  0.12509000000E+03 0.  0.
         25    1    3    3    0    0  0.39530343149E-02  0.63754900048E+02  0.91138231705E+02  0.16738689517E+03  0.12509000000E+03 0.  0.
<mgrwt>
<rscale>  2 0.44949359E+03</rscale>
<asrwt>0</asrwt>
<pdfrwt beam="1">  1       21 0.10119559E+00 0.44949359E+03</pdfrwt>
<pdfrwt beam="2">  1       21 0.10794626E-01 0.44949359E+03</pdfrwt>
<totfact> 0.51888432E+04</totfact>
</mgrwt>
</event>
<event>
 7    0  0.4709932E-002  0.4475908E+03  0.7546771E-02  0.1028443E+00
         21   -1    0    0  502  501  0.00000000000E+00  0.00000000000E+00  0.11713929383E+03  0.11713929383E+03  0.00000000000E+00 0. -1.
         21   -1    0    0  501  502 -0.00000000000E+00 -0.00000000000E+00 -0.42756266413E+03  0.42756266413E+03  0.00000000000E+00 0. -1.
      99926    2    1    2    0    0  0.00000000000E+00  0.00000000000E+00 -0.31042337030E+03  0.54470195797E+03  0.44759083344E+03 0.  0.
      99925    2    3    3    0    0  0.47612165419E+02 -0.94435863875E+02 -0.18628418050E+03  0.33917070189E+03  0.26296372075E+03 0.  0.
         25    1    4    4    0    0  0.73628969216E+01 -0.79551380407E+02 -0.74826357101E+02  0.16622011368E+03  0.12509000000E+03 0.  0.
         25    1    4    4    0    0  0.40249268497E+02 -0.14884483468E+02 -0.11145782340E+03  0.17295058820E+03  0.12509000000E+03 0.  0.
         25    1    3    3    0    0 -0.47612165419E+02  0.94435863875E+02 -0.12413918980E+03  0.20553125608E+03  0.12509000000E+03 0.  0.
<mgrwt>
<rscale>  2 0.44759083E+03</rscale>
<asrwt>0</asrwt>
<pdfrwt beam="1">  1       21 0.17226367E-01 0.44759083E+03</pdfrwt>
<pdfrwt beam="2">  1       21 0.62876862E-01 0.44759083E+03</pdfrwt>
<totfact> 0.66003322E+04</totfact>
</mgrwt>
</event>
<event>
 7    0  0.4709932E-002  0.4567545E+03  0.7546771E-02  0.1025727E+00
         21   -1    0    0  502  501  0.00000000000E+00  0.00000000000E+00  0.90927695796E+03  0.90927695796E+03  0.00000000000E+00 0. -1.
         21   -1    0    0  501  502 -0.00000000000E+00 -0.00000000000E+00 -0.57360053283E+02  0.57360053283E+02  0.00000000000E+00 0. -1.
      99926    2    1    2    0    0  0.71054273576E-14 -0.44408920985E-15  0.85191690468E+03  0.96663701125E+03  0.45675452820E+03 0.  0.
      99925    2    3    3    0    0 -0.56531173963E+02  0.26089154581E+01  0.32399978884E+03  0.42115871711E+03  0.26305174731E+03 0.  0.
         25    1    4    4    0    0 -0.37717704381E+01 -0.31519356339E+02  0.15226736430E+03  0.19960098799E+03  0.12509000000E+03 0.  0.
         25    1    4    4    0    0 -0.52759403525E+02  0.34128271797E+02  0.17173242454E+03  0.22155772912E+03  0.12509000000E+03 0.  0.
         25    1    3    3    0    0  0.56531173963E+02 -0.26089154581E+01  0.52791711585E+03  0.54547829413E+03  0.12509000000E+03 0.  0.
<mgrwt>
<rscale>  2 0.45675453E+03</rscale>
<asrwt>0</asrwt>
<pdfrwt beam="1">  1       21 0.13371719E+00 0.45675453E+03</pdfrwt>
<pdfrwt beam="2">  1       21 0.84353025E-02 0.45675453E+03</pdfrwt>
<totfact> 0.39923923E+04</totfact>
</mgrwt>
</event>
<event>
 7    0  0.4709932E-002  0.4539927E+03  0.7546771E-02  0.1026538E+00
         21   -1    0    0  502  501  0.00000000000E+00  0.00000000000E+00  0.17856438234E+04  0.17856438234E+04  0.00000000000E+00 0. -1.
         21   -1    0    0  501  502 -0.00000000000E+00 -0.00000000000E+00 -0.28856451808E+02  0.28856451808E+02  0.00000000000E+00 0. -1.
      99926    2    1    2    0    0  0.35527136788E-14  0.00000000000E+00  0.17567873716E+04  0.18145002752E+04  0.45399270892E+03 0.  0.
      99925    2    3    3    0    0 -0.26459460877E+02  0.16621805692E+02  0.67541791211E+03  0.72547144019E+03  0.26295069318E+03 0.  0.
         25    1    4    4    0    0 -0.14660836801E+02 -0.20782065798E+02  0.25628275724E+03  0.28631310510E+03  0.12509000000E+03 0.  0.
         25    1    4    4    0    0 -0.11798624076E+02  0.37403871490E+02  0.41913515488E+03  0.43915833510E+03  0.12509000000E+03 0.  0.
         25    1    3    3    0    0  0.26459460877E+02 -0.16621805692E+02  0.10813694595E+04  0.10890288350E+04  0.12509000000E+03 0.  0.
<mgrwt>
<rscale>  2 0.45399271E+03</rscale>
<asrwt>0</asrwt>
<pdfrwt beam="1">  1       21 0.26259460E+00 0.45399271E+03</pdfrwt>
<pdfrwt beam="2">  1       21 0.42435971E-02 0.45399271E+03</pdfrwt>
<totfact> 0.17115981E+04</totfact>
</mgrwt>
</event>
<event>
 7    0  0.4709932E-002  0.4791470E+03  0.7546771E-02  0.1019370E+00
         21   -1    0    0  502  501  0.00000000000E+00  0.00000000000E+00  0.67679322261E+02  0.67679322261E+02  0.00000000000E+00 0.  1.
         21   -1    0    0  501  502 -0.00000000000E+00 -0.00000000000E+00 -0.84805004310E+03  0.84805004310E+03  0.00000000000E+00 0.  1.
      99926    2    1    2    0    0  0.00000000000E+00  0.00000000000E+00 -0.78037072084E+03  0.91572936536E+03  0.47914695934E+03 0.  0.
      99925    2    3    3    0    0  0.96609649207E+02  0.19655978850E+02 -0.30583873690E+03  0.41518177151E+03  0.26290452370E+03 0.  0.
         25    1    4    4    0    0  0.49213169605E+02  0.40226234641E+02 -0.11608699772E+03  0.18210926708E+03  0.12509000000E+03 0.  0.
         25    1    3    3    0    0 -0.96609649207E+02 -0.19655978850E+02 -0.47453198394E+03  0.50054759385E+03  0.12509000000E+03 0.  0.
         25    1    4    4    0    0  0.47396479602E+02 -0.20570255791E+02 -0.18975173918E+03  0.23307250443E+03  0.12509000000E+03 0.  0.
<mgrwt>
<rscale>  2 0.47914696E+03</rscale>
<asrwt>0</asrwt>
<pdfrwt beam="1">  1       21 0.99528419E-02 0.47914696E+03</pdfrwt>
<pdfrwt beam="2">  1       21 0.12471324E+00 0.47914696E+03</pdfrwt>
<totfact> 0.35382977E+04</totfact>
</mgrwt>
</event>
<event>
 7    0  0.4709932E-002  0.4534250E+03  0.7546771E-02  0.1026706E+00
         21   -1    0    0  502  501  0.00000000000E+00  0.00000000000E+00  0.19209319495E+03  0.19209319495E+03  0.00000000000E+00 0.  1.
         21   -1    0    0  501  502 -0.00000000000E+00 -0.00000000000E+00 -0.26757090679E+03  0.26757090679E+03  0.00000000000E+00 0.  1.
      99926    2    1    2    0    0  0.00000000000E+00 -0.14210854715E-13 -0.75477711841E+02  0.45966410175E+03  0.45342496783E+03 0.  0.
      99925    2    3    3    0    0 -0.47383797809E+02 -0.72528377994E+02 -0.11877669463E+03  0.30146201605E+03  0.26318406871E+03 0.  0.
         25    1    4    4    0    0 -0.96458617815E+01  0.30855200880E+01 -0.63951302683E+02  0.14085396799E+03  0.12509000000E+03 0.  0.
         25    1    4    4    0    0 -0.37737936028E+02 -0.75613898082E+02 -0.54825391946E+02  0.16060804806E+03  0.12509000000E+03 0.  0.
         25    1    3    3    0    0  0.47383797809E+02  0.72528377994E+02  0.43298982787E+02  0.15820208570E+03  0.12509000000E+03 0.  0.
<mgrwt>
<rscale>  2 0.45342497E+03</rscale>
<asrwt>0</asrwt>
<pdfrwt beam="1">  1       21 0.28248999E-01 0.45342497E+03</pdfrwt>
<pdfrwt beam="2">  1       21 0.39348663E-01 0.45342497E+03</pdfrwt>
<totfact> 0.69068408E+04</totfact>
</mgrwt>
</event>
<event>
 7    0  0.4709932E-002  0.4570880E+03  0.7546771E-02  0.1025629E+00
         21   -1    0    0  502  501  0.00000000000E+00  0.00000000000E+00  0.78342414689E+03  0.78342414689E+03  0.00000000000E+00 0. -1.
         21   -1    0    0  501  502 -0.00000000000E+00 -0.00000000000E+00 -0.66671867697E+02  0.66671867697E+02  0.00000000000E+00 0. -1.
      99926    2    1    2    0    0 -0.14210854715E-13  0.88817841970E-15  0.71675227920E+03  0.85009601459E+03  0.45708796122E+03 0.  0.
      99925    2    3    3    0    0  0.70858034135E+02  0.46445102402E+01  0.28170944277E+03  0.39189059111E+03  0.26301253351E+03 0.  0.
         25    1    3    3    0    0 -0.70858034135E+02 -0.46445102402E+01  0.43504283643E+03  0.45820542348E+03  0.12509000000E+03 0.  0.
         25    1    4    4    0    0  0.24440379320E+00 -0.62522259857E+01  0.16076850638E+03  0.20379688616E+03  0.12509000000E+03 0.  0.
         25    1    4    4    0    0  0.70613630341E+02  0.10896736226E+02  0.12094093639E+03  0.18809370496E+03  0.12509000000E+03 0.  0.
<mgrwt>
<rscale>  2 0.45708796E+03</rscale>
<asrwt>0</asrwt>
<pdfrwt beam="1">  1       21 0.11520943E+00 0.45708796E+03</pdfrwt>
<pdfrwt beam="2">  1       21 0.98046869E-02 0.45708796E+03</pdfrwt>
<totfact> 0.44698450E+04</totfact>
</mgrwt>
</event>
<event>
 7    0  0.4709932E-002  0.4369216E+03  0.7546771E-02  0.1031696E+00
         21   -1    0    0  502  501  0.00000000000E+00  0.00000000000E+00  0.10498568711E+03  0.10498568711E+03  0.00000000000E+00 0.  1.
         21   -1    0    0  501  502 -0.00000000000E+00 -0.00000000000E+00 -0.45458696714E+03  0.45458696714E+03  0.00000000000E+00 0.  1.
      99926    2    1    2    0    0 -0.88817841970E-15  0.00000000000E+00 -0.34960128003E+03  0.55957265425E+03  0.43692161813E+03 0.  0.
      99925    2    3    3    0    0  0.77167758778E+01 -0.78272018148E+02 -0.29242048540E+03  0.40113273242E+03  0.26308111160E+03 0.  0.
         25    1    4    4    0    0  0.34037919667E+02 -0.11897764193E+02 -0.12846160494E+03  0.18289349035E+03  0.12509000000E+03 0.  0.
         25    1    4    4    0    0 -0.26321143789E+02 -0.66374253955E+02 -0.16395888046E+03  0.21823924207E+03  0.12509000000E+03 0.  0.
         25    1    3    3    0    0 -0.77167758778E+01  0.78272018148E+02 -0.57180794627E+02  0.15843992183E+03  0.12509000000E+03 0.  0.
<mgrwt>
<rscale>  2 0.43692162E+03</rscale>
<asrwt>0</asrwt>
<pdfrwt beam="1">  1       21 0.15439072E-01 0.43692162E+03</pdfrwt>
<pdfrwt beam="2">  1       21 0.66851025E-01 0.43692162E+03</pdfrwt>
<totfact> 0.70837215E+04</totfact>
</mgrwt>
</event>
<event>
 7    0  0.4709932E-002  0.4635022E+03  0.7546771E-02  0.1023770E+00
         21   -1    0    0  502  501  0.00000000000E+00  0.00000000000E+00  0.24598628316E+03  0.24598628316E+03  0.00000000000E+00 0.  1.
         21   -1    0    0  501  502 -0.00000000000E+00 -0.00000000000E+00 -0.21833973347E+03  0.21833973347E+03  0.00000000000E+00 0.  1.
      99926    2    1    2    0    0 -0.14210854715E-13  0.00000000000E+00  0.27646549695E+02  0.46432601663E+03  0.46350223086E+03 0.  0.
      99925    2    3    3    0    0 -0.11047258841E+03  0.26801743209E+02 -0.24156485108E+02  0.28753917113E+03  0.26300705871E+03 0.  0.
         25    1    3    3    0    0  0.11047258841E+03 -0.26801743209E+02  0.51803034803E+02  0.17678684550E+03  0.12509000000E+03 0.  0.
         25    1    4    4    0    0 -0.24884514382E+02  0.18873472865E+02  0.17597556413E+02  0.13012543612E+03  0.12509000000E+03 0.  0.
         25    1    4    4    0    0 -0.85588074026E+02  0.79282703439E+01 -0.41754041522E+02  0.15741373501E+03  0.12509000000E+03 0.  0.
<mgrwt>
<rscale>  2 0.46350223E+03</rscale>
<asrwt>0</asrwt>
<pdfrwt beam="1">  1       21 0.36174454E-01 0.46350223E+03</pdfrwt>
<pdfrwt beam="2">  1       21 0.32108784E-01 0.46350223E+03</pdfrwt>
<totfact> 0.63452943E+04</totfact>
</mgrwt>
</event>
<event>
 7    0  0.4709932E-002  0.4480973E+03  0.7546771E-02  0.1028291E+00
         21   -1    0    0  502  501  0.00000000000E+00  0.00000000000E+00  0.16423893356E+03  0.16423893356E+03  0.00000000000E+00 0.  1.
         21   -1    0    0  501  502 -0.00000000000E+00 -0.00000000000E+00 -0.30563889246E+03  0.30563889246E+03  0.00000000000E+00 0.  1.
      99926    2    1    2    0    0  0.14210854715E-13 -0.71054273576E-14 -0.14139995890E+03  0.46987782602E+03  0.44809733653E+03 0.  0.
      99925    2    3    3    0    0  0.99979511109E+02 -0.33600896763E+02 -0.73658897504E+02  0.29278665627E+03  0.26300849797E+03 0.  0.
         25    1    4    4    0    0  0.71271687431E+02 -0.49885204525E+02 -0.55437501858E+02  0.16213886570E+03  0.12509000000E+03 0.  0.
         25    1    4    4    0    0  0.28707823678E+02  0.16284307761E+02 -0.18221395646E+02  0.13064779056E+03  0.12509000000E+03 0.  0.
         25    1    3    3    0    0 -0.99979511109E+02  0.33600896763E+02 -0.67741061392E+02  0.17709116975E+03  0.12509000000E+03 0.  0.
<mgrwt>
<rscale>  2 0.44809734E+03</rscale>
<asrwt>0</asrwt>
<pdfrwt beam="1">  1       21 0.24152785E-01 0.44809734E+03</pdfrwt>
<pdfrwt beam="2">  1       21 0.44946895E-01 0.44809734E+03</pdfrwt>
<totfact> 0.71269158E+04</totfact>
</mgrwt>
</event>
<event>
 7    0  0.4709932E-002  0.4511774E+03  0.7546771E-02  0.1027372E+00
         21   -1    0    0  502  501  0.00000000000E+00  0.00000000000E+00  0.14581919974E+03  0.14581919974E+03  0.00000000000E+00 0. -1.
         21   -1    0    0  501  502 -0.00000000000E+00 -0.00000000000E+00 -0.34899565410E+03  0.34899565410E+03  0.00000000000E+00 0. -1.
      99926    2    1    2    0    0  0.00000000000E+00  0.00000000000E+00 -0.20317645436E+03  0.49481485385E+03  0.45117742406E+03 0.  0.
      99925    2    3    3    0    0  0.50719947915E+02 -0.91250174502E+02 -0.91700367701E+02  0.29739769791E+03  0.26293977603E+03 0.  0.
         25    1    4    4    0    0  0.54206098599E+01 -0.79923209050E+02 -0.59742479087E+02  0.16010550979E+03  0.12509000000E+03 0.  0.
         25    1    3    3    0    0 -0.50719947915E+02  0.91250174502E+02 -0.11147608666E+03  0.19741715594E+03  0.12509000000E+03 0.  0.
         25    1    4    4    0    0  0.45299338055E+02 -0.11326965452E+02 -0.31957888614E+02  0.13729218812E+03  0.12509000000E+03 0.  0.
<mgrwt>
<rscale>  2 0.45117742E+03</rscale>
<asrwt>0</asrwt>
<pdfrwt beam="1">  1       21 0.21444001E-01 0.45117742E+03</pdfrwt>
<pdfrwt beam="2">  1       21 0.51322889E-01 0.45117742E+03</pdfrwt>
<totfact> 0.67666639E+04</totfact>
</mgrwt>
</event>
<event>
 7    0  0.4709932E-002  0.4430435E+03  0.7546771E-02  0.1029817E+00
         21   -1    0    0  502  501  0.00000000000E+00  0.00000000000E+00  0.20507403059E+04  0.20507403059E+04  0.00000000000E+00 0.  1.
         21   -1    0    0  501  502 -0.00000000000E+00 -0.00000000000E+00 -0.23928858962E+02  0.23928858962E+02  0.00000000000E+00 0.  1.
      99926    2    1    2    0    0  0.00000000000E+00  0.00000000000E+00  0.20268114470E+04  0.20746691649E+04  0.44304345407E+03 0.  0.
      99925    2    3    3    0    0 -0.10545181251E+02 -0.91057269612E+02  0.10841048681E+04  0.11192918419E+04  0.26292248912E+03 0.  0.
         25    1    4    4    0    0  0.19206875321E+02 -0.56422637263E+02  0.67447715187E+03  0.68856325385E+03  0.12509000000E+03 0.  0.
         25    1    3    3    0    0  0.10545181251E+02  0.91057269612E+02  0.94270657890E+03  0.95537732295E+03  0.12509000000E+03 0.  0.
         25    1    4    4    0    0 -0.29752056572E+02 -0.34634632350E+02  0.40962771619E+03  0.43072858809E+03  0.12509000000E+03 0.  0.
<mgrwt>
<rscale>  2 0.44304345E+03</rscale>
<asrwt>0</asrwt>
<pdfrwt beam="1">  1       21 0.30157934E+00 0.44304345E+03</pdfrwt>
<pdfrwt beam="2">  1       21 0.35189513E-02 0.44304345E+03</pdfrwt>
<totfact> 0.13762865E+04</totfact>
</mgrwt>
</event>
<event>
 7    0  0.4709932E-002  0.4371861E+03  0.7546771E-02  0.1031614E+00
         21   -1    0    0  502  501  0.00000000000E+00  0.00000000000E+00  0.10175521973E+03  0.10175521973E+03  0.00000000000E+00 0.  1.
         21   -1    0    0  501  502 -0.00000000000E+00 -0.00000000000E+00 -0.46958700464E+03  0.46958700464E+03  0.00000000000E+00 0.  1.
      99926    2    1    2    0    0  0.00000000000E+00  0.00000000000E+00 -0.36783178491E+03  0.57134222437E+03  0.43718613354E+03 0.  0.
      99925    2    3    3    0    0 -0.35598287723E+02 -0.60755695832E+02 -0.15093132277E+03  0.31124260645E+03  0.26293193647E+03 0.  0.
         25    1    3    3    0    0  0.35598287723E+02  0.60755695832E+02 -0.21690046215E+03  0.26009961792E+03  0.12509000000E+03 0.  0.
         25    1    4    4    0    0  0.85700206179E+01 -0.54487486264E+02 -0.98320503396E+02  0.16839465817E+03  0.12509000000E+03 0.  0.
         25    1    4    4    0    0 -0.44168308341E+02 -0.62682095671E+01 -0.52610819370E+02  0.14284794828E+03  0.12509000000E+03 0.  0.
<mgrwt>
<rscale>  2 0.43718613E+03</rscale>
<asrwt>0</asrwt>
<pdfrwt beam="1">  1       21 0.14964003E-01 0.43718613E+03</pdfrwt>
<pdfrwt beam="2">  1       21 0.69056913E-01 0.43718613E+03</pdfrwt>
<totfact> 0.69802648E+04</totfact>
</mgrwt>
</event>
<event>
 7    0  0.4709932E-002  0.4508611E+03  0.7546771E-02  0.1027466E+00
         21   -1    0    0  502  501  0.00000000000E+00  0.00000000000E+00  0.51174348636E+03  0.51174348636E+03  0.00000000000E+00 0.  1.
         21   -1    0    0  501  502 -0.00000000000E+00 -0.00000000000E+00 -0.99305482467E+02  0.99305482467E+02  0.00000000000E+00 0.  1.
      99926    2    1    2    0    0  0.00000000000E+00  0.00000000000E+00  0.41243800390E+03  0.61104896883E+03  0.45086110417E+03 0.  0.
      99925    2    3    3    0    0  0.42078739605E+02  0.49150754078E+02  0.37977024004E+03  0.46647681436E+03  0.26303757557E+03 0.  0.
         25    1    4    4    0    0  0.45007164729E+02  0.47484224250E+02  0.24355260070E+03  0.28150625897E+03  0.12509000000E+03 0.  0.
         25    1    3    3    0    0 -0.42078739605E+02 -0.49150754078E+02  0.32667763861E+02  0.14457215447E+03  0.12509000000E+03 0.  0.
         25    1    4    4    0    0 -0.29284251243E+01  0.16665298278E+01  0.13621763934E+03  0.18497055539E+03  0.12509000000E+03 0.  0.
<mgrwt>
<rscale>  2 0.45086110E+03</rscale>
<asrwt>0</asrwt>
<pdfrwt beam="1">  1       21 0.75256394E-01 0.45086110E+03</pdfrwt>
<pdfrwt beam="2">  1       21 0.14603748E-01 0.45086110E+03</pdfrwt>
<totfact> 0.59938841E+04</totfact>
</mgrwt>
</event>
<event>
 7    0  0.4709932E-002  0.4548905E+03  0.7546771E-02  0.1026274E+00
         21   -1    0    0  502  501  0.00000000000E+00  0.00000000000E+00  0.82309472218E+02  0.82309472218E+02  0.00000000000E+00 0. -1.
         21   -1    0    0  501  502 -0.00000000000E+00 -0.00000000000E+00 -0.62849808033E+03  0.62849808033E+03  0.00000000000E+00 0. -1.
      99926    2    1    2    0    0 -0.71054273576E-14 -0.14210854715E-13 -0.54618860812E+03  0.71080755255E+03  0.45489051554E+03 0.  0.
      99925    2    3    3    0    0 -0.33673299602E+02 -0.95352837976E+02 -0.42278448390E+03  0.50807092343E+03  0.26298914158E+03 0.  0.
         25    1    4    4    0    0  0.10382097119E+02 -0.76550283540E+02 -0.20215450806E+03  0.24996337147E+03  0.12509000000E+03 0.  0.
         25    1    4    4    0    0 -0.44055396721E+02 -0.18802554435E+02 -0.22062997584E+03  0.25810755195E+03  0.12509000000E+03 0.  0.
         25    1    3    3    0    0  0.33673299602E+02  0.95352837976E+02 -0.12340412421E+03  0.20273662913E+03  0.12509000000E+03 0.  0.
<mgrwt>
<rscale>  2 0.45489052E+03</rscale>
<asrwt>0</asrwt>
<pdfrwt beam="1">  1       21 0.12104334E-01 0.45489052E+03</pdfrwt>
<pdfrwt beam="2">  1       21 0.92426190E-01 0.45489052E+03</pdfrwt>
<totfact> 0.52365206E+04</totfact>
</mgrwt>
</event>
<event>
 7    0  0.4709932E-002  0.4610626E+03  0.7546771E-02  0.1024473E+00
         21   -1    0    0  502  501  0.00000000000E+00  0.00000000000E+00  0.38224168267E+03  0.38224168267E+03  0.00000000000E+00 0. -1.
         21   -1    0    0  501  502 -0.00000000000E+00 -0.00000000000E+00 -0.13903422370E+03  0.13903422370E+03  0.00000000000E+00 0. -1.
      99926    2    1    2    0    0  0.71054273576E-14  0.00000000000E+00  0.24320745897E+03  0.52127590637E+03  0.46106257977E+03 0.  0.
      99925    2    3    3    0    0  0.55150258646E+02  0.59357871375E+02  0.54170391418E+02  0.28055318428E+03  0.26307936061E+03 0.  0.
         25    1    3    3    0    0 -0.55150258646E+02 -0.59357871375E+02  0.18903706755E+03  0.24072272209E+03  0.12509000000E+03 0.  0.
         25    1    4    4    0    0  0.21270625119E+02 -0.98535246912E+01  0.37575279769E+02  0.13269868572E+03  0.12509000000E+03 0.  0.
         25    1    4    4    0    0  0.33879633526E+02  0.69211396066E+02  0.16595111650E+02  0.14785449856E+03  0.12509000000E+03 0.  0.
<mgrwt>
<rscale>  2 0.46106258E+03</rscale>
<asrwt>0</asrwt>
<pdfrwt beam="1">  1       21 0.56212012E-01 0.46106258E+03</pdfrwt>
<pdfrwt beam="2">  1       21 0.20446209E-01 0.46106258E+03</pdfrwt>
<totfact> 0.60821643E+04</totfact>
</mgrwt>
</event>
<event>
 7    0  0.4709932E-002  0.4605811E+03  0.7546771E-02  0.1024613E+00
         21   -1    0    0  502  501  0.00000000000E+00  0.00000000000E+00  0.12129376881E+03  0.12129376881E+03  0.00000000000E+00 0. -1.
         21   -1    0    0  501  502 -0.00000000000E+00 -0.00000000000E+00 -0.43723379825E+03  0.43723379825E+03  0.00000000000E+00 0. -1.
      99926    2    1    2    0    0  0.00000000000E+00  0.00000000000E+00 -0.31594002945E+03  0.55852756706E+03  0.46058109053E+03 0.  0.
      99925    2    3    3    0    0  0.71829777683E+02 -0.85130203629E+02 -0.24600886161E+03  0.37702124522E+03  0.26309312196E+03 0.  0.
         25    1    3    3    0    0 -0.71829777683E+02  0.85130203629E+02 -0.69931167835E+02  0.18150632184E+03  0.12509000000E+03 0.  0.
         25    1    4    4    0    0  0.70753144696E+02 -0.44103036790E+02 -0.10067913173E+03  0.18092783369E+03  0.12509000000E+03 0.  0.
         25    1    4    4    0    0  0.10766329862E+01 -0.41027166840E+02 -0.14532972989E+03  0.19609341153E+03  0.12509000000E+03 0.  0.
<mgrwt>
<rscale>  2 0.46058109E+03</rscale>
<asrwt>0</asrwt>
<pdfrwt beam="1">  1       21 0.17837319E-01 0.46058109E+03</pdfrwt>
<pdfrwt beam="2">  1       21 0.64299087E-01 0.46058109E+03</pdfrwt>
<totfact> 0.58672976E+04</totfact>
</mgrwt>
</event>
<event>
 7    0  0.4709932E-002  0.4561996E+03  0.7546771E-02  0.1025889E+00
         21   -1    0    0  502  501  0.00000000000E+00  0.00000000000E+00  0.49179573421E+03  0.49179573421E+03  0.00000000000E+00 0.  1.
         21   -1    0    0  501  502 -0.00000000000E+00 -0.00000000000E+00 -0.10579499780E+03  0.10579499780E+03  0.00000000000E+00 0.  1.
      99926    2    1    2    0    0  0.00000000000E+00  0.00000000000E+00  0.38600073641E+03  0.59759073201E+03  0.45619964323E+03 0.  0.
      99925    2    3    3    0    0  0.66557601854E+02 -0.42834561153E+02  0.35070541031E+03  0.44541326279E+03  0.26293340575E+03 0.  0.
         25    1    3    3    0    0 -0.66557601854E+02  0.42834561153E+02  0.35295326101E+02  0.15217746922E+03  0.12509000000E+03 0.  0.
         25    1    4    4    0    0  0.32324861569E+02 -0.62307496901E+02  0.18170222968E+03  0.23149585140E+03  0.12509000000E+03 0.  0.
         25    1    4    4    0    0  0.34232740286E+02  0.19472935747E+02  0.16900318063E+03  0.21391741139E+03  0.12509000000E+03 0.  0.
<mgrwt>
<rscale>  2 0.45619964E+03</rscale>
<asrwt>0</asrwt>
<pdfrwt beam="1">  1       21 0.72322901E-01 0.45619964E+03</pdfrwt>
<pdfrwt beam="2">  1       21 0.15558088E-01 0.45619964E+03</pdfrwt>
<totfact> 0.58272453E+04</totfact>
</mgrwt>
</event>
<event>
 7    0  0.4709932E-002  0.4555401E+03  0.7546771E-02  0.1026083E+00
         21   -1    0    0  502  501  0.00000000000E+00  0.00000000000E+00  0.46822018628E+02  0.46822018628E+02  0.00000000000E+00 0. -1.
         21   -1    0    0  501  502 -0.00000000000E+00 -0.00000000000E+00 -0.11080087089E+04  0.11080087089E+04  0.00000000000E+00 0. -1.
      99926    2    1    2    0    0  0.00000000000E+00  0.00000000000E+00 -0.10611866903E+04  0.11548307276E+04  0.45554013834E+03 0.  0.
      99925    2    3    3    0    0 -0.54210742617E+02 -0.45444085171E+02 -0.89303176303E+03  0.93363498357E+03  0.26299160306E+03 0.  0.
         25    1    4    4    0    0  0.76345452971E+00 -0.34898973979E+02 -0.52767952701E+03  0.54342590348E+03  0.12509000000E+03 0.  0.
         25    1    3    3    0    0  0.54210742617E+02  0.45444085171E+02 -0.16815492728E+03  0.22119574399E+03  0.12509000000E+03 0.  0.
         25    1    4    4    0    0 -0.54974197147E+02 -0.10545111192E+02 -0.36535223602E+03  0.39020908009E+03  0.12509000000E+03 0.  0.
<mgrwt>
<rscale>  2 0.45554014E+03</rscale>
<asrwt>0</asrwt>
<pdfrwt beam="1">  1       21 0.68855910E-02 0.45554014E+03</pdfrwt>
<pdfrwt beam="2">  1       21 0.16294246E+00 0.45554014E+03</pdfrwt>
<totfact> 0.33480330E+04</totfact>
</mgrwt>
</event>
<event>
 7    0  0.4709932E-002  0.4546594E+03  0.7546771E-02  0.1026342E+00
         21   -1    0    0  502  501  0.00000000000E+00  0.00000000000E+00  0.37486800374E+03  0.37486800374E+03  0.00000000000E+00 0.  1.
         21   -1    0    0  501  502 -0.00000000000E+00 -0.00000000000E+00 -0.13785864632E+03  0.13785864632E+03  0.00000000000E+00 0.  1.
      99926    2    1    2    0    0 -0.71054273576E-14  0.35527136788E-14  0.23700935743E+03  0.51272665006E+03  0.45465941338E+03 0.  0.
      99925    2    3    3    0    0 -0.61145090755E+02  0.26172955827E+02  0.25198028907E+03  0.37026478627E+03  0.26301749017E+03 0.  0.
         25    1    4    4    0    0 -0.17532099109E+02 -0.23762517794E+02  0.10262438548E+03  0.16447280732E+03  0.12509000000E+03 0.  0.
         25    1    3    3    0    0  0.61145090755E+02 -0.26172955827E+02 -0.14970931642E+02  0.14246186379E+03  0.12509000000E+03 0.  0.
         25    1    4    4    0    0 -0.43612991646E+02  0.49935473622E+02  0.14935590359E+03  0.20579197896E+03  0.12509000000E+03 0.  0.
<mgrwt>
<rscale>  2 0.45465941E+03</rscale>
<asrwt>0</asrwt>
<pdfrwt beam="1">  1       21 0.55127647E-01 0.45465941E+03</pdfrwt>
<pdfrwt beam="2">  1       21 0.20273330E-01 0.45465941E+03</pdfrwt>
<totfact> 0.64559822E+04</totfact>
</mgrwt>
</event>
<event>
 7    0  0.4709932E-002  0.4501891E+03  0.7546771E-02  0.1027666E+00
         21   -1    0    0  502  501  0.00000000000E+00  0.00000000000E+00  0.31820314591E+03  0.31820314591E+03  0.00000000000E+00 0. -1.
         21   -1    0    0  501  502 -0.00000000000E+00 -0.00000000000E+00 -0.15923020245E+03  0.15923020245E+03  0.00000000000E+00 0. -1.
      99926    2    1    2    0    0  0.00000000000E+00  0.00000000000E+00  0.15897294346E+03  0.47743334836E+03  0.45018907736E+03 0.  0.
      99925    2    3    3    0    0 -0.72720639952E+02 -0.79879750718E+02  0.11228022181E+03  0.30568706920E+03  0.26299937265E+03 0.  0.
         25    1    4    4    0    0 -0.50797375421E+02 -0.27960838353E+02  0.94927543930E+02  0.16739452956E+03  0.12509000000E+03 0.  0.
         25    1    3    3    0    0  0.72720639952E+02  0.79879750718E+02  0.46692721650E+02  0.17174627916E+03  0.12509000000E+03 0.  0.
         25    1    4    4    0    0 -0.21923264530E+02 -0.51918912365E+02  0.17352677881E+02  0.13829253963E+03  0.12509000000E+03 0.  0.
<mgrwt>
<rscale>  2 0.45018908E+03</rscale>
<asrwt>0</asrwt>
<pdfrwt beam="1">  1       21 0.46794580E-01 0.45018908E+03</pdfrwt>
<pdfrwt beam="2">  1       21 0.23416206E-01 0.45018908E+03</pdfrwt>
<totfact> 0.69503846E+04</totfact>
</mgrwt>
</event>
<event>
 7    0  0.4709932E-002  0.4540011E+03  0.7546771E-02  0.1026536E+00
         21   -1    0    0  502  501  0.00000000000E+00  0.00000000000E+00  0.16669033531E+03  0.16669033531E+03  0.00000000000E+00 0.  1.
         21   -1    0    0  501  502 -0.00000000000E+00 -0.00000000000E+00 -0.30913155232E+03  0.30913155232E+03  0.00000000000E+00 0.  1.
      99926    2    1    2    0    0  0.00000000000E+00  0.00000000000E+00 -0.14244121701E+03  0.47582188763E+03  0.45400106656E+03 0.  0.
      99925    2    3    3    0    0  0.38670573313E+02 -0.51397456214E+02  0.66286782830E+01  0.27086712791E+03  0.26303602389E+03 0.  0.
         25    1    4    4    0    0  0.38000133718E+02 -0.55314960637E+02  0.25719668787E+02  0.14426629716E+03  0.12509000000E+03 0.  0.
         25    1    4    4    0    0  0.67043959454E+00  0.39175044225E+01 -0.19090990504E+02  0.12660083076E+03  0.12509000000E+03 0.  0.
         25    1    3    3    0    0 -0.38670573313E+02  0.51397456214E+02 -0.14906989530E+03  0.20495475971E+03  0.12509000000E+03 0.  0.
<mgrwt>
<rscale>  2 0.45400107E+03</rscale>
<asrwt>0</asrwt>
<pdfrwt beam="1">  1       21 0.24513285E-01 0.45400107E+03</pdfrwt>
<pdfrwt beam="2">  1       21 0.45460522E-01 0.45400107E+03</pdfrwt>
<totfact> 0.67539372E+04</totfact>
</mgrwt>
</event>
<event>
 7    0  0.4709932E-002  0.4583349E+03  0.7546771E-02  0.1025265E+00
         21   -1    0    0  502  501  0.00000000000E+00  0.00000000000E+00  0.11447260122E+03  0.11447260122E+03  0.00000000000E+00 0.  1.
         21   -1    0    0  501  502 -0.00000000000E+00 -0.00000000000E+00 -0.45877987003E+03  0.45877987003E+03  0.00000000000E+00 0.  1.
      99926    2    1    2    0    0  0.00000000000E+00  0.00000000000E+00 -0.34430726881E+03  0.57325247125E+03  0.45833492169E+03 0.  0.
      99925    2    3    3    0    0  0.11880564301E+02  0.39911834489E+02 -0.80126217581E+02  0.27800132686E+03  0.26292665261E+03 0.  0.
         25    1    3    3    0    0 -0.11880564301E+02 -0.39911834489E+02 -0.26418105123E+03  0.29525114440E+03  0.12509000000E+03 0.  0.
         25    1    4    4    0    0  0.15734933404E+02  0.41772715119E+02 -0.75450350153E+02  0.15275081439E+03  0.12509000000E+03 0.  0.
         25    1    4    4    0    0 -0.38543691039E+01 -0.18608806298E+01 -0.46758674276E+01  0.12525051247E+03  0.12509000000E+03 0.  0.
<mgrwt>
<rscale>  2 0.45833492E+03</rscale>
<asrwt>0</asrwt>
<pdfrwt beam="1">  1       21 0.16834206E-01 0.45833492E+03</pdfrwt>
<pdfrwt beam="2">  1       21 0.67467629E-01 0.45833492E+03</pdfrwt>
<totfact> 0.58789920E+04</totfact>
</mgrwt>
</event>
<event>
 7    0  0.4709932E-002  0.4756494E+03  0.7546771E-02  0.1020338E+00
         21   -1    0    0  502  501  0.00000000000E+00  0.00000000000E+00  0.15535971497E+03  0.15535971497E+03  0.00000000000E+00 0.  1.
         21   -1    0    0  501  502 -0.00000000000E+00 -0.00000000000E+00 -0.36406215469E+03  0.36406215469E+03  0.00000000000E+00 0.  1.
      99926    2    1    2    0    0 -0.28421709430E-13 -0.71054273576E-14 -0.20870243972E+03  0.51942186966E+03  0.47564941957E+03 0.  0.
      99925    2    3    3    0    0  0.85183970212E+02  0.32390462049E+02 -0.23284323026E+03  0.36278299620E+03  0.26284992227E+03 0.  0.
         25    1    4    4    0    0  0.10873649288E+02 -0.11714971236E+02 -0.10188890945E+03  0.16212444223E+03  0.12509000000E+03 0.  0.
         25    1    3    3    0    0 -0.85183970212E+02 -0.32390462049E+02  0.24140790537E+02  0.15663887347E+03  0.12509000000E+03 0.  0.
         25    1    4    4    0    0  0.74310320924E+02  0.44105433286E+02 -0.13095432081E+03  0.20065855396E+03  0.12509000000E+03 0.  0.
<mgrwt>
<rscale>  2 0.47564942E+03</rscale>
<asrwt>0</asrwt>
<pdfrwt beam="1">  1       21 0.22847017E-01 0.47564942E+03</pdfrwt>
<pdfrwt beam="2">  1       21 0.53538553E-01 0.47564942E+03</pdfrwt>
<totfact> 0.54442082E+04</totfact>
</mgrwt>
</event>
<event>
 7    0  0.4709932E-002  0.4548843E+03  0.7546771E-02  0.1026275E+00
         21   -1    0    0  502  501  0.00000000000E+00  0.00000000000E+00  0.92667992901E+02  0.92667992901E+02  0.00000000000E+00 0. -1.
         21   -1    0    0  501  502 -0.00000000000E+00 -0.00000000000E+00 -0.55822866549E+03  0.55822866549E+03  0.00000000000E+00 0. -1.
      99926    2    1    2    0    0  0.00000000000E+00  0.00000000000E+00 -0.46556067259E+03  0.65089665839E+03  0.45488429303E+03 0.  0.
      99925    2    3    3    0    0 -0.64630760697E+02  0.89066370346E+02 -0.25771152957E+03  0.38451586346E+03  0.26330070874E+03 0.  0.
         25    1    4    4    0    0 -0.48513863596E+02  0.15230824620E+02 -0.15672946024E+03  0.20687485296E+03  0.12509000000E+03 0.  0.
         25    1    3    3    0    0  0.64630760697E+02 -0.89066370346E+02 -0.20784914302E+03  0.26638079493E+03  0.12509000000E+03 0.  0.
         25    1    4    4    0    0 -0.16116897101E+02  0.73835545726E+02 -0.10098206933E+03  0.17764101050E+03  0.12509000000E+03 0.  0.
<mgrwt>
<rscale>  2 0.45488429E+03</rscale>
<asrwt>0</asrwt>
<pdfrwt beam="1">  1       21 0.13627646E-01 0.45488429E+03</pdfrwt>
<pdfrwt beam="2">  1       21 0.82092450E-01 0.45488429E+03</pdfrwt>
<totfact> 0.55700690E+04</totfact>
</mgrwt>
</event>
<event>
 7    0  0.4709932E-002  0.4817200E+03  0.7546771E-02  0.1018664E+00
         21   -1    0    0  502  501  0.00000000000E+00  0.00000000000E+00  0.79263043766E+03  0.79263043766E+03  0.00000000000E+00 0. -1.
         21   -1    0    0  501  502 -0.00000000000E+00 -0.00000000000E+00 -0.73191172713E+02  0.73191172713E+02  0.00000000000E+00 0. -1.
      99926    2    1    2    0    0  0.00000000000E+00  0.44408920985E-15  0.71943926495E+03  0.86582161037E+03  0.48172004841E+03 0.  0.
      99925    2    3    3    0    0  0.35490754007E+02 -0.22665850456E+01  0.20533642498E+03  0.33552549574E+03  0.26296307696E+03 0.  0.
         25    1    3    3    0    0 -0.35490754007E+02  0.22665850456E+01  0.51410283997E+03  0.53029611463E+03  0.12509000000E+03 0.  0.
         25    1    4    4    0    0  0.40790447994E+02 -0.31805255508E+02  0.12218360181E+03  0.18235069393E+03  0.12509000000E+03 0.  0.
         25    1    4    4    0    0 -0.52996939862E+01  0.29538670462E+02  0.83152823161E+02  0.15317480181E+03  0.12509000000E+03 0.  0.
<mgrwt>
<rscale>  2 0.48172005E+03</rscale>
<asrwt>0</asrwt>
<pdfrwt beam="1">  1       21 0.11656329E+00 0.48172005E+03</pdfrwt>
<pdfrwt beam="2">  1       21 0.10763408E-01 0.48172005E+03</pdfrwt>
<totfact> 0.36473054E+04</totfact>
</mgrwt>
</event>
<event>
 7    0  0.4709932E-002  0.4682696E+03  0.7546771E-02  0.1022410E+00
         21   -1    0    0  502  501  0.00000000000E+00  0.00000000000E+00  0.19131874020E+04  0.19131874020E+04  0.00000000000E+00 0. -1.
         21   -1    0    0  501  502 -0.00000000000E+00 -0.00000000000E+00 -0.28653289393E+02  0.28653289393E+02  0.00000000000E+00 0. -1.
      99926    2    1    2    0    0  0.14210854715E-13 -0.48849813084E-14  0.18845341126E+04  0.19418406914E+04  0.46826963297E+03 0.  0.
      99925    2    3    3    0    0  0.11677042486E+03 -0.25766331353E+01  0.13595217587E+04  0.13896383272E+04  0.26297014449E+03 0.  0.
         25    1    3    3    0    0 -0.11677042486E+03  0.25766331353E+01  0.52501235393E+03  0.55220236421E+03  0.12509000000E+03 0.  0.
         25    1    4    4    0    0  0.70897079087E+02 -0.38900117888E+02  0.65730529774E+03  0.67397134771E+03  0.12509000000E+03 0.  0.
         25    1    4    4    0    0  0.45873345775E+02  0.36323484752E+02  0.70221646091E+03  0.71566697945E+03  0.12509000000E+03 0.  0.
<mgrwt>
<rscale>  2 0.46826963E+03</rscale>
<asrwt>0</asrwt>
<pdfrwt beam="1">  1       21 0.28135100E+00 0.46826963E+03</pdfrwt>
<pdfrwt beam="2">  1       21 0.42137203E-02 0.46826963E+03</pdfrwt>
<totfact> 0.13263400E+04</totfact>
</mgrwt>
</event>
<event>
 7    0  0.4709932E-002  0.4537590E+03  0.7546771E-02  0.1026607E+00
         21   -1    0    0  502  501  0.00000000000E+00  0.00000000000E+00  0.75123697080E+03  0.75123697080E+03  0.00000000000E+00 0. -1.
         21   -1    0    0  501  502 -0.00000000000E+00 -0.00000000000E+00 -0.68519393940E+02  0.68519393940E+02  0.00000000000E+00 0. -1.
      99926    2    1    2    0    0  0.14210854715E-13  0.00000000000E+00  0.68271757686E+03  0.81975636474E+03  0.45375897543E+03 0.  0.
      99925    2    3    3    0    0  0.71736913234E+02  0.85945103139E+02  0.43651360481E+03  0.52176869817E+03  0.26299372946E+03 0.  0.
         25    1    4    4    0    0  0.45872199992E+02  0.83788490099E+02  0.22290593721E+03  0.27287237814E+03  0.12509000000E+03 0.  0.
         25    1    3    3    0    0 -0.71736913234E+02 -0.85945103139E+02  0.24620397205E+03  0.29798766657E+03  0.12509000000E+03 0.  0.
         25    1    4    4    0    0  0.25864713242E+02  0.21566130401E+01  0.21360766760E+03  0.24889632004E+03  0.12509000000E+03 0.  0.
<mgrwt>
<rscale>  2 0.45375898E+03</rscale>
<asrwt>0</asrwt>
<pdfrwt beam="1">  1       21 0.11047602E+00 0.45375898E+03</pdfrwt>
<pdfrwt beam="2">  1       21 0.10076382E-01 0.45375898E+03</pdfrwt>
<totfact> 0.47282784E+04</totfact>
</mgrwt>
</event>
<event>
 7    0  0.4709932E-002  0.4138711E+03  0.7546771E-02  0.1039080E+00
         21   -1    0    0  502  501  0.00000000000E+00  0.00000000000E+00  0.20121584930E+03  0.20121584930E+03  0.00000000000E+00 0.  1.
         21   -1    0    0  501  502 -0.00000000000E+00 -0.00000000000E+00 -0.21281786516E+03  0.21281786516E+03  0.00000000000E+00 0.  1.
      99926    2    1    2    0    0 -0.44408920985E-15  0.00000000000E+00 -0.11602015852E+02  0.41403371446E+03  0.41387112721E+03 0.  0.
      99925    2    3    3    0    0 -0.29391899709E+01  0.63470541884E+02  0.16051705016E+02  0.27103236865E+03  0.26298999810E+03 0.  0.
         25    1    4    4    0    0 -0.10724263405E+02  0.12354137767E+02 -0.26967572689E+02  0.12900539765E+03  0.12509000000E+03 0.  0.
         25    1    3    3    0    0  0.29391899709E+01 -0.63470541884E+02 -0.27653720868E+02  0.14300134581E+03  0.12509000000E+03 0.  0.
         25    1    4    4    0    0  0.77850734337E+01  0.51116404117E+02  0.43019277705E+02  0.14202697100E+03  0.12509000000E+03 0.  0.
<mgrwt>
<rscale>  2 0.41387113E+03</rscale>
<asrwt>0</asrwt>
<pdfrwt beam="1">  1       21 0.29590566E-01 0.41387113E+03</pdfrwt>
<pdfrwt beam="2">  1       21 0.31296745E-01 0.41387113E+03</pdfrwt>
<totfact> 0.10093092E+05</totfact>
</mgrwt>
</event>
<event>
 7    0  0.4709932E-002  0.4535835E+03  0.7546771E-02  0.1026659E+00
         21   -1    0    0  502  501  0.00000000000E+00  0.00000000000E+00  0.51054244806E+03  0.51054244806E+03  0.00000000000E+00 0. -1.
         21   -1    0    0  501  502 -0.00000000000E+00 -0.00000000000E+00 -0.10074481524E+03  0.10074481524E+03  0.00000000000E+00 0. -1.
      99926    2    1    2    0    0  0.00000000000E+00  0.00000000000E+00  0.40979763282E+03  0.61128726330E+03  0.45358352969E+03 0.  0.
      99925    2    3    3    0    0  0.57405720563E+02 -0.94948412994E+02  0.23963848485E+03  0.37272435415E+03  0.26303274106E+03 0.  0.
         25    1    4    4    0    0 -0.88415468862E+01 -0.42168906632E+02  0.13454188436E+03  0.18869397549E+03  0.12509000000E+03 0.  0.
         25    1    3    3    0    0 -0.57405720563E+02  0.94948412994E+02  0.17015914797E+03  0.23856290915E+03  0.12509000000E+03 0.  0.
         25    1    4    4    0    0  0.66247267449E+02 -0.52779506363E+02  0.10509660049E+03  0.18403037866E+03  0.12509000000E+03 0.  0.
<mgrwt>
<rscale>  2 0.45358353E+03</rscale>
<asrwt>0</asrwt>
<pdfrwt beam="1">  1       21 0.75079771E-01 0.45358353E+03</pdfrwt>
<pdfrwt beam="2">  1       21 0.14815414E-01 0.45358353E+03</pdfrwt>
<totfact> 0.58642178E+04</totfact>
</mgrwt>
</event>
<event>
 7    0  0.4709932E-002  0.4439075E+03  0.7546771E-02  0.1029555E+00
         21   -1    0    0  502  501  0.00000000000E+00  0.00000000000E+00  0.11157847548E+03  0.11157847548E+03  0.00000000000E+00 0. -1.
         21   -1    0    0  501  502 -0.00000000000E+00 -0.00000000000E+00 -0.44151402183E+03  0.44151402183E+03  0.00000000000E+00 0. -1.
      99926    2    1    2    0    0  0.00000000000E+00  0.17763568394E-14 -0.32993554634E+03  0.55309249731E+03  0.44390747441E+03 0.  0.
      99925    2    3    3    0    0 -0.45044968686E+02  0.10489878381E+02 -0.95825596948E+02  0.28365964249E+03  0.26294706880E+03 0.  0.
         25    1    4    4    0    0 -0.47135873222E+02 -0.12524755750E+02 -0.77822123616E+02  0.15518521539E+03  0.12509000000E+03 0.  0.
         25    1    3    3    0    0  0.45044968686E+02 -0.10489878381E+02 -0.23410994940E+03  0.26943285482E+03  0.12509000000E+03 0.  0.
         25    1    4    4    0    0  0.20909045361E+01  0.23014634132E+02 -0.18003473333E+02  0.12847442710E+03  0.12509000000E+03 0.  0.
<mgrwt>
<rscale>  2 0.44390747E+03</rscale>
<asrwt>0</asrwt>
<pdfrwt beam="1">  1       21 0.16408600E-01 0.44390747E+03</pdfrwt>
<pdfrwt beam="2">  1       21 0.64928531E-01 0.44390747E+03</pdfrwt>
<totfact> 0.67384043E+04</totfact>
</mgrwt>
</event>
<event>
 7    0  0.4709932E-002  0.4544875E+03  0.7546771E-02  0.1026392E+00
         21   -1    0    0  502  501  0.00000000000E+00  0.00000000000E+00  0.30678713736E+03  0.30678713736E+03  0.00000000000E+00 0.  1.
         21   -1    0    0  501  502 -0.00000000000E+00 -0.00000000000E+00 -0.16832429807E+03  0.16832429807E+03  0.00000000000E+00 0.  1.
      99926    2    1    2    0    0  0.14210854715E-13  0.00000000000E+00  0.13846283928E+03  0.47511143543E+03  0.45448753362E+03 0.  0.
      99925    2    3    3    0    0 -0.97371163920E+02  0.51778135686E+02  0.62222298160E+02  0.29174773371E+03  0.26283646406E+03 0.  0.
         25    1    3    3    0    0  0.97371163920E+02 -0.51778135686E+02  0.76240541122E+02  0.18336370172E+03  0.12509000000E+03 0.  0.
         25    1    4    4    0    0 -0.26257674339E+02  0.27612376865E+02  0.64536668445E+02  0.14582317543E+03  0.12509000000E+03 0.  0.
         25    1    4    4    0    0 -0.71113489581E+02  0.24165758822E+02 -0.23143702856E+01  0.14592455828E+03  0.12509000000E+03 0.  0.
<mgrwt>
<rscale>  2 0.45448753E+03</rscale>
<asrwt>0</asrwt>
<pdfrwt beam="1">  1       21 0.45115756E-01 0.45448753E+03</pdfrwt>
<pdfrwt beam="2">  1       21 0.24753573E-01 0.45448753E+03</pdfrwt>
<totfact> 0.67331126E+04</totfact>
</mgrwt>
</event>
<event>
 6    0  0.4709932E-002  0.4581957E+03  0.7546771E-02  0.1025306E+00
         21   -1    0    0  502  501  0.00000000000E+00  0.00000000000E+00  0.24429924772E+03  0.24429924772E+03  0.00000000000E+00 0.  1.
         21   -1    0    0  501  502 -0.00000000000E+00 -0.00000000000E+00 -0.21484233154E+03  0.21484233154E+03  0.00000000000E+00 0.  1.
      99926    2    1    2    0    0  0.00000000000E+00  0.00000000000E+00  0.29456916181E+02  0.45914157926E+03  0.45819567860E+03 0.  0.
         25    1    3    3    0    0 -0.59160941380E+02 -0.18332476114E+02  0.10699667367E+03  0.17587465122E+03  0.12509000000E+03 0.  0.
         25    1    3    3    0    0 -0.53492321501E+01  0.15121863117E+02 -0.65131643362E+02  0.14193986084E+03  0.12509000000E+03 0.  0.
         25    1    3    3    0    0  0.64510173531E+02  0.32106129972E+01 -0.12408114132E+02  0.14132706719E+03  0.12509000000E+03 0.  0.
<mgrwt>
<rscale>  2 0.45819568E+03</rscale>
<asrwt>0</asrwt>
<pdfrwt beam="1">  1       21 0.35926360E-01 0.45819568E+03</pdfrwt>
<pdfrwt beam="2">  1       21 0.31594461E-01 0.45819568E+03</pdfrwt>
<totfact> 0.66530846E+04</totfact>
</mgrwt>
</event>
<event>
 7    0  0.4709932E-002  0.4516982E+03  0.7546771E-02  0.1027217E+00
         21   -1    0    0  502  501  0.00000000000E+00  0.00000000000E+00  0.30756384276E+03  0.30756384276E+03  0.00000000000E+00 0. -1.
         21   -1    0    0  501  502 -0.00000000000E+00 -0.00000000000E+00 -0.16584463862E+03  0.16584463862E+03  0.00000000000E+00 0. -1.
      99926    2    1    2    0    0 -0.14210854715E-13  0.00000000000E+00  0.14171920414E+03  0.47340848139E+03  0.45169819285E+03 0.  0.
      99925    2    3    3    0    0 -0.70937916556E+02 -0.83708656039E+02  0.83740465185E+02  0.29720300652E+03  0.26320682832E+03 0.  0.
         25    1    4    4    0    0 -0.52494641585E+02 -0.37307674295E+02  0.41481471831E+01  0.14075604847E+03  0.12509000000E+03 0.  0.
         25    1    4    4    0    0 -0.18443274971E+02 -0.46400981744E+02  0.79592318002E+02  0.15644695805E+03  0.12509000000E+03 0.  0.
         25    1    3    3    0    0  0.70937916556E+02  0.83708656039E+02  0.57978738957E+02  0.17620547486E+03  0.12509000000E+03 0.  0.
<mgrwt>
<rscale>  2 0.45169819E+03</rscale>
<asrwt>0</asrwt>
<pdfrwt beam="1">  1       21 0.45229977E-01 0.45169819E+03</pdfrwt>
<pdfrwt beam="2">  1       21 0.24388917E-01 0.45169819E+03</pdfrwt>
<totfact> 0.68972791E+04</totfact>
</mgrwt>
</event>
<event>
 7    0  0.4709932E-002  0.4536001E+03  0.7546771E-02  0.1026654E+00
         21   -1    0    0  502  501  0.00000000000E+00  0.00000000000E+00  0.13391049883E+03  0.13391049883E+03  0.00000000000E+00 0. -1.
         21   -1    0    0  501  502 -0.00000000000E+00 -0.00000000000E+00 -0.38412415328E+03  0.38412415328E+03  0.00000000000E+00 0. -1.
      99926    2    1    2    0    0  0.00000000000E+00  0.13322676296E-14 -0.25021365445E+03  0.51803465211E+03  0.45360007486E+03 0.  0.
      99925    2    3    3    0    0  0.76370487183E+02 -0.42224142790E+00 -0.64284347685E+02  0.28128616782E+03  0.26297680743E+03 0.  0.
         25    1    4    4    0    0  0.16650245500E+02 -0.99418378854E+01 -0.65098777650E+02  0.14234264915E+03  0.12509000000E+03 0.  0.
         25    1    4    4    0    0  0.59720241683E+02  0.95195964575E+01  0.81442996495E+00  0.13894351867E+03  0.12509000000E+03 0.  0.
         25    1    3    3    0    0 -0.76370487183E+02  0.42224142790E+00 -0.18592930677E+03  0.23674848429E+03  0.12509000000E+03 0.  0.
<mgrwt>
<rscale>  2 0.45360007E+03</rscale>
<asrwt>0</asrwt>
<pdfrwt beam="1">  1       21 0.19692721E-01 0.45360007E+03</pdfrwt>
<pdfrwt beam="2">  1       21 0.56488845E-01 0.45360007E+03</pdfrwt>
<totfact> 0.64737434E+04</totfact>
</mgrwt>
</event>
<event>
 7    0  0.4709932E-002  0.4468089E+03  0.7546771E-02  0.1028678E+00
         21   -1    0    0  502  501  0.00000000000E+00  0.00000000000E+00  0.21909517457E+04  0.21909517457E+04  0.00000000000E+00 0.  1.
         21   -1    0    0  501  502 -0.00000000000E+00 -0.00000000000E+00 -0.22779846988E+02  0.22779846988E+02  0.00000000000E+00 0.  1.
      99926    2    1    2    0    0  0.00000000000E+00  0.71054273576E-14  0.21681718987E+04  0.22137315927E+04  0.44680888767E+03 0.  0.
      99925    2    3    3    0    0  0.47921579768E+02 -0.36462458906E+02  0.94669858581E+03  0.98439414880E+03  0.26299741272E+03 0.  0.
         25    1    4    4    0    0  0.18703339203E+02 -0.54183284757E+01  0.32459978174E+03  0.34841311627E+03  0.12509000000E+03 0.  0.
         25    1    4    4    0    0  0.29218240565E+02 -0.31044130430E+02  0.62209880407E+03  0.63598103254E+03  0.12509000000E+03 0.  0.
         25    1    3    3    0    0 -0.47921579768E+02  0.36462458906E+02  0.12214733129E+04  0.12293374439E+04  0.12509000000E+03 0.  0.
<mgrwt>
<rscale>  2 0.44680889E+03</rscale>
<asrwt>0</asrwt>
<pdfrwt beam="1">  1       21 0.32219864E+00 0.44680889E+03</pdfrwt>
<pdfrwt beam="2">  1       21 0.33499790E-02 0.44680889E+03</pdfrwt>
<totfact> 0.11220878E+04</totfact>
</mgrwt>
</event>
<event>
 7    0  0.4709932E-002  0.4501103E+03  0.7546771E-02  0.1027689E+00
         21   -1    0    0  502  501  0.00000000000E+00  0.00000000000E+00  0.40423163406E+02  0.40423163406E+02  0.00000000000E+00 0.  1.
         21   -1    0    0  501  502 -0.00000000000E+00 -0.00000000000E+00 -0.12529899513E+04  0.12529899513E+04  0.00000000000E+00 0.  1.
      99926    2    1    2    0    0  0.00000000000E+00  0.00000000000E+00 -0.12125667879E+04  0.12934131147E+04  0.45011028669E+03 0.  0.
      99925    2    3    3    0    0 -0.77311171891E+02 -0.75035130615E+02 -0.80529137277E+03  0.85394973740E+03  0.26292331738E+03 0.  0.
         25    1    3    3    0    0  0.77311171891E+02  0.75035130615E+02 -0.40727541508E+03  0.43946337726E+03  0.12509000000E+03 0.  0.
         25    1    4    4    0    0 -0.45315895890E+02 -0.41428819503E+02 -0.53028728436E+03  0.54829005969E+03  0.12509000000E+03 0.  0.
         25    1    4    4    0    0 -0.31995276000E+02 -0.33606311112E+02 -0.27500408841E+03  0.30565967770E+03  0.12509000000E+03 0.  0.
<mgrwt>
<rscale>  2 0.45011029E+03</rscale>
<asrwt>0</asrwt>
<pdfrwt beam="1">  1       21 0.59445822E-02 0.45011029E+03</pdfrwt>
<pdfrwt beam="2">  1       21 0.18426325E+00 0.45011029E+03</pdfrwt>
<totfact> 0.30448170E+04</totfact>
</mgrwt>
</event>
<event>
 7    0  0.4709932E-002  0.4541776E+03  0.7546771E-02  0.1026484E+00
         21   -1    0    0  502  501  0.00000000000E+00  0.00000000000E+00  0.46949057939E+03  0.46949057939E+03  0.00000000000E+00 0. -1.
         21   -1    0    0  501  502 -0.00000000000E+00 -0.00000000000E+00 -0.10984099367E+03  0.10984099367E+03  0.00000000000E+00 0. -1.
      99926    2    1    2    0    0  0.00000000000E+00  0.00000000000E+00  0.35964958573E+03  0.57933157306E+03  0.45417755011E+03 0.  0.
      99925    2    3    3    0    0  0.47571296891E+02  0.19740375149E+02  0.35424290884E+03  0.44394527038E+03  0.26257694859E+03 0.  0.
         25    1    4    4    0    0 -0.11527075791E+02 -0.99597995731E+01  0.16193481958E+03  0.20518885198E+03  0.12509000000E+03 0.  0.
         25    1    4    4    0    0  0.59098372681E+02  0.29700174722E+02  0.19230808926E+03  0.23875641840E+03  0.12509000000E+03 0.  0.
         25    1    3    3    0    0 -0.47571296891E+02 -0.19740375149E+02  0.54066768901E+01  0.13538630268E+03  0.12509000000E+03 0.  0.
<mgrwt>
<rscale>  2 0.45417755E+03</rscale>
<asrwt>0</asrwt>
<pdfrwt beam="1">  1       21 0.69042731E-01 0.45417755E+03</pdfrwt>
<pdfrwt beam="2">  1       21 0.16153087E-01 0.45417755E+03</pdfrwt>
<totfact> 0.60360362E+04</totfact>
</mgrwt>
</event>
<event>
 7    0  0.4709932E-002  0.4526938E+03  0.7546771E-02  0.1026922E+00
         21   -1    0    0  502  501  0.00000000000E+00  0.00000000000E+00  0.76820397856E+02  0.76820397856E+02  0.00000000000E+00 0.  1.
         21   -1    0    0  501  502 -0.00000000000E+00 -0.00000000000E+00 -0.66691816598E+03  0.66691816598E+03  0.00000000000E+00 0.  1.
      99926    2    1    2    0    0  0.00000000000E+00  0.00000000000E+00 -0.59009776813E+03  0.74373856384E+03  0.45269379871E+03 0.  0.
      99925    2    3    3    0    0 -0.41244001004E+02  0.82767177174E+02 -0.27138126487E+03  0.38908494299E+03  0.26303579357E+03 0.  0.
         25    1    4    4    0    0  0.19393867664E+02  0.31257765246E+02 -0.13402347778E+03  0.18698387815E+03  0.12509000000E+03 0.  0.
         25    1    3    3    0    0  0.41244001004E+02 -0.82767177174E+02 -0.31871650325E+03  0.35465362085E+03  0.12509000000E+03 0.  0.
         25    1    4    4    0    0 -0.60637868669E+02  0.51509411929E+02 -0.13735778709E+03  0.20210106484E+03  0.12509000000E+03 0.  0.
<mgrwt>
<rscale>  2 0.45269380E+03</rscale>
<asrwt>0</asrwt>
<pdfrwt beam="1">  1       21 0.11297117E-01 0.45269380E+03</pdfrwt>
<pdfrwt beam="2">  1       21 0.98076201E-01 0.45269380E+03</pdfrwt>
<totfact> 0.51519358E+04</totfact>
</mgrwt>
</event>
<event>
 7    0  0.4709932E-002  0.4544026E+03  0.7546771E-02  0.1026417E+00
         21   -1    0    0  502  501  0.00000000000E+00  0.00000000000E+00  0.15409839867E+04  0.15409839867E+04  0.00000000000E+00 0.  1.
         21   -1    0    0  501  502 -0.00000000000E+00 -0.00000000000E+00 -0.33498350632E+02  0.33498350632E+02  0.00000000000E+00 0.  1.
      99926    2    1    2    0    0  0.00000000000E+00  0.00000000000E+00  0.15074856361E+04  0.15744823373E+04  0.45440256119E+03 0.  0.
      99925    2    3    3    0    0  0.57653784122E+02 -0.34693362419E+02  0.12616945733E+04  0.12906014770E+04  0.26315658448E+03 0.  0.
         25    1    3    3    0    0 -0.57653784122E+02  0.34693362419E+02  0.24579106278E+03  0.28388086033E+03  0.12509000000E+03 0.  0.
         25    1    4    4    0    0  0.46199273262E+02 -0.35566068457E+02  0.81404641559E+03  0.82566239645E+03  0.12509000000E+03 0.  0.
         25    1    4    4    0    0  0.11454510860E+02  0.87270603772E+00  0.44764815771E+03  0.46493908057E+03  0.12509000000E+03 0.  0.
<mgrwt>
<rscale>  2 0.45440256E+03</rscale>
<asrwt>0</asrwt>
<pdfrwt beam="1">  1       21 0.22661525E+00 0.45440256E+03</pdfrwt>
<pdfrwt beam="2">  1       21 0.49262291E-02 0.45440256E+03</pdfrwt>
<totfact> 0.22113717E+04</totfact>
</mgrwt>
</event>
<event>
 7    0  0.4709932E-002  0.4399178E+03  0.7546771E-02  0.1030772E+00
         21   -1    0    0  502  501  0.00000000000E+00  0.00000000000E+00  0.56692412375E+02  0.56692412375E+02  0.00000000000E+00 0.  1.
         21   -1    0    0  501  502 -0.00000000000E+00 -0.00000000000E+00 -0.85341094403E+03  0.85341094403E+03  0.00000000000E+00 0.  1.
      99926    2    1    2    0    0  0.00000000000E+00  0.00000000000E+00 -0.79671853165E+03  0.91010335640E+03  0.43991783398E+03 0.  0.
      99925    2    3    3    0    0  0.74043578421E+02 -0.60611353754E+02 -0.46049427202E+03  0.53882118800E+03  0.26290133199E+03 0.  0.
         25    1    4    4    0    0 -0.25894709146E+01 -0.15300325280E+02 -0.19778639623E+03  0.23453735725E+03  0.12509000000E+03 0.  0.
         25    1    4    4    0    0  0.76633049335E+02 -0.45311028474E+02 -0.26270787579E+03  0.30428383075E+03  0.12509000000E+03 0.  0.
         25    1    3    3    0    0 -0.74043578421E+02  0.60611353754E+02 -0.33622425963E+03  0.37128216841E+03  0.12509000000E+03 0.  0.
<mgrwt>
<rscale>  2 0.43991783E+03</rscale>
<asrwt>0</asrwt>
<pdfrwt beam="1">  1       21 0.83371204E-02 0.43991783E+03</pdfrwt>
<pdfrwt beam="2">  1       21 0.12550160E+00 0.43991783E+03</pdfrwt>
<totfact> 0.48246019E+04</totfact>
</mgrwt>
</event>
<event>
 7    0  0.4709932E-002  0.4516511E+03  0.7546771E-02  0.1027231E+00
         21   -1    0    0  502  501  0.00000000000E+00  0.00000000000E+00  0.37491930477E+04  0.37491930477E+04  0.00000000000E+00 0.  1.
         21   -1    0    0  501  502 -0.00000000000E+00 -0.00000000000E+00 -0.13602175684E+02  0.13602175684E+02  0.00000000000E+00 0.  1.
      99926    2    1    2    0    0 -0.35527136788E-14 -0.14210854715E-13  0.37355908720E+04  0.37627952234E+04  0.45165111539E+03 0.  0.
      99925    2    3    3    0    0  0.20325326694E+02 -0.10809351529E+03  0.23581867222E+04  0.23753562060E+04  0.26301171386E+03 0.  0.
         25    1    3    3    0    0 -0.20325326694E+02  0.10809351529E+03  0.13774041498E+04  0.13874390173E+04  0.12509000000E+03 0.  0.
         25    1    4    4    0    0  0.32783073697E+02 -0.69940611657E+02  0.14977888498E+04  0.15049868325E+04  0.12509000000E+03 0.  0.
         25    1    4    4    0    0 -0.12457747003E+02 -0.38152903637E+02  0.86039787238E+03  0.87036937355E+03  0.12509000000E+03 0.  0.
<mgrwt>
<rscale>  2 0.45165112E+03</rscale>
<asrwt>0</asrwt>
<pdfrwt beam="1">  1       21 0.55135120E+00 0.45165112E+03</pdfrwt>
<pdfrwt beam="2">  1       21 0.20003226E-02 0.45165112E+03</pdfrwt>
<totfact> 0.77282450E+02</totfact>
</mgrwt>
</event>
<event>
 7    0  0.4709932E-002  0.4585922E+03  0.7546771E-02  0.1025190E+00
         21   -1    0    0  502  501  0.00000000000E+00  0.00000000000E+00  0.36144582057E+02  0.36144582057E+02  0.00000000000E+00 0. -1.
         21   -1    0    0  501  502 -0.00000000000E+00 -0.00000000000E+00 -0.14546216622E+04  0.14546216622E+04  0.00000000000E+00 0. -1.
      99926    2    1    2    0    0 -0.14210854715E-13  0.00000000000E+00 -0.14184770802E+04  0.14907662443E+04  0.45859215882E+03 0.  0.
      99925    2    3    3    0    0 -0.82075860395E+02  0.10224954005E+01 -0.11585425170E+04  0.11908479594E+04  0.26298404218E+03 0.  0.
         25    1    4    4    0    0 -0.14604699072E+02  0.70043630583E+00 -0.68325123759E+03  0.69476150556E+03  0.12509000000E+03 0.  0.
         25    1    3    3    0    0  0.82075860395E+02 -0.10224954005E+01 -0.25993456319E+03  0.29991828487E+03  0.12509000000E+03 0.  0.
         25    1    4    4    0    0 -0.67471161323E+02  0.32205909472E+00 -0.47529127939E+03  0.49608645385E+03  0.12509000000E+03 0.  0.
<mgrwt>
<rscale>  2 0.45859216E+03</rscale>
<asrwt>0</asrwt>
<pdfrwt beam="1">  1       21 0.53153802E-02 0.45859216E+03</pdfrwt>
<pdfrwt beam="2">  1       21 0.21391493E+00 0.45859216E+03</pdfrwt>
<totfact> 0.23348056E+04</totfact>
</mgrwt>
</event>
<event>
 7    0  0.4709932E-002  0.4428462E+03  0.7546771E-02  0.1029877E+00
         21   -1    0    0  502  501  0.00000000000E+00  0.00000000000E+00  0.31072199368E+03  0.31072199368E+03  0.00000000000E+00 0. -1.
         21   -1    0    0  501  502 -0.00000000000E+00 -0.00000000000E+00 -0.15778796673E+03  0.15778796673E+03  0.00000000000E+00 0. -1.
      99926    2    1    2    0    0  0.00000000000E+00  0.14210854715E-13  0.15293402695E+03  0.46850996042E+03  0.44284621079E+03 0.  0.
      99925    2    3    3    0    0  0.44853038463E+02 -0.89161656265E+02  0.11561992500E+03  0.30418879224E+03  0.26306132034E+03 0.  0.
         25    1    4    4    0    0 -0.85820211349E+01 -0.25053913689E+02  0.30715769957E+02  0.13150025210E+03  0.12509000000E+03 0.  0.
         25    1    4    4    0    0  0.53435059598E+02 -0.64107742577E+02  0.84904155040E+02  0.17268854014E+03  0.12509000000E+03 0.  0.
         25    1    3    3    0    0 -0.44853038463E+02  0.89161656265E+02  0.37314101953E+02  0.16432116818E+03  0.12509000000E+03 0.  0.
<mgrwt>
<rscale>  2 0.44284621E+03</rscale>
<asrwt>0</asrwt>
<pdfrwt beam="1">  1       21 0.45694411E-01 0.44284621E+03</pdfrwt>
<pdfrwt beam="2">  1       21 0.23204113E-01 0.44284621E+03</pdfrwt>
<totfact> 0.74474653E+04</totfact>
</mgrwt>
</event>
<event>
 7    0  0.4709932E-002  0.4567193E+03  0.7546771E-02  0.1025737E+00
         21   -1    0    0  502  501  0.00000000000E+00  0.00000000000E+00  0.93839959086E+02  0.93839959086E+02  0.00000000000E+00 0.  1.
         21   -1    0    0  501  502 -0.00000000000E+00 -0.00000000000E+00 -0.55571349852E+03  0.55571349852E+03  0.00000000000E+00 0.  1.
      99926    2    1    2    0    0  0.00000000000E+00  0.00000000000E+00 -0.46187353943E+03  0.64955345760E+03  0.45671930971E+03 0.  0.
      99925    2    3    3    0    0 -0.49360994094E+02 -0.94232774092E+02 -0.35204011599E+03  0.45200039522E+03  0.26278468480E+03 0.  0.
         25    1    4    4    0    0 -0.38322260640E+01 -0.98240159108E+01 -0.16715319145E+03  0.20904280604E+03  0.12509000000E+03 0.  0.
         25    1    4    4    0    0 -0.45528768030E+02 -0.84408758182E+02 -0.18488692454E+03  0.24295758918E+03  0.12509000000E+03 0.  0.
         25    1    3    3    0    0  0.49360994094E+02  0.94232774092E+02 -0.10983342344E+03  0.19755306238E+03  0.12509000000E+03 0.  0.
<mgrwt>
<rscale>  2 0.45671931E+03</rscale>
<asrwt>0</asrwt>
<pdfrwt beam="1">  1       21 0.13799993E-01 0.45671931E+03</pdfrwt>
<pdfrwt beam="2">  1       21 0.81722576E-01 0.45671931E+03</pdfrwt>
<totfact> 0.54977703E+04</totfact>
</mgrwt>
</event>
<event>
 7    0  0.4709932E-002  0.4544493E+03  0.7546771E-02  0.1026403E+00
         21   -1    0    0  502  501  0.00000000000E+00  0.00000000000E+00  0.38103014209E+02  0.38103014209E+02  0.00000000000E+00 0. -1.
         21   -1    0    0  501  502 -0.00000000000E+00 -0.00000000000E+00 -0.13550381455E+04  0.13550381455E+04  0.00000000000E+00 0. -1.
      99926    2    1    2    0    0  0.14210854715E-13 -0.35527136788E-14 -0.13169351313E+04  0.13931411598E+04  0.45444928304E+03 0.  0.
      99925    2    3    3    0    0 -0.10599516460E+03  0.22092980870E+02 -0.73364554415E+03  0.78684310983E+03  0.26298901178E+03 0.  0.
         25    1    4    4    0    0 -0.21725191532E+02  0.38497087216E+02 -0.33790363650E+03  0.36301568194E+03  0.12509000000E+03 0.  0.
         25    1    4    4    0    0 -0.84269973067E+02 -0.16404106345E+02 -0.39574190764E+03  0.42382742789E+03  0.12509000000E+03 0.  0.
         25    1    3    3    0    0  0.10599516460E+03 -0.22092980870E+02 -0.58328958719E+03  0.60629804992E+03  0.12509000000E+03 0.  0.
<mgrwt>
<rscale>  2 0.45444928E+03</rscale>
<asrwt>0</asrwt>
<pdfrwt beam="1">  1       21 0.56033853E-02 0.45444928E+03</pdfrwt>
<pdfrwt beam="2">  1       21 0.19927029E+00 0.45444928E+03</pdfrwt>
<totfact> 0.26629141E+04</totfact>
</mgrwt>
</event>
<event>
 7    0  0.4709932E-002  0.4557392E+03  0.7546771E-02  0.1026024E+00
         21   -1    0    0  502  501  0.00000000000E+00  0.00000000000E+00  0.24424499024E+03  0.24424499024E+03  0.00000000000E+00 0.  1.
         21   -1    0    0  501  502 -0.00000000000E+00 -0.00000000000E+00 -0.21259213802E+03  0.21259213802E+03  0.00000000000E+00 0.  1.
      99926    2    1    2    0    0  0.00000000000E+00 -0.27252505808E-14  0.31652852217E+02  0.45683712825E+03  0.45573924419E+03 0.  0.
      99925    2    3    3    0    0  0.60195415682E+02  0.59528736894E-02 -0.76976019649E+02  0.28056680175E+03  0.26299987554E+03 0.  0.
         25    1    4    4    0    0  0.58695522323E+02  0.18017775191E+02 -0.16074671319E+02  0.14027012412E+03  0.12509000000E+03 0.  0.
         25    1    3    3    0    0 -0.60195415682E+02 -0.59528736894E-02  0.10862887187E+03  0.17627032651E+03  0.12509000000E+03 0.  0.
         25    1    4    4    0    0  0.14998933586E+01 -0.18011822317E+02 -0.60901348330E+02  0.14029667762E+03  0.12509000000E+03 0.  0.
<mgrwt>
<rscale>  2 0.45573924E+03</rscale>
<asrwt>0</asrwt>
<pdfrwt beam="1">  1       21 0.35918381E-01 0.45573924E+03</pdfrwt>
<pdfrwt beam="2">  1       21 0.31263549E-01 0.45573924E+03</pdfrwt>
<totfact> 0.68009429E+04</totfact>
</mgrwt>
</event>
<event>
 7    0  0.4709932E-002  0.4548706E+03  0.7546771E-02  0.1026279E+00
         21   -1    0    0  502  501  0.00000000000E+00  0.00000000000E+00  0.97869334069E+02  0.97869334069E+02  0.00000000000E+00 0.  1.
         21   -1    0    0  501  502 -0.00000000000E+00 -0.00000000000E+00 -0.52852924342E+03  0.52852924342E+03  0.00000000000E+00 0.  1.
      99926    2    1    2    0    0 -0.14210854715E-13  0.00000000000E+00 -0.43065990935E+03  0.62639857749E+03  0.45487055341E+03 0.  0.
      99925    2    3    3    0    0  0.64934664786E+02  0.32647244139E+02 -0.15174487632E+03  0.31219568604E+03  0.26297772844E+03 0.  0.
         25    1    4    4    0    0  0.64809020300E+02 -0.80928040422E+01 -0.73104038638E+02  0.15892580393E+03  0.12509000000E+03 0.  0.
         25    1    4    4    0    0  0.12564448570E+00  0.40740048181E+02 -0.78640837680E+02  0.15326988211E+03  0.12509000000E+03 0.  0.
         25    1    3    3    0    0 -0.64934664786E+02 -0.32647244139E+02 -0.27891503303E+03  0.31420289144E+03  0.12509000000E+03 0.  0.
<mgrwt>
<rscale>  2 0.45487055E+03</rscale>
<asrwt>0</asrwt>
<pdfrwt beam="1">  1       21 0.14392549E-01 0.45487055E+03</pdfrwt>
<pdfrwt beam="2">  1       21 0.77724889E-01 0.45487055E+03</pdfrwt>
<totfact> 0.57140464E+04</totfact>
</mgrwt>
</event>
<event>
 7    0  0.4709932E-002  0.4580913E+03  0.7546771E-02  0.1025336E+00
         21   -1    0    0  502  501  0.00000000000E+00  0.00000000000E+00  0.73469349401E+03  0.73469349401E+03  0.00000000000E+00 0. -1.
         21   -1    0    0  501  502 -0.00000000000E+00 -0.00000000000E+00 -0.71406534925E+02  0.71406534925E+02  0.00000000000E+00 0. -1.
      99926    2    1    2    0    0  0.00000000000E+00  0.00000000000E+00  0.66328695909E+03  0.80610002894E+03  0.45809132993E+03 0.  0.
      99925    2    3    3    0    0  0.74979510917E+02  0.87126932265E+02  0.38829713321E+03  0.48286645732E+03  0.26300631659E+03 0.  0.
         25    1    4    4    0    0  0.75546520112E+02  0.28526324313E+02  0.20104211326E+03  0.25017287480E+03  0.12509000000E+03 0.  0.
         25    1    4    4    0    0 -0.56700919561E+00  0.58600607952E+02  0.18725501995E+03  0.23269358253E+03  0.12509000000E+03 0.  0.
         25    1    3    3    0    0 -0.74979510917E+02 -0.87126932265E+02  0.27498982588E+03  0.32323357161E+03  0.12509000000E+03 0.  0.
<mgrwt>
<rscale>  2 0.45809133E+03</rscale>
<asrwt>0</asrwt>
<pdfrwt beam="1">  1       21 0.10804316E+00 0.45809133E+03</pdfrwt>
<pdfrwt beam="2">  1       21 0.10500961E-01 0.45809133E+03</pdfrwt>
<totfact> 0.46336818E+04</totfact>
</mgrwt>
</event>
<event>
 7    0  0.4709932E-002  0.4586607E+03  0.7546771E-02  0.1025170E+00
         21   -1    0    0  502  501  0.00000000000E+00  0.00000000000E+00  0.29146112472E+03  0.29146112472E+03  0.00000000000E+00 0.  1.
         21   -1    0    0  501  502 -0.00000000000E+00 -0.00000000000E+00 -0.18044396289E+03  0.18044396289E+03  0.00000000000E+00 0.  1.
      99926    2    1    2    0    0  0.00000000000E+00  0.17763568394E-14  0.11101716182E+03  0.47190508761E+03  0.45866066050E+03 0.  0.
      99925    2    3    3    0    0 -0.95765476397E+02  0.13370508754E+02  0.25642864148E+01  0.28017785621E+03  0.26295105737E+03 0.  0.
         25    1    4    4    0    0 -0.76593062617E+02 -0.20096974473E+02  0.14383533681E+02  0.14874400749E+03  0.12509000000E+03 0.  0.
         25    1    3    3    0    0  0.95765476397E+02 -0.13370508754E+02  0.10845287541E+03  0.19172723139E+03  0.12509000000E+03 0.  0.
         25    1    4    4    0    0 -0.19172413780E+02  0.33467483227E+02 -0.11819247266E+02  0.13143384872E+03  0.12509000000E+03 0.  0.
<mgrwt>
<rscale>  2 0.45866066E+03</rscale>
<asrwt>0</asrwt>
<pdfrwt beam="1">  1       21 0.42861930E-01 0.45866066E+03</pdfrwt>
<pdfrwt beam="2">  1       21 0.26535877E-01 0.45866066E+03</pdfrwt>
<totfact> 0.65375171E+04</totfact>
</mgrwt>
</event>
<event>
 7    0  0.4709932E-002  0.4522122E+03  0.7546771E-02  0.1027064E+00
         21   -1    0    0  502  501  0.00000000000E+00  0.00000000000E+00  0.16805756985E+03  0.16805756985E+03  0.00000000000E+00 0. -1.
         21   -1    0    0  501  502 -0.00000000000E+00 -0.00000000000E+00 -0.30420515811E+03  0.30420515811E+03  0.00000000000E+00 0. -1.
      99926    2    1    2    0    0 -0.22204460493E-15  0.14210854715E-13 -0.13614758826E+03  0.47226272796E+03  0.45221224932E+03 0.  0.
      99925    2    3    3    0    0  0.10938735976E+01 -0.11040610965E+03 -0.87486486215E+02  0.29846365846E+03  0.26312727822E+03 0.  0.
         25    1    4    4    0    0  0.97821140883E+01 -0.58142456844E+02 -0.85532292052E+02  0.16260232510E+03  0.12509000000E+03 0.  0.
         25    1    4    4    0    0 -0.86882404907E+01 -0.52263652807E+02 -0.19541941635E+01  0.13586133336E+03  0.12509000000E+03 0.  0.
         25    1    3    3    0    0 -0.10938735976E+01  0.11040610965E+03 -0.48661102043E+02  0.17379906950E+03  0.12509000000E+03 0.  0.
<mgrwt>
<rscale>  2 0.45221225E+03</rscale>
<asrwt>0</asrwt>
<pdfrwt beam="1">  1       21 0.24714349E-01 0.45221225E+03</pdfrwt>
<pdfrwt beam="2">  1       21 0.44736052E-01 0.45221225E+03</pdfrwt>
<totfact> 0.68776717E+04</totfact>
</mgrwt>
</event>
<event>
 7    0  0.4709932E-002  0.4613600E+03  0.7546771E-02  0.1024388E+00
         21   -1    0    0  502  501  0.00000000000E+00  0.00000000000E+00  0.12986408624E+03  0.12986408624E+03  0.00000000000E+00 0. -1.
         21   -1    0    0  501  502 -0.00000000000E+00 -0.00000000000E+00 -0.40976116007E+03  0.40976116007E+03  0.00000000000E+00 0. -1.
      99926    2    1    2    0    0  0.00000000000E+00  0.11102230246E-15 -0.27989707383E+03  0.53962524631E+03  0.46135998365E+03 0.  0.
      99925    2    3    3    0    0 -0.74589397196E+02  0.91482242290E+00 -0.66531586876E+02  0.28129066830E+03  0.26293263956E+03 0.  0.
         25    1    4    4    0    0 -0.11906651210E+02 -0.24141124209E+02 -0.53034661028E+02  0.13850900906E+03  0.12509000000E+03 0.  0.
         25    1    3    3    0    0  0.74589397196E+02 -0.91482242290E+00 -0.21336548696E+03  0.25833457802E+03  0.12509000000E+03 0.  0.
         25    1    4    4    0    0 -0.62682745986E+02  0.25055946632E+02 -0.13496925848E+02  0.14278165923E+03  0.12509000000E+03 0.  0.
<mgrwt>
<rscale>  2 0.46135998E+03</rscale>
<asrwt>0</asrwt>
<pdfrwt beam="1">  1       21 0.19097660E-01 0.46135998E+03</pdfrwt>
<pdfrwt beam="2">  1       21 0.60258993E-01 0.46135998E+03</pdfrwt>
<totfact> 0.59503443E+04</totfact>
</mgrwt>
</event>
<event>
 7    0  0.4709932E-002  0.4509578E+03  0.7546771E-02  0.1027437E+00
         21   -1    0    0  502  501  0.00000000000E+00  0.00000000000E+00  0.14531120744E+03  0.14531120744E+03  0.00000000000E+00 0.  1.
         21   -1    0    0  501  502 -0.00000000000E+00 -0.00000000000E+00 -0.34987484971E+03  0.34987484971E+03  0.00000000000E+00 0.  1.
      99926    2    1    2    0    0  0.00000000000E+00  0.14210854715E-13 -0.20456364227E+03  0.49518605715E+03  0.45095781117E+03 0.  0.
      99925    2    3    3    0    0  0.55762096515E+02 -0.93697848313E+02 -0.12055544464E+03  0.30919255308E+03  0.26301658020E+03 0.  0.
         25    1    3    3    0    0 -0.55762096515E+02  0.93697848313E+02 -0.84008197629E+02  0.18599350407E+03  0.12509000000E+03 0.  0.
         25    1    4    4    0    0  0.48461768648E+01 -0.37596786856E+02 -0.92895010235E+02  0.16035583818E+03  0.12509000000E+03 0.  0.
         25    1    4    4    0    0  0.50915919650E+02 -0.56101061456E+02 -0.27660434404E+02  0.14883671490E+03  0.12509000000E+03 0.  0.
<mgrwt>
<rscale>  2 0.45095781E+03</rscale>
<asrwt>0</asrwt>
<pdfrwt beam="1">  1       21 0.21369296E-01 0.45095781E+03</pdfrwt>
<pdfrwt beam="2">  1       21 0.51452183E-01 0.45095781E+03</pdfrwt>
<totfact> 0.67758478E+04</totfact>
</mgrwt>
</event>
<event>
 7    0  0.4709932E-002  0.4511948E+03  0.7546771E-02  0.1027366E+00
         21   -1    0    0  502  501  0.00000000000E+00  0.00000000000E+00  0.13226866637E+03  0.13226866637E+03  0.00000000000E+00 0.  1.
         21   -1    0    0  501  502 -0.00000000000E+00 -0.00000000000E+00 -0.38477883888E+03  0.38477883888E+03  0.00000000000E+00 0.  1.
      99926    2    1    2    0    0  0.00000000000E+00  0.00000000000E+00 -0.25251017251E+03  0.51704750525E+03  0.45119478661E+03 0.  0.
      99925    2    3    3    0    0  0.69294889135E+02  0.77789724882E+02 -0.11954092667E+03  0.30685390069E+03  0.26270945979E+03 0.  0.
         25    1    3    3    0    0 -0.69294889135E+02 -0.77789724882E+02 -0.13296924585E+03  0.21019360456E+03  0.12509000000E+03 0.  0.
         25    1    4    4    0    0  0.29062708422E+02  0.11617177624E+02 -0.88771144255E+02  0.15654847169E+03  0.12509000000E+03 0.  0.
         25    1    4    4    0    0  0.40232180713E+02  0.66172547258E+02 -0.30769782413E+02  0.15030542899E+03  0.12509000000E+03 0.  0.
<mgrwt>
<rscale>  2 0.45119479E+03</rscale>
<asrwt>0</asrwt>
<pdfrwt beam="1">  1       21 0.19451275E-01 0.45119479E+03</pdfrwt>
<pdfrwt beam="2">  1       21 0.56585122E-01 0.45119479E+03</pdfrwt>
<totfact> 0.66060859E+04</totfact>
</mgrwt>
</event>
<event>
 7    0  0.4709932E-002  0.4559949E+03  0.7546771E-02  0.1025949E+00
         21   -1    0    0  502  501  0.00000000000E+00  0.00000000000E+00  0.39088207619E+03  0.39088207619E+03  0.00000000000E+00 0. -1.
         21   -1    0    0  501  502 -0.00000000000E+00 -0.00000000000E+00 -0.13298855385E+03  0.13298855385E+03  0.00000000000E+00 0. -1.
      99926    2    1    2    0    0  0.00000000000E+00 -0.35527136788E-14  0.25789352234E+03  0.52387063004E+03  0.45599492119E+03 0.  0.
      99925    2    3    3    0    0 -0.59008371693E+02  0.27786600439E+02  0.54798589344E+02  0.27658710247E+03  0.26314151472E+03 0.  0.
         25    1    4    4    0    0 -0.22668291049E+02 -0.19843073767E+02  0.35196690490E+01  0.12871478224E+03  0.12509000000E+03 0.  0.
         25    1    4    4    0    0 -0.36340080644E+02  0.47629674206E+02  0.51278920295E+02  0.14787232024E+03  0.12509000000E+03 0.  0.
         25    1    3    3    0    0  0.59008371693E+02 -0.27786600439E+02  0.20309493300E+03  0.24728352756E+03  0.12509000000E+03 0.  0.
<mgrwt>
<rscale>  2 0.45599492E+03</rscale>
<asrwt>0</asrwt>
<pdfrwt beam="1">  1       21 0.57482658E-01 0.45599492E+03</pdfrwt>
<pdfrwt beam="2">  1       21 0.19557140E-01 0.45599492E+03</pdfrwt>
<totfact> 0.63123960E+04</totfact>
</mgrwt>
</event>
<event>
 7    0  0.4709932E-002  0.4550006E+03  0.7546771E-02  0.1026241E+00
         21   -1    0    0  502  501  0.00000000000E+00  0.00000000000E+00  0.27032169665E+02  0.27032169665E+02  0.00000000000E+00 0. -1.
         21   -1    0    0  501  502 -0.00000000000E+00 -0.00000000000E+00 -0.19146219456E+04  0.19146219456E+04  0.00000000000E+00 0. -1.
      99926    2    1    2    0    0 -0.14210854715E-13  0.00000000000E+00 -0.18875897759E+04  0.19416541152E+04  0.45500059463E+03 0.  0.
      99925    2    3    3    0    0 -0.10910577424E+03 -0.29748965499E+02 -0.12006442099E+04  0.12343134691E+04  0.26304780994E+03 0.  0.
         25    1    3    3    0    0  0.10910577424E+03  0.29748965499E+02 -0.68694556600E+03  0.70734064613E+03  0.12509000000E+03 0.  0.
         25    1    4    4    0    0 -0.42448145315E+02  0.46197682736E+01 -0.71984921198E+03  0.73188358595E+03  0.12509000000E+03 0.  0.
         25    1    4    4    0    0 -0.66657628925E+02 -0.34368733773E+02 -0.48079499793E+03  0.50242988316E+03  0.12509000000E+03 0.  0.
<mgrwt>
<rscale>  2 0.45500059E+03</rscale>
<asrwt>0</asrwt>
<pdfrwt beam="1">  1       21 0.39753179E-02 0.45500059E+03</pdfrwt>
<pdfrwt beam="2">  1       21 0.28156213E+00 0.45500059E+03</pdfrwt>
<totfact> 0.14685901E+04</totfact>
</mgrwt>
</event>
<event>
 7    0  0.4709932E-002  0.4414768E+03  0.7546771E-02  0.1030295E+00
         21   -1    0    0  502  501  0.00000000000E+00  0.00000000000E+00  0.32122487822E+03  0.32122487822E+03  0.00000000000E+00 0.  1.
         21   -1    0    0  501  502 -0.00000000000E+00 -0.00000000000E+00 -0.15168635561E+03  0.15168635561E+03  0.00000000000E+00 0.  1.
      99926    2    1    2    0    0 -0.88817841970E-15  0.00000000000E+00  0.16953852260E+03  0.47291123383E+03  0.44147675413E+03 0.  0.
      99925    2    3    3    0    0 -0.61136182067E+01 -0.77216651420E+02  0.40279796799E+02  0.27706661716E+03  0.26295182207E+03 0.  0.
         25    1    4    4    0    0  0.18363259729E+02 -0.23234376858E+02  0.50853328499E+02  0.13824114690E+03  0.12509000000E+03 0.  0.
         25    1    4    4    0    0 -0.24476877936E+02 -0.53982274562E+02 -0.10573531700E+02  0.13882547026E+03  0.12509000000E+03 0.  0.
         25    1    3    3    0    0  0.61136182067E+01  0.77216651420E+02  0.12925872580E+03  0.19584461668E+03  0.12509000000E+03 0.  0.
<mgrwt>
<rscale>  2 0.44147675E+03</rscale>
<asrwt>0</asrwt>
<pdfrwt beam="1">  1       21 0.47238953E-01 0.44147675E+03</pdfrwt>
<pdfrwt beam="2">  1       21 0.22306817E-01 0.44147675E+03</pdfrwt>
<totfact> 0.74947377E+04</totfact>
</mgrwt>
</event>
<event>
 7    0  0.4709932E-002  0.4320347E+03  0.7546771E-02  0.1033219E+00
         21   -1    0    0  502  501  0.00000000000E+00  0.00000000000E+00  0.49991060970E+02  0.49991060970E+02  0.00000000000E+00 0.  1.
         21   -1    0    0  501  502 -0.00000000000E+00 -0.00000000000E+00 -0.93343692976E+03  0.93343692976E+03  0.00000000000E+00 0.  1.
      99926    2    1    2    0    0  0.00000000000E+00  0.00000000000E+00 -0.88344586879E+03  0.98342799073E+03  0.43203473225E+03 0.  0.
      99925    2    3    3    0    0  0.27679410298E+02  0.68407741534E+02 -0.68507046163E+03  0.73757014741E+03  0.26313953731E+03 0.  0.
         25    1    3    3    0    0 -0.27679410298E+02 -0.68407741534E+02 -0.19837540716E+03  0.24585784332E+03  0.12509000000E+03 0.  0.
         25    1    4    4    0    0 -0.37495572846E+01  0.17879285712E+01 -0.26369612020E+03  0.29189108890E+03  0.12509000000E+03 0.  0.
         25    1    4    4    0    0  0.31428967583E+02  0.66619812962E+02 -0.42137434143E+03  0.44567905852E+03  0.12509000000E+03 0.  0.
<mgrwt>
<rscale>  2 0.43203473E+03</rscale>
<asrwt>0</asrwt>
<pdfrwt beam="1">  1       21 0.73516270E-02 0.43203473E+03</pdfrwt>
<pdfrwt beam="2">  1       21 0.13727013E+00 0.43203473E+03</pdfrwt>
<totfact> 0.47840548E+04</totfact>
</mgrwt>
</event>
<event>
 7    0  0.4709932E-002  0.4573249E+03  0.7546771E-02  0.1025560E+00
         21   -1    0    0  502  501  0.00000000000E+00  0.00000000000E+00  0.52350239484E+02  0.52350239484E+02  0.00000000000E+00 0. -1.
         21   -1    0    0  501  502 -0.00000000000E+00 -0.00000000000E+00 -0.99878282073E+03  0.99878282073E+03  0.00000000000E+00 0. -1.
      99926    2    1    2    0    0  0.35527136788E-14  0.14210854715E-13 -0.94643258125E+03  0.10511330602E+04  0.45732491670E+03 0.  0.
      99925    2    3    3    0    0  0.31185030210E+02  0.10603861403E+03 -0.67052466009E+03  0.72865921192E+03  0.26291487892E+03 0.  0.
         25    1    4    4    0    0  0.11974965093E+02  0.56200852425E+02 -0.43965792865E+03  0.46070439322E+03  0.12509000000E+03 0.  0.
         25    1    3    3    0    0 -0.31185030210E+02 -0.10603861403E+03 -0.27590792116E+03  0.32247384829E+03  0.12509000000E+03 0.  0.
         25    1    4    4    0    0  0.19210065117E+02  0.49837761607E+02 -0.23086673143E+03  0.26795481871E+03  0.12509000000E+03 0.  0.
<mgrwt>
<rscale>  2 0.45732492E+03</rscale>
<asrwt>0</asrwt>
<pdfrwt beam="1">  1       21 0.76985650E-02 0.45732492E+03</pdfrwt>
<pdfrwt beam="2">  1       21 0.14687982E+00 0.45732492E+03</pdfrwt>
<totfact> 0.36567747E+04</totfact>
</mgrwt>
</event>
<event>
 7    0  0.4709932E-002  0.4560219E+03  0.7546771E-02  0.1025941E+00
         21   -1    0    0  502  501  0.00000000000E+00  0.00000000000E+00  0.49970070342E+03  0.49970070342E+03  0.00000000000E+00 0. -1.
         21   -1    0    0  501  502 -0.00000000000E+00 -0.00000000000E+00 -0.10404027608E+03  0.10404027608E+03  0.00000000000E+00 0. -1.
      99926    2    1    2    0    0  0.00000000000E+00  0.00000000000E+00  0.39566042734E+03  0.60374097949E+03  0.45602192552E+03 0.  0.
      99925    2    3    3    0    0 -0.43403135652E+02 -0.10320327351E+03  0.21986626306E+03  0.36066518032E+03  0.26306548770E+03 0.  0.
         25    1    4    4    0    0 -0.42709565192E+02 -0.79808212638E+02  0.15099280608E+03  0.21596248135E+03  0.12509000000E+03 0.  0.
         25    1    3    3    0    0  0.43403135652E+02  0.10320327351E+03  0.17579416428E+03  0.24307579917E+03  0.12509000000E+03 0.  0.
         25    1    4    4    0    0 -0.69357045986E+00 -0.23395060873E+02  0.68873456986E+02  0.14470269897E+03  0.12509000000E+03 0.  0.
<mgrwt>
<rscale>  2 0.45602193E+03</rscale>
<asrwt>0</asrwt>
<pdfrwt beam="1">  1       21 0.73485397E-01 0.45602193E+03</pdfrwt>
<pdfrwt beam="2">  1       21 0.15300041E-01 0.45602193E+03</pdfrwt>
<totfact> 0.57979068E+04</totfact>
</mgrwt>
</event>
<event>
 7    0  0.4709932E-002  0.4513067E+03  0.7546771E-02  0.1027333E+00
         21   -1    0    0  502  501  0.00000000000E+00  0.00000000000E+00  0.23936085301E+03  0.23936085301E+03  0.00000000000E+00 0. -1.
         21   -1    0    0  501  502 -0.00000000000E+00 -0.00000000000E+00 -0.21273082757E+03  0.21273082757E+03  0.00000000000E+00 0. -1.
      99926    2    1    2    0    0  0.00000000000E+00  0.00000000000E+00  0.26630025434E+02  0.45209168058E+03  0.45130669106E+03 0.  0.
      99925    2    3    3    0    0 -0.62856727368E+02  0.17831054460E+02  0.10497342110E+03  0.29067882352E+03  0.26307003749E+03 0.  0.
         25    1    4    4    0    0 -0.16514789838E+02 -0.52169167264E+01  0.88717541828E+02  0.15433167151E+03  0.12509000000E+03 0.  0.
         25    1    4    4    0    0 -0.46341937530E+02  0.23047971186E+02  0.16255879273E+02  0.13634715201E+03  0.12509000000E+03 0.  0.
         25    1    3    3    0    0  0.62856727368E+02 -0.17831054460E+02 -0.78343395668E+02  0.16141285706E+03  0.12509000000E+03 0.  0.
<mgrwt>
<rscale>  2 0.45130669E+03</rscale>
<asrwt>0</asrwt>
<pdfrwt beam="1">  1       21 0.35200125E-01 0.45130669E+03</pdfrwt>
<pdfrwt beam="2">  1       21 0.31283945E-01 0.45130669E+03</pdfrwt>
<totfact> 0.70823563E+04</totfact>
</mgrwt>
</event>
<event>
 7    0  0.4709932E-002  0.4535841E+03  0.7546771E-02  0.1026659E+00
         21   -1    0    0  502  501  0.00000000000E+00  0.00000000000E+00  0.52328781489E+02  0.52328781489E+02  0.00000000000E+00 0. -1.
         21   -1    0    0  501  502 -0.00000000000E+00 -0.00000000000E+00 -0.98291277203E+03  0.98291277203E+03  0.00000000000E+00 0. -1.
      99926    2    1    2    0    0 -0.37747582837E-14  0.00000000000E+00 -0.93058399054E+03  0.10352415535E+04  0.45358407234E+03 0.  0.
      99925    2    3    3    0    0 -0.68323534009E+00 -0.74648192206E+02 -0.77650981685E+03  0.82320575817E+03  0.26292091057E+03 0.  0.
         25    1    4    4    0    0  0.32354155259E+02 -0.38802311588E+02 -0.46065185255E+03  0.48000005011E+03  0.12509000000E+03 0.  0.
         25    1    4    4    0    0 -0.33037390599E+02 -0.35845880618E+02 -0.31585796430E+03  0.34320570806E+03  0.12509000000E+03 0.  0.
         25    1    3    3    0    0  0.68323534009E+00  0.74648192206E+02 -0.15407417369E+03  0.21203579535E+03  0.12509000000E+03 0.  0.
<mgrwt>
<rscale>  2 0.45358407E+03</rscale>
<asrwt>0</asrwt>
<pdfrwt beam="1">  1       21 0.76954092E-02 0.45358407E+03</pdfrwt>
<pdfrwt beam="2">  1       21 0.14454599E+00 0.45358407E+03</pdfrwt>
<totfact> 0.38244619E+04</totfact>
</mgrwt>
</event>
<event>
 7    0  0.4709932E-002  0.4585544E+03  0.7546771E-02  0.1025201E+00
         21   -1    0    0  502  501  0.00000000000E+00  0.00000000000E+00  0.42455006993E+02  0.42455006993E+02  0.00000000000E+00 0. -1.
         21   -1    0    0  501  502 -0.00000000000E+00 -0.00000000000E+00 -0.12382059492E+04  0.12382059492E+04  0.00000000000E+00 0. -1.
      99926    2    1    2    0    0  0.00000000000E+00  0.00000000000E+00 -0.11957509423E+04  0.12806609562E+04  0.45855443399E+03 0.  0.
      99925    2    3    3    0    0  0.45459614169E+01 -0.11624093894E+03 -0.76272711333E+03  0.81516147593E+03  0.26306455630E+03 0.  0.
         25    1    3    3    0    0 -0.45459614169E+01  0.11624093894E+03 -0.43302382892E+03  0.46549948030E+03  0.12509000000E+03 0.  0.
         25    1    4    4    0    0  0.31650652613E+01 -0.24983355436E+02 -0.26914689887E+03  0.29786195957E+03  0.12509000000E+03 0.  0.
         25    1    4    4    0    0  0.13808961556E+01 -0.91257583508E+02 -0.49358021446E+03  0.51729951637E+03  0.12509000000E+03 0.  0.
<mgrwt>
<rscale>  2 0.45855443E+03</rscale>
<asrwt>0</asrwt>
<pdfrwt beam="1">  1       21 0.62433848E-02 0.45855443E+03</pdfrwt>
<pdfrwt beam="2">  1       21 0.18208907E+00 0.45855443E+03</pdfrwt>
<totfact> 0.28874630E+04</totfact>
</mgrwt>
</event>
<event>
 7    0  0.4709932E-002  0.4532867E+03  0.7546771E-02  0.1026746E+00
         21   -1    0    0  502  501  0.00000000000E+00  0.00000000000E+00  0.83544176685E+02  0.83544176685E+02  0.00000000000E+00 0. -1.
         21   -1    0    0  501  502 -0.00000000000E+00 -0.00000000000E+00 -0.61485075345E+03  0.61485075345E+03  0.00000000000E+00 0. -1.
      99926    2    1    2    0    0  0.14210854715E-13 -0.14210854715E-13 -0.53130657677E+03  0.69839493014E+03  0.45328666418E+03 0.  0.
      99925    2    3    3    0    0 -0.75521769316E+02  0.82133581340E+02 -0.33627366033E+03  0.44122803993E+03  0.26296909660E+03 0.  0.
         25    1    4    4    0    0 -0.78406622057E+02  0.42589482306E+02 -0.16500258606E+03  0.22546579317E+03  0.12509000000E+03 0.  0.
         25    1    3    3    0    0  0.75521769316E+02 -0.82133581340E+02 -0.19503291644E+03  0.25716689021E+03  0.12509000000E+03 0.  0.
         25    1    4    4    0    0  0.28848527401E+01  0.39544099033E+02 -0.17127107427E+03  0.21576224676E+03  0.12509000000E+03 0.  0.
<mgrwt>
<rscale>  2 0.45328666E+03</rscale>
<asrwt>0</asrwt>
<pdfrwt beam="1">  1       21 0.12285908E-01 0.45328666E+03</pdfrwt>
<pdfrwt beam="2">  1       21 0.90419230E-01 0.45328666E+03</pdfrwt>
<totfact> 0.53710781E+04</totfact>
</mgrwt>
</event>
<event>
 7    0  0.4709932E-002  0.4513189E+03  0.7546771E-02  0.1027329E+00
         21   -1    0    0  502  501  0.00000000000E+00  0.00000000000E+00  0.77320511674E+03  0.77320511674E+03  0.00000000000E+00 0.  1.
         21   -1    0    0  501  502 -0.00000000000E+00 -0.00000000000E+00 -0.65858572697E+02  0.65858572697E+02  0.00000000000E+00 0.  1.
      99926    2    1    2    0    0  0.00000000000E+00 -0.71054273576E-14  0.70734654404E+03  0.83906368943E+03  0.45131889121E+03 0.  0.
      99925    2    3    3    0    0  0.88271326449E+02 -0.47845104947E+02  0.52883900402E+03  0.59907737507E+03  0.26294871744E+03 0.  0.
         25    1    3    3    0    0 -0.88271326449E+02  0.47845104947E+02  0.17850754002E+03  0.23998631437E+03  0.12509000000E+03 0.  0.
         25    1    4    4    0    0  0.42111332982E+02 -0.58419530531E+02  0.32044644801E+03  0.35145361010E+03  0.12509000000E+03 0.  0.
         25    1    4    4    0    0  0.46159993467E+02  0.10574425584E+02  0.20839255601E+03  0.24762376496E+03  0.12509000000E+03 0.  0.
<mgrwt>
<rscale>  2 0.45131889E+03</rscale>
<asrwt>0</asrwt>
<pdfrwt beam="1">  1       21 0.11370663E+00 0.45131889E+03</pdfrwt>
<pdfrwt beam="2">  1       21 0.96850847E-02 0.45131889E+03</pdfrwt>
<totfact> 0.47283445E+04</totfact>
</mgrwt>
</event>
<event>
 7    0  0.4709932E-002  0.4549434E+03  0.7546771E-02  0.1026258E+00
         21   -1    0    0  502  501  0.00000000000E+00  0.00000000000E+00  0.24026391033E+03  0.24026391033E+03  0.00000000000E+00 0. -1.
         21   -1    0    0  501  502 -0.00000000000E+00 -0.00000000000E+00 -0.21536055970E+03  0.21536055970E+03  0.00000000000E+00 0. -1.
      99926    2    1    2    0    0 -0.17763568394E-14  0.00000000000E+00  0.24903350634E+02  0.45562447003E+03  0.45494338200E+03 0.  0.
      99925    2    3    3    0    0  0.14705758916E+02  0.10766527546E+03  0.46731900753E+02  0.28849558389E+03  0.26313069090E+03 0.  0.
         25    1    4    4    0    0 -0.17965398761E+02  0.38620163017E+02  0.51566240786E+02  0.14184800962E+03  0.12509000000E+03 0.  0.
         25    1    3    3    0    0 -0.14705758916E+02 -0.10766527546E+03 -0.21828550119E+02  0.16712888615E+03  0.12509000000E+03 0.  0.
         25    1    4    4    0    0  0.32671157677E+02  0.69045112438E+02 -0.48343400330E+01  0.14664757427E+03  0.12509000000E+03 0.  0.
<mgrwt>
<rscale>  2 0.45494338E+03</rscale>
<asrwt>0</asrwt>
<pdfrwt beam="1">  1       21 0.35332928E-01 0.45494338E+03</pdfrwt>
<pdfrwt beam="2">  1       21 0.31670671E-01 0.45494338E+03</pdfrwt>
<totfact> 0.68531053E+04</totfact>
</mgrwt>
</event>
<event>
 7    0  0.4709932E-002  0.4525265E+03  0.7546771E-02  0.1026971E+00
         21   -1    0    0  502  501  0.00000000000E+00  0.00000000000E+00  0.91060521207E+03  0.91060521207E+03  0.00000000000E+00 0. -1.
         21   -1    0    0  501  502 -0.00000000000E+00 -0.00000000000E+00 -0.56220912005E+02  0.56220912005E+02  0.00000000000E+00 0. -1.
      99926    2    1    2    0    0  0.00000000000E+00  0.00000000000E+00  0.85438430006E+03  0.96682612407E+03  0.45252648762E+03 0.  0.
      99925    2    3    3    0    0  0.80828394563E+02 -0.38005807694E+02  0.39858107097E+03  0.48580454188E+03  0.26298576385E+03 0.  0.
         25    1    4    4    0    0  0.14694713572E+01 -0.12525231416E+01  0.17828402214E+03  0.21779905603E+03  0.12509000000E+03 0.  0.
         25    1    3    3    0    0 -0.80828394563E+02  0.38005807694E+02  0.45580322909E+03  0.48102158220E+03  0.12509000000E+03 0.  0.
         25    1    4    4    0    0  0.79358923206E+02 -0.36753284553E+02  0.22029704884E+03  0.26800548585E+03  0.12509000000E+03 0.  0.
<mgrwt>
<rscale>  2 0.45252649E+03</rscale>
<asrwt>0</asrwt>
<pdfrwt beam="1">  1       21 0.13391252E+00 0.45252649E+03</pdfrwt>
<pdfrwt beam="2">  1       21 0.82677817E-02 0.45252649E+03</pdfrwt>
<totfact> 0.41259029E+04</totfact>
</mgrwt>
</event>
<event>
 6    0  0.4709932E-002  0.4724307E+03  0.7546771E-02  0.1021236E+00
         21   -1    0    0  502  501  0.00000000000E+00  0.00000000000E+00  0.44470156781E+03  0.44470156781E+03  0.00000000000E+00 0.  1.
         21   -1    0    0  501  502 -0.00000000000E+00 -0.00000000000E+00 -0.12547220822E+03  0.12547220822E+03  0.00000000000E+00 0.  1.
      99926    2    1    2    0    0  0.00000000000E+00  0.71054273576E-14  0.31922935959E+03  0.57017377603E+03  0.47243068364E+03 0.  0.
         25    1    3    3    0    0 -0.36601564180E+02 -0.20072103714E+02  0.95598869043E+02  0.16287791658E+03  0.12509000000E+03 0.  0.
         25    1    3    3    0    0  0.11258509977E+03 -0.45708898473E+02  0.79699005651E+02  0.19173979163E+03  0.12509000000E+03 0.  0.
         25    1    3    3    0    0 -0.75983535594E+02  0.65781002187E+02  0.14393148490E+03  0.21555606782E+03  0.12509000000E+03 0.  0.
<mgrwt>
<rscale>  2 0.47243068E+03</rscale>
<asrwt>0</asrwt>
<pdfrwt beam="1">  1       21 0.65397289E-01 0.47243068E+03</pdfrwt>
<pdfrwt beam="2">  1       21 0.18451795E-01 0.47243068E+03</pdfrwt>
<totfact> 0.52877957E+04</totfact>
</mgrwt>
</event>
<event>
 7    0  0.4709932E-002  0.4520537E+03  0.7546771E-02  0.1027111E+00
         21   -1    0    0  502  501  0.00000000000E+00  0.00000000000E+00  0.42038057614E+03  0.42038057614E+03  0.00000000000E+00 0. -1.
         21   -1    0    0  501  502 -0.00000000000E+00 -0.00000000000E+00 -0.12152830154E+03  0.12152830154E+03  0.00000000000E+00 0. -1.
      99926    2    1    2    0    0  0.00000000000E+00  0.00000000000E+00  0.29885227459E+03  0.54190887768E+03  0.45205370221E+03 0.  0.
      99925    2    3    3    0    0  0.56818957453E+02 -0.67525472110E+02  0.10915152139E+03  0.29814266350E+03  0.26303404697E+03 0.  0.
         25    1    3    3    0    0 -0.56818957453E+02  0.67525472110E+02  0.18970075321E+03  0.24376621418E+03  0.12509000000E+03 0.  0.
         25    1    4    4    0    0  0.37383953929E+00 -0.37808659770E+02  0.21017477675E+02  0.13235889459E+03  0.12509000000E+03 0.  0.
         25    1    4    4    0    0  0.56445117914E+02 -0.29716812341E+02  0.88134043711E+02  0.16578376891E+03  0.12509000000E+03 0.  0.
<mgrwt>
<rscale>  2 0.45205370E+03</rscale>
<asrwt>0</asrwt>
<pdfrwt beam="1">  1       21 0.61820673E-01 0.45205370E+03</pdfrwt>
<pdfrwt beam="2">  1       21 0.17871809E-01 0.45205370E+03</pdfrwt>
<totfact> 0.63880802E+04</totfact>
</mgrwt>
</event>
<event>
 7    0  0.4709932E-002  0.4500080E+03  0.7546771E-02  0.1027720E+00
         21   -1    0    0  502  501  0.00000000000E+00  0.00000000000E+00  0.10662791952E+04  0.10662791952E+04  0.00000000000E+00 0.  1.
         21   -1    0    0  501  502 -0.00000000000E+00 -0.00000000000E+00 -0.47479870718E+02  0.47479870718E+02  0.00000000000E+00 0.  1.
      99926    2    1    2    0    0  0.00000000000E+00  0.00000000000E+00  0.10187993245E+04  0.11137590659E+04  0.45000799254E+03 0.  0.
      99925    2    3    3    0    0  0.93209096679E+02 -0.54972742625E+02  0.65920290149E+03  0.71794719942E+03  0.26303949833E+03 0.  0.
         25    1    4    4    0    0  0.81738431852E+02 -0.39485047303E+02  0.30735145988E+03  0.34402422617E+03  0.12509000000E+03 0.  0.
         25    1    3    3    0    0 -0.93209096679E+02  0.54972742625E+02  0.35959642299E+03  0.39581186650E+03  0.12509000000E+03 0.  0.
         25    1    4    4    0    0  0.11470664827E+02 -0.15487695323E+02  0.35185144161E+03  0.37392297325E+03  0.12509000000E+03 0.  0.
<mgrwt>
<rscale>  2 0.45000799E+03</rscale>
<asrwt>0</asrwt>
<pdfrwt beam="1">  1       21 0.15680575E+00 0.45000799E+03</pdfrwt>
<pdfrwt beam="2">  1       21 0.69823346E-02 0.45000799E+03</pdfrwt>
<totfact> 0.36412325E+04</totfact>
</mgrwt>
</event>
<event>
 7    0  0.4709932E-002  0.4619899E+03  0.7546771E-02  0.1024206E+00
         21   -1    0    0  502  501  0.00000000000E+00  0.00000000000E+00  0.15766452846E+03  0.15766452846E+03  0.00000000000E+00 0.  1.
         21   -1    0    0  501  502 -0.00000000000E+00 -0.00000000000E+00 -0.33843162141E+03  0.33843162141E+03  0.00000000000E+00 0.  1.
      99926    2    1    2    0    0  0.00000000000E+00  0.00000000000E+00 -0.18076709296E+03  0.49609614987E+03  0.46198987870E+03 0.  0.
      99925    2    3    3    0    0 -0.58962856956E+02  0.78562974673E+02 -0.39903040090E+02  0.28363686206E+03  0.26307576365E+03 0.  0.
         25    1    4    4    0    0 -0.28607323749E+02  0.32787579453E+02 -0.60267743215E+02  0.14550983922E+03  0.12509000000E+03 0.  0.
         25    1    3    3    0    0  0.58962856956E+02 -0.78562974673E+02 -0.14086405287E+03  0.21245928782E+03  0.12509000000E+03 0.  0.
         25    1    4    4    0    0 -0.30355533207E+02  0.45775395220E+02  0.20364703125E+02  0.13812702283E+03  0.12509000000E+03 0.  0.
<mgrwt>
<rscale>  2 0.46198988E+03</rscale>
<asrwt>0</asrwt>
<pdfrwt beam="1">  1       21 0.23185960E-01 0.46198988E+03</pdfrwt>
<pdfrwt beam="2">  1       21 0.49769355E-01 0.46198988E+03</pdfrwt>
<totfact> 0.62031540E+04</totfact>
</mgrwt>
</event>
<event>
 7    0  0.4709932E-002  0.3946107E+03  0.7546771E-02  0.1045662E+00
         21   -1    0    0  502  501  0.00000000000E+00  0.00000000000E+00  0.14405827218E+03  0.14405827218E+03  0.00000000000E+00 0. -1.
         21   -1    0    0  501  502 -0.00000000000E+00 -0.00000000000E+00 -0.27023370433E+03  0.27023370433E+03  0.00000000000E+00 0. -1.
      99926    2    1    2    0    0 -0.35527136788E-14  0.17763568394E-14 -0.12617543214E+03  0.41429197651E+03  0.39461069692E+03 0.  0.
      99925    2    3    3    0    0  0.30448118768E+02 -0.12878226081E+02 -0.89526346071E+02  0.27981669903E+03  0.26303893585E+03 0.  0.
         25    1    4    4    0    0 -0.23417671906E+02  0.69233544807E+01 -0.45156941390E+02  0.13521456153E+03  0.12509000000E+03 0.  0.
         25    1    3    3    0    0 -0.30448118768E+02  0.12878226081E+02 -0.36649086072E+02  0.13447527748E+03  0.12509000000E+03 0.  0.
         25    1    4    4    0    0  0.53865790674E+02 -0.19801580562E+02 -0.44369404681E+02  0.14460213750E+03  0.12509000000E+03 0.  0.
<mgrwt>
<rscale>  2 0.39461070E+03</rscale>
<asrwt>0</asrwt>
<pdfrwt beam="1">  1       21 0.21185040E-01 0.39461070E+03</pdfrwt>
<pdfrwt beam="2">  1       21 0.39740250E-01 0.39461070E+03</pdfrwt>
<totfact> 0.11966152E+05</totfact>
</mgrwt>
</event>
<event>
 7    0  0.4709932E-002  0.4522687E+03  0.7546771E-02  0.1027048E+00
         21   -1    0    0  502  501  0.00000000000E+00  0.00000000000E+00  0.95118753833E+02  0.95118753833E+02  0.00000000000E+00 0. -1.
         21   -1    0    0  501  502 -0.00000000000E+00 -0.00000000000E+00 -0.53760936980E+03  0.53760936980E+03  0.00000000000E+00 0. -1.
      99926    2    1    2    0    0  0.00000000000E+00  0.00000000000E+00 -0.44249061596E+03  0.63272812363E+03  0.45226865159E+03 0.  0.
      99925    2    3    3    0    0  0.43652372505E+02 -0.13266346747E+02 -0.41996097662E+03  0.49768509963E+03  0.26313819740E+03 0.  0.
         25    1    4    4    0    0  0.54621715257E+02  0.11116713305E+02 -0.24888805045E+03  0.28407724803E+03  0.12509000000E+03 0.  0.
         25    1    3    3    0    0 -0.43652372505E+02  0.13266346747E+02 -0.22529639347E+02  0.13504302400E+03  0.12509000000E+03 0.  0.
         25    1    4    4    0    0 -0.10969342751E+02 -0.24383060051E+02 -0.17107292617E+03  0.21360785160E+03  0.12509000000E+03 0.  0.
<mgrwt>
<rscale>  2 0.45226865E+03</rscale>
<asrwt>0</asrwt>
<pdfrwt beam="1">  1       21 0.13988052E-01 0.45226865E+03</pdfrwt>
<pdfrwt beam="2">  1       21 0.79060199E-01 0.45226865E+03</pdfrwt>
<totfact> 0.57946875E+04</totfact>
</mgrwt>
</event>
<event>
 7    0  0.4709932E-002  0.3994073E+03  0.7546771E-02  0.1043985E+00
         21   -1    0    0  502  501  0.00000000000E+00  0.00000000000E+00  0.19049283390E+04  0.19049283390E+04  0.00000000000E+00 0. -1.
         21   -1    0    0  501  502 -0.00000000000E+00 -0.00000000000E+00 -0.20935985077E+02  0.20935985077E+02  0.00000000000E+00 0. -1.
      99926    2    1    2    0    0  0.26645352591E-14  0.00000000000E+00  0.18839923539E+04  0.19258643240E+04  0.39940731730E+03 0.  0.
      99925    2    3    3    0    0  0.59829140242E+01 -0.41509378407E+02  0.13290437099E+04  0.13554483974E+04  0.26291510330E+03 0.  0.
         25    1    4    4    0    0  0.38757637813E+02 -0.18532078510E+02  0.57160896879E+03  0.58671109903E+03  0.12509000000E+03 0.  0.
         25    1    3    3    0    0 -0.59829140242E+01  0.41509378407E+02  0.55494864401E+03  0.57041592663E+03  0.12509000000E+03 0.  0.
         25    1    4    4    0    0 -0.32774723789E+02 -0.22977299896E+02  0.75743474109E+03  0.76873729839E+03  0.12509000000E+03 0.  0.
<mgrwt>
<rscale>  2 0.39940732E+03</rscale>
<asrwt>0</asrwt>
<pdfrwt beam="1">  1       21 0.28013640E+00 0.39940732E+03</pdfrwt>
<pdfrwt beam="2">  1       21 0.30788227E-02 0.39940732E+03</pdfrwt>
<totfact> 0.23631680E+04</totfact>
</mgrwt>
</event>
<event>
 7    0  0.4709932E-002  0.4684852E+03  0.7546771E-02  0.1022349E+00
         21   -1    0    0  502  501  0.00000000000E+00  0.00000000000E+00  0.65578323502E+02  0.65578323502E+02  0.00000000000E+00 0.  1.
         21   -1    0    0  501  502 -0.00000000000E+00 -0.00000000000E+00 -0.83670308470E+03  0.83670308470E+03  0.00000000000E+00 0.  1.
      99926    2    1    2    0    0  0.00000000000E+00  0.44408920985E-15 -0.77112476120E+03  0.90228140821E+03  0.46848515692E+03 0.  0.
      99925    2    3    3    0    0 -0.69475808217E+02  0.15691826508E+01 -0.27819678093E+03  0.38900287554E+03  0.26286962167E+03 0.  0.
         25    1    4    4    0    0 -0.47615055185E+02 -0.11014163224E+02 -0.90161617726E+02  0.16175639302E+03  0.12509000000E+03 0.  0.
         25    1    4    4    0    0 -0.21860753031E+02  0.12583345875E+02 -0.18803516320E+03  0.22724648252E+03  0.12509000000E+03 0.  0.
         25    1    3    3    0    0  0.69475808217E+02 -0.15691826508E+01 -0.49292798027E+03  0.51327853267E+03  0.12509000000E+03 0.  0.
<mgrwt>
<rscale>  2 0.46848516E+03</rscale>
<asrwt>0</asrwt>
<pdfrwt beam="1">  1       21 0.96438719E-02 0.46848516E+03</pdfrwt>
<pdfrwt beam="2">  1       21 0.12304456E+00 0.46848516E+03</pdfrwt>
<totfact> 0.38866292E+04</totfact>
</mgrwt>
</event>
<event>
 7    0  0.4709932E-002  0.4589667E+03  0.7546771E-02  0.1025081E+00
         21   -1    0    0  502  501  0.00000000000E+00  0.00000000000E+00  0.82805742637E+02  0.82805742637E+02  0.00000000000E+00 0.  1.
         21   -1    0    0  501  502 -0.00000000000E+00 -0.00000000000E+00 -0.63597777596E+03  0.63597777596E+03  0.00000000000E+00 0.  1.
      99926    2    1    2    0    0 -0.14210854715E-13  0.71054273576E-14 -0.55317203332E+03  0.71878351859E+03  0.45896671792E+03 0.  0.
      99925    2    3    3    0    0  0.86460599113E+02 -0.50830591755E+02 -0.25161732661E+03  0.37725470063E+03  0.26258454989E+03 0.  0.
         25    1    4    4    0    0  0.52242471435E+01 -0.35603767940E+02 -0.13280928348E+03  0.18595896034E+03  0.12509000000E+03 0.  0.
         25    1    3    3    0    0 -0.86460599113E+02  0.50830591755E+02 -0.30155470671E+03  0.34152881796E+03  0.12509000000E+03 0.  0.
         25    1    4    4    0    0  0.81236351969E+02 -0.15226823814E+02 -0.11880804312E+03  0.19129574030E+03  0.12509000000E+03 0.  0.
<mgrwt>
<rscale>  2 0.45896672E+03</rscale>
<asrwt>0</asrwt>
<pdfrwt beam="1">  1       21 0.12177315E-01 0.45896672E+03</pdfrwt>
<pdfrwt beam="2">  1       21 0.93526144E-01 0.45896672E+03</pdfrwt>
<totfact> 0.50306871E+04</totfact>
</mgrwt>
</event>
<event>
 7    0  0.4709932E-002  0.4563378E+03  0.7546771E-02  0.1025849E+00
         21   -1    0    0  502  501  0.00000000000E+00  0.00000000000E+00  0.11039914327E+03  0.11039914327E+03  0.00000000000E+00 0. -1.
         21   -1    0    0  501  502 -0.00000000000E+00 -0.00000000000E+00 -0.47157108057E+03  0.47157108057E+03  0.00000000000E+00 0. -1.
      99926    2    1    2    0    0  0.00000000000E+00  0.00000000000E+00 -0.36117193729E+03  0.58197022384E+03  0.45633778404E+03 0.  0.
      99925    2    3    3    0    0  0.55929715874E+02  0.18520645459E+02 -0.35245012594E+03  0.44342519318E+03  0.26255221052E+03 0.  0.
         25    1    4    4    0    0  0.32207973514E+02  0.30830613429E+02 -0.12446552062E+03  0.18200839048E+03  0.12509000000E+03 0.  0.
         25    1    3    3    0    0 -0.55929715874E+02 -0.18520645459E+02 -0.87218113559E+01  0.13854503066E+03  0.12509000000E+03 0.  0.
         25    1    4    4    0    0  0.23721742360E+02 -0.12309967971E+02 -0.22798460531E+03  0.26141680270E+03  0.12509000000E+03 0.  0.
<mgrwt>
<rscale>  2 0.45633778E+03</rscale>
<asrwt>0</asrwt>
<pdfrwt beam="1">  1       21 0.16235168E-01 0.45633778E+03</pdfrwt>
<pdfrwt beam="2">  1       21 0.69348689E-01 0.45633778E+03</pdfrwt>
<totfact> 0.59173715E+04</totfact>
</mgrwt>
</event>
<event>
 7    0  0.4709932E-002  0.4571089E+03  0.7546771E-02  0.1025623E+00
         21   -1    0    0  502  501  0.00000000000E+00  0.00000000000E+00  0.12646218005E+04  0.12646218005E+04  0.00000000000E+00 0.  1.
         21   -1    0    0  501  502 -0.00000000000E+00 -0.00000000000E+00 -0.41306529392E+02  0.41306529392E+02  0.00000000000E+00 0.  1.
      99926    2    1    2    0    0  0.00000000000E+00  0.35527136788E-14  0.12233152711E+04  0.13059283299E+04  0.45710890419E+03 0.  0.
      99925    2    3    3    0    0 -0.58320423107E+02 -0.20807988765E+02  0.10469018572E+04  0.10809762353E+04  0.26205319794E+03 0.  0.
         25    1    3    3    0    0  0.58320423107E+02  0.20807988765E+02  0.17641341388E+03  0.22495209456E+03  0.12509000000E+03 0.  0.
         25    1    4    4    0    0 -0.19811081662E+02 -0.47553701695E+02  0.49732960777E+03  0.51540089287E+03  0.12509000000E+03 0.  0.
         25    1    4    4    0    0 -0.38509341445E+02  0.26745712930E+02  0.54957224945E+03  0.56557534246E+03  0.12509000000E+03 0.  0.
<mgrwt>
<rscale>  2 0.45710890E+03</rscale>
<asrwt>0</asrwt>
<pdfrwt beam="1">  1       21 0.18597377E+00 0.45710890E+03</pdfrwt>
<pdfrwt beam="2">  1       21 0.60744904E-02 0.45710890E+03</pdfrwt>
<totfact> 0.28473155E+04</totfact>
</mgrwt>
</event>
<event>
 7    0  0.4709932E-002  0.4518337E+03  0.7546771E-02  0.1027177E+00
         21   -1    0    0  502  501  0.00000000000E+00  0.00000000000E+00  0.18720371431E+03  0.18720371431E+03  0.00000000000E+00 0.  1.
         21   -1    0    0  501  502 -0.00000000000E+00 -0.00000000000E+00 -0.27263579262E+03  0.27263579262E+03  0.00000000000E+00 0.  1.
      99926    2    1    2    0    0  0.00000000000E+00  0.00000000000E+00 -0.85432078306E+02  0.45983950693E+03  0.45183374391E+03 0.  0.
      99925    2    3    3    0    0  0.73563960653E+02 -0.13582441196E+02  0.28574311424E+02  0.27479598769E+03  0.26286917765E+03 0.  0.
         25    1    3    3    0    0 -0.73563960653E+02  0.13582441196E+02 -0.11400638973E+03  0.18504351925E+03  0.12509000000E+03 0.  0.
         25    1    4    4    0    0  0.18196937640E+02 -0.92800173516E+00 -0.22179144231E+02  0.12834099994E+03  0.12509000000E+03 0.  0.
         25    1    4    4    0    0  0.55367023014E+02 -0.12654439461E+02  0.50753455655E+02  0.14645498775E+03  0.12509000000E+03 0.  0.
<mgrwt>
<rscale>  2 0.45183374E+03</rscale>
<asrwt>0</asrwt>
<pdfrwt beam="1">  1       21 0.27529958E-01 0.45183374E+03</pdfrwt>
<pdfrwt beam="2">  1       21 0.40093499E-01 0.45183374E+03</pdfrwt>
<totfact> 0.69938781E+04</totfact>
</mgrwt>
</event>
<event>
 7    0  0.4709932E-002  0.4329596E+03  0.7546771E-02  0.1032929E+00
         21   -1    0    0  502  501  0.00000000000E+00  0.00000000000E+00  0.38447709537E+03  0.38447709537E+03  0.00000000000E+00 0.  1.
         21   -1    0    0  501  502 -0.00000000000E+00 -0.00000000000E+00 -0.12188894297E+03  0.12188894297E+03  0.00000000000E+00 0.  1.
      99926    2    1    2    0    0 -0.88817841970E-15  0.14210854715E-13  0.26258815240E+03  0.50636603834E+03  0.43295961359E+03 0.  0.
      99925    2    3    3    0    0  0.71463138292E+01  0.88461202829E+02  0.19229343065E+03  0.33764938175E+03  0.26297126709E+03 0.  0.
         25    1    4    4    0    0  0.36768530129E+02  0.28844080406E+02  0.71623368996E+02  0.15152993390E+03  0.12509000000E+03 0.  0.
         25    1    4    4    0    0 -0.29622216300E+02  0.59617122423E+02  0.12067006166E+03  0.18611944784E+03  0.12509000000E+03 0.  0.
         25    1    3    3    0    0 -0.71463138292E+01 -0.88461202829E+02  0.70294721741E+02  0.16871665659E+03  0.12509000000E+03 0.  0.
<mgrwt>
<rscale>  2 0.43295961E+03</rscale>
<asrwt>0</asrwt>
<pdfrwt beam="1">  1       21 0.56540749E-01 0.43295961E+03</pdfrwt>
<pdfrwt beam="2">  1       21 0.17924845E-01 0.43295961E+03</pdfrwt>
<totfact> 0.77514961E+04</totfact>
</mgrwt>
</event>
<event>
 6    0  0.4709932E-002  0.4577042E+03  0.7546771E-02  0.1025449E+00
         21   -1    0    0  502  501  0.00000000000E+00  0.00000000000E+00  0.16796469724E+03  0.16796469724E+03  0.00000000000E+00 0.  1.
         21   -1    0    0  501  502 -0.00000000000E+00 -0.00000000000E+00 -0.31181129409E+03  0.31181129409E+03  0.00000000000E+00 0.  1.
      99926    2    1    2    0    0  0.00000000000E+00  0.00000000000E+00 -0.14384659686E+03  0.47977599133E+03  0.45770422593E+03 0.  0.
         25    1    3    3    0    0  0.33457475689E+02 -0.83933466595E+01 -0.43573631125E+02  0.13687958349E+03  0.12509000000E+03 0.  0.
         25    1    3    3    0    0 -0.36502867147E+02  0.72999656835E+02  0.28520207357E+02  0.15206024969E+03  0.12509000000E+03 0.  0.
         25    1    3    3    0    0  0.30453914585E+01 -0.64606310176E+02 -0.12879317309E+03  0.19083615815E+03  0.12509000000E+03 0.  0.
<mgrwt>
<rscale>  2 0.45770423E+03</rscale>
<asrwt>0</asrwt>
<pdfrwt beam="1">  1       21 0.24700691E-01 0.45770423E+03</pdfrwt>
<pdfrwt beam="2">  1       21 0.45854601E-01 0.45770423E+03</pdfrwt>
<totfact> 0.65303482E+04</totfact>
</mgrwt>
</event>
<event>
 7    0  0.4709932E-002  0.4520222E+03  0.7546771E-02  0.1027121E+00
         21   -1    0    0  502  501  0.00000000000E+00  0.00000000000E+00  0.59282882666E+02  0.59282882666E+02  0.00000000000E+00 0. -1.
         21   -1    0    0  501  502 -0.00000000000E+00 -0.00000000000E+00 -0.86164882155E+03  0.86164882155E+03  0.00000000000E+00 0. -1.
      99926    2    1    2    0    0  0.00000000000E+00  0.14210854715E-13 -0.80236593888E+03  0.92093170421E+03  0.45202223833E+03 0.  0.
      99925    2    3    3    0    0  0.55574283288E+01 -0.72862111856E+02 -0.33798362249E+03  0.43447696199E+03  0.26305423219E+03 0.  0.
         25    1    3    3    0    0 -0.55574283288E+01  0.72862111856E+02 -0.46438231639E+03  0.48645474222E+03  0.12509000000E+03 0.  0.
         25    1    4    4    0    0  0.27084481578E+02 -0.34902321164E+02 -0.22088156923E+03  0.25765852769E+03  0.12509000000E+03 0.  0.
         25    1    4    4    0    0 -0.21527053249E+02 -0.37959790693E+02 -0.11710205325E+03  0.17681843430E+03  0.12509000000E+03 0.  0.
<mgrwt>
<rscale>  2 0.45202224E+03</rscale>
<asrwt>0</asrwt>
<pdfrwt beam="1">  1       21 0.87180721E-02 0.45202224E+03</pdfrwt>
<pdfrwt beam="2">  1       21 0.12671304E+00 0.45202224E+03</pdfrwt>
<totfact> 0.43341692E+04</totfact>
</mgrwt>
</event>
<event>
 7    0  0.4709932E-002  0.4573926E+03  0.7546771E-02  0.1025540E+00
         21   -1    0    0  502  501  0.00000000000E+00  0.00000000000E+00  0.21206203183E+03  0.21206203183E+03  0.00000000000E+00 0. -1.
         21   -1    0    0  501  502 -0.00000000000E+00 -0.00000000000E+00 -0.24663531922E+03  0.24663531922E+03  0.00000000000E+00 0. -1.
      99926    2    1    2    0    0  0.00000000000E+00  0.00000000000E+00 -0.34573287389E+02  0.45869735104E+03  0.45739255313E+03 0.  0.
      99925    2    3    3    0    0 -0.10198544144E+03 -0.53649662986E+02 -0.14096849061E+02  0.28739028980E+03  0.26289758636E+03 0.  0.
         25    1    4    4    0    0 -0.24806141821E+02 -0.55285393972E+02  0.54671065283E+01  0.13910146229E+03  0.12509000000E+03 0.  0.
         25    1    3    3    0    0  0.10198544144E+03  0.53649662986E+02 -0.20476438327E+02  0.17130706124E+03  0.12509000000E+03 0.  0.
         25    1    4    4    0    0 -0.77179299620E+02  0.16357309863E+01 -0.19563955589E+02  0.14828882751E+03  0.12509000000E+03 0.  0.
<mgrwt>
<rscale>  2 0.45739255E+03</rscale>
<asrwt>0</asrwt>
<pdfrwt beam="1">  1       21 0.31185593E-01 0.45739255E+03</pdfrwt>
<pdfrwt beam="2">  1       21 0.36269900E-01 0.45739255E+03</pdfrwt>
<totfact> 0.66987878E+04</totfact>
</mgrwt>
</event>
<event>
 6    0  0.4709932E-002  0.4524171E+03  0.7546771E-02  0.1027004E+00
         21   -1    0    0  502  501  0.00000000000E+00  0.00000000000E+00  0.83823003075E+02  0.83823003075E+02  0.00000000000E+00 0.  1.
         21   -1    0    0  501  502 -0.00000000000E+00 -0.00000000000E+00 -0.61045657058E+03  0.61045657058E+03  0.00000000000E+00 0.  1.
      99926    2    1    2    0    0  0.00000000000E+00 -0.71054273576E-14 -0.52663356751E+03  0.69427957366E+03  0.45241707745E+03 0.  0.
         25    1    3    3    0    0 -0.52493196841E+02 -0.54123634236E+01 -0.22705767472E+03  0.26455155479E+03  0.12509000000E+03 0.  0.
         25    1    3    3    0    0  0.70885179174E+02 -0.43563510418E+02 -0.76278961568E+02  0.16848880124E+03  0.12509000000E+03 0.  0.
         25    1    3    3    0    0 -0.18391982332E+02  0.48975873842E+02 -0.22329693122E+03  0.26123921762E+03  0.12509000000E+03 0.  0.
<mgrwt>
<rscale>  2 0.45241708E+03</rscale>
<asrwt>0</asrwt>
<pdfrwt beam="1">  1       21 0.12326912E-01 0.45241708E+03</pdfrwt>
<pdfrwt beam="2">  1       21 0.89773026E-01 0.45241708E+03</pdfrwt>
<totfact> 0.54310422E+04</totfact>
</mgrwt>
</event>
<event>
 7    0  0.4709932E-002  0.4537939E+03  0.7546771E-02  0.1026597E+00
         21   -1    0    0  502  501  0.00000000000E+00  0.00000000000E+00  0.39966853610E+03  0.39966853610E+03  0.00000000000E+00 0. -1.
         21   -1    0    0  501  502 -0.00000000000E+00 -0.00000000000E+00 -0.12881228257E+03  0.12881228257E+03  0.00000000000E+00 0. -1.
      99926    2    1    2    0    0  0.00000000000E+00  0.00000000000E+00  0.27085625352E+03  0.52848081867E+03  0.45379385808E+03 0.  0.
      99925    2    3    3    0    0 -0.25090344178E+02 -0.94316207824E+02  0.10523071554E+03  0.29912432898E+03  0.26244387641E+03 0.  0.
         25    1    3    3    0    0  0.25090344178E+02  0.94316207824E+02  0.16562553798E+03  0.22935648969E+03  0.12509000000E+03 0.  0.
         25    1    4    4    0    0 -0.44724667275E+02 -0.59868292439E+02  0.33259980353E+02  0.14945983640E+03  0.12509000000E+03 0.  0.
         25    1    4    4    0    0  0.19634323097E+02 -0.34447915385E+02  0.71970735184E+02  0.14966449259E+03  0.12509000000E+03 0.  0.
<mgrwt>
<rscale>  2 0.45379386E+03</rscale>
<asrwt>0</asrwt>
<pdfrwt beam="1">  1       21 0.58774784E-01 0.45379386E+03</pdfrwt>
<pdfrwt beam="2">  1       21 0.18942983E-01 0.45379386E+03</pdfrwt>
<totfact> 0.63918377E+04</totfact>
</mgrwt>
</event>
<event>
 7    0  0.4709932E-002  0.4574630E+03  0.7546771E-02  0.1025520E+00
         21   -1    0    0  502  501  0.00000000000E+00  0.00000000000E+00  0.12347409845E+03  0.12347409845E+03  0.00000000000E+00 0. -1.
         21   -1    0    0  501  502 -0.00000000000E+00 -0.00000000000E+00 -0.42371714895E+03  0.42371714895E+03  0.00000000000E+00 0. -1.
      99926    2    1    2    0    0  0.00000000000E+00  0.00000000000E+00 -0.30024305050E+03  0.54719124741E+03  0.45746297321E+03 0.  0.
      99925    2    3    3    0    0  0.93141306210E+02  0.39495665255E+02 -0.25521162583E+03  0.38012674548E+03  0.26292234247E+03 0.  0.
         25    1    4    4    0    0  0.44087177453E+02  0.60276135275E+02 -0.13615699044E+03  0.19940693530E+03  0.12509000000E+03 0.  0.
         25    1    4    4    0    0  0.49054128757E+02 -0.20780470020E+02 -0.11905463539E+03  0.18071981018E+03  0.12509000000E+03 0.  0.
         25    1    3    3    0    0 -0.93141306210E+02 -0.39495665255E+02 -0.45031424668E+02  0.16706450193E+03  0.12509000000E+03 0.  0.
<mgrwt>
<rscale>  2 0.45746297E+03</rscale>
<asrwt>0</asrwt>
<pdfrwt beam="1">  1       21 0.18157956E-01 0.45746297E+03</pdfrwt>
<pdfrwt beam="2">  1       21 0.62311345E-01 0.45746297E+03</pdfrwt>
<totfact> 0.60857784E+04</totfact>
</mgrwt>
</event>
<event>
 7    0  0.4709932E-002  0.4210513E+03  0.7546771E-02  0.1036725E+00
         21   -1    0    0  502  501  0.00000000000E+00  0.00000000000E+00  0.13901467673E+03  0.13901467673E+03  0.00000000000E+00 0. -1.
         21   -1    0    0  501  502 -0.00000000000E+00 -0.00000000000E+00 -0.31882285593E+03  0.31882285593E+03  0.00000000000E+00 0. -1.
      99926    2    1    2    0    0  0.22204460493E-15  0.00000000000E+00 -0.17980817920E+03  0.45783753265E+03  0.42105133297E+03 0.  0.
      99925    2    3    3    0    0 -0.18216825560E+01  0.76390213026E+02 -0.10554212895E+03  0.29351547846E+03  0.26300838758E+03 0.  0.
         25    1    4    4    0    0 -0.21507292123E+01  0.21687153562E+01 -0.26238927684E+02  0.12784881066E+03  0.12509000000E+03 0.  0.
         25    1    4    4    0    0  0.32904665627E+00  0.74221497669E+02 -0.79303201263E+02  0.16566666780E+03  0.12509000000E+03 0.  0.
         25    1    3    3    0    0  0.18216825560E+01 -0.76390213026E+02 -0.74266050253E+02  0.16432205419E+03  0.12509000000E+03 0.  0.
<mgrwt>
<rscale>  2 0.42105133E+03</rscale>
<asrwt>0</asrwt>
<pdfrwt beam="1">  1       21 0.20443335E-01 0.42105133E+03</pdfrwt>
<pdfrwt beam="2">  1       21 0.46885713E-01 0.42105133E+03</pdfrwt>
<totfact> 0.90347918E+04</totfact>
</mgrwt>
</event>
<event>
 7    0  0.4709932E-002  0.4482594E+03  0.7546771E-02  0.1028242E+00
         21   -1    0    0  502  501  0.00000000000E+00  0.00000000000E+00  0.20489104105E+03  0.20489104105E+03  0.00000000000E+00 0.  1.
         21   -1    0    0  501  502 -0.00000000000E+00 -0.00000000000E+00 -0.24517475788E+03  0.24517475788E+03  0.00000000000E+00 0.  1.
      99926    2    1    2    0    0  0.00000000000E+00  0.14210854715E-13 -0.40283716827E+02  0.45006579893E+03  0.44825935073E+03 0.  0.
      99925    2    3    3    0    0  0.46305475929E+02  0.94610403227E+02 -0.20237485371E+02  0.28530935749E+03  0.26437955321E+03 0.  0.
         25    1    4    4    0    0  0.43786213026E+02  0.86185335424E+02 -0.23731779296E+02  0.15986197153E+03  0.12509000000E+03 0.  0.
         25    1    4    4    0    0  0.25192629030E+01  0.84250678029E+01  0.34942939253E+01  0.12544738596E+03  0.12509000000E+03 0.  0.
         25    1    3    3    0    0 -0.46305475929E+02 -0.94610403227E+02 -0.20046231457E+02  0.16475644144E+03  0.12509000000E+03 0.  0.
<mgrwt>
<rscale>  2 0.44825935E+03</rscale>
<asrwt>0</asrwt>
<pdfrwt beam="1">  1       21 0.30131036E-01 0.44825935E+03</pdfrwt>
<pdfrwt beam="2">  1       21 0.36055111E-01 0.44825935E+03</pdfrwt>
<totfact> 0.72742994E+04</totfact>
</mgrwt>
</event>
<event>
 7    0  0.4709932E-002  0.4500103E+03  0.7546771E-02  0.1027719E+00
         21   -1    0    0  502  501  0.00000000000E+00  0.00000000000E+00  0.17547036432E+03  0.17547036432E+03  0.00000000000E+00 0.  1.
         21   -1    0    0  501  502 -0.00000000000E+00 -0.00000000000E+00 -0.28852345713E+03  0.28852345713E+03  0.00000000000E+00 0.  1.
      99926    2    1    2    0    0  0.35527136788E-14  0.00000000000E+00 -0.11305309282E+03  0.46399382145E+03  0.45001029383E+03 0.  0.
      99925    2    3    3    0    0 -0.30966243900E+02  0.18321632841E+02 -0.17677578506E+03  0.31907080707E+03  0.26317657808E+03 0.  0.
         25    1    4    4    0    0 -0.55522540711E+02  0.61773381194E+01 -0.10181704312E+03  0.17069015907E+03  0.12509000000E+03 0.  0.
         25    1    3    3    0    0  0.30966243900E+02 -0.18321632841E+02  0.63722692247E+02  0.14492301439E+03  0.12509000000E+03 0.  0.
         25    1    4    4    0    0  0.24556296811E+02  0.12144294722E+02 -0.74958741942E+02  0.14838064800E+03  0.12509000000E+03 0.  0.
<mgrwt>
<rscale>  2 0.45001029E+03</rscale>
<asrwt>0</asrwt>
<pdfrwt beam="1">  1       21 0.25804465E-01 0.45001029E+03</pdfrwt>
<pdfrwt beam="2">  1       21 0.42429920E-01 0.45001029E+03</pdfrwt>
<totfact> 0.70639957E+04</totfact>
</mgrwt>
</event>
<event>
 7    0  0.4709932E-002  0.4547851E+03  0.7546771E-02  0.1026305E+00
         21   -1    0    0  502  501  0.00000000000E+00  0.00000000000E+00  0.29681711075E+03  0.29681711075E+03  0.00000000000E+00 0. -1.
         21   -1    0    0  501  502 -0.00000000000E+00 -0.00000000000E+00 -0.17420616018E+03  0.17420616018E+03  0.00000000000E+00 0. -1.
      99926    2    1    2    0    0  0.00000000000E+00  0.44408920985E-15  0.12261095057E+03  0.47102327093E+03  0.45478508832E+03 0.  0.
      99925    2    3    3    0    0 -0.10162523266E+03  0.37320524085E+01  0.25647286745E+02  0.28289810958E+03  0.26273930228E+03 0.  0.
         25    1    4    4    0    0 -0.72495607489E+02 -0.21370659629E+02  0.39242401747E+02  0.15132677355E+03  0.12509000000E+03 0.  0.
         25    1    4    4    0    0 -0.29129625167E+02  0.25102712038E+02 -0.13595115001E+02  0.13157133603E+03  0.12509000000E+03 0.  0.
         25    1    3    3    0    0  0.10162523266E+03 -0.37320524085E+01  0.96963663828E+02  0.18812516134E+03  0.12509000000E+03 0.  0.
<mgrwt>
<rscale>  2 0.45478509E+03</rscale>
<asrwt>0</asrwt>
<pdfrwt beam="1">  1       21 0.43649575E-01 0.45478509E+03</pdfrwt>
<pdfrwt beam="2">  1       21 0.25618553E-01 0.45478509E+03</pdfrwt>
<totfact> 0.67474656E+04</totfact>
</mgrwt>
</event>
<event>
 7    0  0.4709932E-002  0.4521040E+03  0.7546771E-02  0.1027096E+00
         21   -1    0    0  502  501  0.00000000000E+00  0.00000000000E+00  0.30535225113E+03  0.30535225113E+03  0.00000000000E+00 0. -1.
         21   -1    0    0  501  502 -0.00000000000E+00 -0.00000000000E+00 -0.16734610431E+03  0.16734610431E+03  0.00000000000E+00 0. -1.
      99926    2    1    2    0    0  0.14210854715E-13  0.00000000000E+00  0.13800614682E+03  0.47269835544E+03  0.45210401311E+03 0.  0.
      99925    2    3    3    0    0 -0.77981612919E+02 -0.61061413394E+02  0.13953737937E+03  0.31313808177E+03  0.26225016655E+03 0.  0.
         25    1    4    4    0    0 -0.58138489895E+02 -0.25749137473E+02  0.11019392092E+03  0.17841891826E+03  0.12509000000E+03 0.  0.
         25    1    4    4    0    0 -0.19843123024E+02 -0.35312275921E+02  0.29343458453E+02  0.13471916351E+03  0.12509000000E+03 0.  0.
         25    1    3    3    0    0  0.77981612919E+02  0.61061413394E+02 -0.15312325494E+01  0.15956027367E+03  0.12509000000E+03 0.  0.
<mgrwt>
<rscale>  2 0.45210401E+03</rscale>
<asrwt>0</asrwt>
<pdfrwt beam="1">  1       21 0.44904743E-01 0.45210401E+03</pdfrwt>
<pdfrwt beam="2">  1       21 0.24609721E-01 0.45210401E+03</pdfrwt>
<totfact> 0.68803230E+04</totfact>
</mgrwt>
</event>
<event>
 7    0  0.4709932E-002  0.4600147E+03  0.7546771E-02  0.1024777E+00
         21   -1    0    0  502  501  0.00000000000E+00  0.00000000000E+00  0.23305114318E+02  0.23305114318E+02  0.00000000000E+00 0. -1.
         21   -1    0    0  501  502 -0.00000000000E+00 -0.00000000000E+00 -0.22700333585E+04  0.22700333585E+04  0.00000000000E+00 0. -1.
      99926    2    1    2    0    0  0.00000000000E+00  0.00000000000E+00 -0.22467282442E+04  0.22933384728E+04  0.46001472553E+03 0.  0.
      99925    2    3    3    0    0 -0.24677462674E+02 -0.93875676655E+02 -0.17393570326E+04  0.17618361923E+04  0.26321523807E+03 0.  0.
         25    1    3    3    0    0  0.24677462674E+02  0.93875676655E+02 -0.50737121153E+03  0.53150228055E+03  0.12509000000E+03 0.  0.
         25    1    4    4    0    0 -0.21940942696E+02 -0.56285475602E+02 -0.11382855692E+04  0.11467305720E+04  0.12509000000E+03 0.  0.
         25    1    4    4    0    0 -0.27365199779E+01 -0.37590201053E+02 -0.60107146347E+03  0.61510562024E+03  0.12509000000E+03 0.  0.
<mgrwt>
<rscale>  2 0.46001473E+03</rscale>
<asrwt>0</asrwt>
<pdfrwt beam="1">  1       21 0.34272217E-02 0.46001473E+03</pdfrwt>
<pdfrwt beam="2">  1       21 0.33382853E+00 0.46001473E+03</pdfrwt>
<totfact> 0.91237714E+03</totfact>
</mgrwt>
</event>
<event>
 6    0  0.4709932E-002  0.4505059E+03  0.7546771E-02  0.1027571E+00
         21   -1    0    0  502  501  0.00000000000E+00  0.00000000000E+00  0.24329227858E+03  0.24329227858E+03  0.00000000000E+00 0. -1.
         21   -1    0    0  501  502 -0.00000000000E+00 -0.00000000000E+00 -0.20855116464E+03  0.20855116464E+03  0.00000000000E+00 0. -1.
      99926    2    1    2    0    0 -0.17763568394E-14 -0.88817841970E-15  0.34741113941E+02  0.45184344323E+03  0.45050588474E+03 0.  0.
         25    1    3    3    0    0  0.40462308666E+02  0.22296033895E+02 -0.51338383152E+02  0.14288964005E+03  0.12509000000E+03 0.  0.
         25    1    3    3    0    0 -0.12096821277E+02  0.62380889737E+01  0.11932662571E+03  0.17341164477E+03  0.12509000000E+03 0.  0.
         25    1    3    3    0    0 -0.28365487389E+02 -0.28534122868E+02 -0.33247128616E+02  0.13554215840E+03  0.12509000000E+03 0.  0.
<mgrwt>
<rscale>  2 0.45050588E+03</rscale>
<asrwt>0</asrwt>
<pdfrwt beam="1">  1       21 0.35778276E-01 0.45050588E+03</pdfrwt>
<pdfrwt beam="2">  1       21 0.30669289E-01 0.45050588E+03</pdfrwt>
<totfact> 0.71300233E+04</totfact>
</mgrwt>
</event>
<event>
 7    0  0.4709932E-002  0.4543094E+03  0.7546771E-02  0.1026445E+00
         21   -1    0    0  502  501  0.00000000000E+00  0.00000000000E+00  0.27022794188E+03  0.27022794188E+03  0.00000000000E+00 0. -1.
         21   -1    0    0  501  502 -0.00000000000E+00 -0.00000000000E+00 -0.19094712233E+03  0.19094712233E+03  0.00000000000E+00 0. -1.
      99926    2    1    2    0    0  0.71054273576E-14  0.00000000000E+00  0.79280819545E+02  0.46117506421E+03  0.45430935660E+03 0.  0.
      99925    2    3    3    0    0 -0.49042081245E+02  0.10117314311E+03  0.56253188530E+02  0.29141373024E+03  0.26290000063E+03 0.  0.
         25    1    4    4    0    0 -0.34656114467E+02  0.15685527209E+02  0.50683569547E+01  0.13084448164E+03  0.12509000000E+03 0.  0.
         25    1    4    4    0    0 -0.14385966777E+02  0.85487615901E+02  0.51184831575E+02  0.16056924860E+03  0.12509000000E+03 0.  0.
         25    1    3    3    0    0  0.49042081245E+02 -0.10117314311E+03  0.23027631015E+02  0.16976133397E+03  0.12509000000E+03 0.  0.
<mgrwt>
<rscale>  2 0.45430936E+03</rscale>
<asrwt>0</asrwt>
<pdfrwt beam="1">  1       21 0.39739403E-01 0.45430936E+03</pdfrwt>
<pdfrwt beam="2">  1       21 0.28080459E-01 0.45430936E+03</pdfrwt>
<totfact> 0.68470116E+04</totfact>
</mgrwt>
</event>
<event>
 7    0  0.4709932E-002  0.4517758E+03  0.7546771E-02  0.1027194E+00
         21   -1    0    0  502  501  0.00000000000E+00  0.00000000000E+00  0.27794532354E+03  0.27794532354E+03  0.00000000000E+00 0. -1.
         21   -1    0    0  501  502 -0.00000000000E+00 -0.00000000000E+00 -0.18358053531E+03  0.18358053531E+03  0.00000000000E+00 0. -1.
      99926    2    1    2    0    0  0.71054273576E-14  0.00000000000E+00  0.94364788232E+02  0.46152585884E+03  0.45177583504E+03 0.  0.
      99925    2    3    3    0    0 -0.63829684449E+02 -0.81670321103E+02  0.19826962409E+02  0.28278675975E+03  0.26235657622E+03 0.  0.
         25    1    4    4    0    0 -0.83505017202E+01 -0.15776952456E+02 -0.14168509364E+02  0.12714911665E+03  0.12509000000E+03 0.  0.
         25    1    4    4    0    0 -0.55479182729E+02 -0.65893368647E+02  0.33995471773E+02  0.15563764310E+03  0.12509000000E+03 0.  0.
         25    1    3    3    0    0  0.63829684449E+02  0.81670321103E+02  0.74537825823E+02  0.17873909909E+03  0.12509000000E+03 0.  0.
<mgrwt>
<rscale>  2 0.45177584E+03</rscale>
<asrwt>0</asrwt>
<pdfrwt beam="1">  1       21 0.40874312E-01 0.45177584E+03</pdfrwt>
<pdfrwt beam="2">  1       21 0.26997137E-01 0.45177584E+03</pdfrwt>
<totfact> 0.69841032E+04</totfact>
</mgrwt>
</event>
<event>
 7    0  0.4709932E-002  0.4599204E+03  0.7546771E-02  0.1024804E+00
         21   -1    0    0  502  501  0.00000000000E+00  0.00000000000E+00  0.89155247998E+02  0.89155247998E+02  0.00000000000E+00 0. -1.
         21   -1    0    0  501  502 -0.00000000000E+00 -0.00000000000E+00 -0.59314175426E+03  0.59314175426E+03  0.00000000000E+00 0. -1.
      99926    2    1    2    0    0 -0.71054273576E-14  0.00000000000E+00 -0.50398650626E+03  0.68229700226E+03  0.45992042877E+03 0.  0.
      99925    2    3    3    0    0  0.47004501475E+02 -0.70816737547E+02 -0.19484677798E+03  0.33814687052E+03  0.26297073159E+03 0.  0.
         25    1    4    4    0    0 -0.16432606242E+02 -0.26959798884E+02 -0.10017839746E+03  0.16334038301E+03  0.12509000000E+03 0.  0.
         25    1    3    3    0    0 -0.47004501475E+02  0.70816737547E+02 -0.30913972828E+03  0.34415013174E+03  0.12509000000E+03 0.  0.
         25    1    4    4    0    0  0.63437107717E+02 -0.43856938663E+02 -0.94668380519E+02  0.17480648751E+03  0.12509000000E+03 0.  0.
<mgrwt>
<rscale>  2 0.45992043E+03</rscale>
<asrwt>0</asrwt>
<pdfrwt beam="1">  1       21 0.13111066E-01 0.45992043E+03</pdfrwt>
<pdfrwt beam="2">  1       21 0.87226727E-01 0.45992043E+03</pdfrwt>
<totfact> 0.51836346E+04</totfact>
</mgrwt>
</event>
<event>
 7    0  0.4709932E-002  0.4568446E+03  0.7546771E-02  0.1025700E+00
         21   -1    0    0  502  501  0.00000000000E+00  0.00000000000E+00  0.11842193600E+04  0.11842193600E+04  0.00000000000E+00 0.  1.
         21   -1    0    0  501  502 -0.00000000000E+00 -0.00000000000E+00 -0.44060029632E+02  0.44060029632E+02  0.00000000000E+00 0.  1.
      99926    2    1    2    0    0  0.35527136788E-14  0.00000000000E+00  0.11401593304E+04  0.12282793897E+04  0.45684456916E+03 0.  0.
      99925    2    3    3    0    0 -0.22015581137E+02  0.35817632182E+02  0.42926300719E+03  0.50523811903E+03  0.26311829847E+03 0.  0.
         25    1    4    4    0    0 -0.73858162519E+01  0.58165654342E+02  0.23663274781E+03  0.27400795438E+03  0.12509000000E+03 0.  0.
         25    1    4    4    0    0 -0.14629764885E+02 -0.22348022160E+02  0.19263025938E+03  0.23123016465E+03  0.12509000000E+03 0.  0.
         25    1    3    3    0    0  0.22015581137E+02 -0.35817632182E+02  0.71089632320E+03  0.72304127062E+03  0.12509000000E+03 0.  0.
<mgrwt>
<rscale>  2 0.45684457E+03</rscale>
<asrwt>0</asrwt>
<pdfrwt beam="1">  1       21 0.17414989E+00 0.45684457E+03</pdfrwt>
<pdfrwt beam="2">  1       21 0.64794169E-02 0.45684457E+03</pdfrwt>
<totfact> 0.30825710E+04</totfact>
</mgrwt>
</event>
<event>
 7    0  0.4709932E-002  0.4557087E+03  0.7546771E-02  0.1026033E+00
         21   -1    0    0  502  501  0.00000000000E+00  0.00000000000E+00  0.65653197448E+02  0.65653197448E+02  0.00000000000E+00 0. -1.
         21   -1    0    0  501  502 -0.00000000000E+00 -0.00000000000E+00 -0.79078572191E+03  0.79078572191E+03  0.00000000000E+00 0. -1.
      99926    2    1    2    0    0  0.00000000000E+00 -0.14210854715E-13 -0.72513252447E+03  0.85643891936E+03  0.45570872776E+03 0.  0.
      99925    2    3    3    0    0 -0.35322025004E+02  0.78840143813E+02 -0.31652956780E+03  0.42047183572E+03  0.26294901333E+03 0.  0.
         25    1    4    4    0    0 -0.31692256279E+02  0.23565866970E+01 -0.16648893654E+03  0.21065618125E+03  0.12509000000E+03 0.  0.
         25    1    3    3    0    0  0.35322025004E+02 -0.78840143813E+02 -0.40860295667E+03  0.43596708365E+03  0.12509000000E+03 0.  0.
         25    1    4    4    0    0 -0.36297687249E+01  0.76483557116E+02 -0.15004063126E+03  0.20981565447E+03  0.12509000000E+03 0.  0.
<mgrwt>
<rscale>  2 0.45570873E+03</rscale>
<asrwt>0</asrwt>
<pdfrwt beam="1">  1       21 0.96548816E-02 0.45570873E+03</pdfrwt>
<pdfrwt beam="2">  1       21 0.11629202E+00 0.45570873E+03</pdfrwt>
<totfact> 0.44902545E+04</totfact>
</mgrwt>
</event>
<event>
 7    0  0.4709932E-002  0.4513521E+03  0.7546771E-02  0.1027320E+00
         21   -1    0    0  502  501  0.00000000000E+00  0.00000000000E+00  0.69759545600E+02  0.69759545600E+02  0.00000000000E+00 0. -1.
         21   -1    0    0  501  502 -0.00000000000E+00 -0.00000000000E+00 -0.73007477053E+03  0.73007477053E+03  0.00000000000E+00 0. -1.
      99926    2    1    2    0    0  0.00000000000E+00  0.00000000000E+00 -0.66031522493E+03  0.79983431613E+03  0.45135212084E+03 0.  0.
      99925    2    3    3    0    0  0.34743962292E+02 -0.97821054208E+02 -0.48082351300E+03  0.55767551635E+03  0.26274441824E+03 0.  0.
         25    1    4    4    0    0 -0.10027299934E+02 -0.77147271354E+02 -0.27146504906E+03  0.30885761959E+03  0.12509000000E+03 0.  0.
         25    1    4    4    0    0  0.44771262226E+02 -0.20673782854E+02 -0.20935846395E+03  0.24881789675E+03  0.12509000000E+03 0.  0.
         25    1    3    3    0    0 -0.34743962292E+02  0.97821054208E+02 -0.17949171193E+03  0.24215879978E+03  0.12509000000E+03 0.  0.
<mgrwt>
<rscale>  2 0.45135212E+03</rscale>
<asrwt>0</asrwt>
<pdfrwt beam="1">  1       21 0.10258757E-01 0.45135212E+03</pdfrwt>
<pdfrwt beam="2">  1       21 0.10736393E+00 0.45135212E+03</pdfrwt>
<totfact> 0.49165288E+04</totfact>
</mgrwt>
</event>
<event>
 7    0  0.4709932E-002  0.4484969E+03  0.7546771E-02  0.1028171E+00
         21   -1    0    0  502  501  0.00000000000E+00  0.00000000000E+00  0.78545309500E+02  0.78545309500E+02  0.00000000000E+00 0. -1.
         21   -1    0    0  501  502 -0.00000000000E+00 -0.00000000000E+00 -0.64023391623E+03  0.64023391623E+03  0.00000000000E+00 0. -1.
      99926    2    1    2    0    0  0.00000000000E+00  0.14210854715E-13 -0.56168860673E+03  0.71877922573E+03  0.44849691684E+03 0.  0.
      99925    2    3    3    0    0  0.80543863298E+02  0.67774683210E+02 -0.38546187199E+03  0.47839600723E+03  0.26306114000E+03 0.  0.
         25    1    4    4    0    0  0.17963377237E+02  0.67054586211E+02 -0.20770862266E+03  0.25220900158E+03  0.12509000000E+03 0.  0.
         25    1    4    4    0    0  0.62580486061E+02  0.72009699958E+00 -0.17775324933E+03  0.22618700565E+03  0.12509000000E+03 0.  0.
         25    1    3    3    0    0 -0.80543863298E+02 -0.67774683210E+02 -0.17622673475E+03  0.24038321850E+03  0.12509000000E+03 0.  0.
<mgrwt>
<rscale>  2 0.44849692E+03</rscale>
<asrwt>0</asrwt>
<pdfrwt beam="1">  1       21 0.11550781E-01 0.44849692E+03</pdfrwt>
<pdfrwt beam="2">  1       21 0.94152048E-01 0.44849692E+03</pdfrwt>
<totfact> 0.54636821E+04</totfact>
</mgrwt>
</event>
<event>
 7    0  0.4709932E-002  0.4527359E+03  0.7546771E-02  0.1026909E+00
         21   -1    0    0  502  501  0.00000000000E+00  0.00000000000E+00  0.43801721092E+03  0.43801721092E+03  0.00000000000E+00 0.  1.
         21   -1    0    0  501  502 -0.00000000000E+00 -0.00000000000E+00 -0.11698727048E+03  0.11698727048E+03  0.00000000000E+00 0.  1.
      99926    2    1    2    0    0 -0.35527136788E-14  0.00000000000E+00  0.32102994044E+03  0.55500448140E+03  0.45273585203E+03 0.  0.
      99925    2    3    3    0    0 -0.19733128172E+02 -0.87702981518E+02  0.28279292939E+03  0.39628842541E+03  0.26266226582E+03 0.  0.
         25    1    3    3    0    0  0.19733128172E+02  0.87702981518E+02  0.38237011046E+02  0.15871605599E+03  0.12509000000E+03 0.  0.
         25    1    4    4    0    0 -0.32337253807E+02 -0.64882804250E+02  0.11146139606E+03  0.18255581936E+03  0.12509000000E+03 0.  0.
         25    1    4    4    0    0  0.12604125635E+02 -0.22820177268E+02  0.17133153333E+03  0.21373260605E+03  0.12509000000E+03 0.  0.
<mgrwt>
<rscale>  2 0.45273585E+03</rscale>
<asrwt>0</asrwt>
<pdfrwt beam="1">  1       21 0.64414295E-01 0.45273585E+03</pdfrwt>
<pdfrwt beam="2">  1       21 0.17204011E-01 0.45273585E+03</pdfrwt>
<totfact> 0.62651676E+04</totfact>
</mgrwt>
</event>
<event>
 7    0  0.4709932E-002  0.4363244E+03  0.7546771E-02  0.1031881E+00
         21   -1    0    0  502  501  0.00000000000E+00  0.00000000000E+00  0.11097035455E+03  0.11097035455E+03  0.00000000000E+00 0.  1.
         21   -1    0    0  501  502 -0.00000000000E+00 -0.00000000000E+00 -0.42889606604E+03  0.42889606604E+03  0.00000000000E+00 0.  1.
      99926    2    1    2    0    0  0.00000000000E+00  0.17763568394E-14 -0.31792571149E+03  0.53986642059E+03  0.43632441378E+03 0.  0.
      99925    2    3    3    0    0  0.88559149707E+02  0.14388868327E+02 -0.24026590528E+03  0.36744740735E+03  0.26313519224E+03 0.  0.
         25    1    3    3    0    0 -0.88559149707E+02 -0.14388868327E+02 -0.77659806206E+02  0.17241901325E+03  0.12509000000E+03 0.  0.
         25    1    4    4    0    0  0.34800447542E+02  0.35419833004E+02 -0.81909975267E+02  0.15755122300E+03  0.12509000000E+03 0.  0.
         25    1    4    4    0    0  0.53758702165E+02 -0.21030964676E+02 -0.15835593002E+03  0.20989618435E+03  0.12509000000E+03 0.  0.
<mgrwt>
<rscale>  2 0.43632441E+03</rscale>
<asrwt>0</asrwt>
<pdfrwt beam="1">  1       21 0.16319170E-01 0.43632441E+03</pdfrwt>
<pdfrwt beam="2">  1       21 0.63072950E-01 0.43632441E+03</pdfrwt>
<totfact> 0.72705462E+04</totfact>
</mgrwt>
</event>
<event>
 7    0  0.4709932E-002  0.4565365E+03  0.7546771E-02  0.1025791E+00
         21   -1    0    0  502  501  0.00000000000E+00  0.00000000000E+00  0.97902133495E+02  0.97902133495E+02  0.00000000000E+00 0. -1.
         21   -1    0    0  501  502 -0.00000000000E+00 -0.00000000000E+00 -0.53222935239E+03  0.53222935239E+03  0.00000000000E+00 0. -1.
      99926    2    1    2    0    0  0.00000000000E+00  0.14210854715E-13 -0.43432721889E+03  0.63013148588E+03  0.45653647875E+03 0.  0.
      99925    2    3    3    0    0 -0.33384483444E+02 -0.10679589663E+03 -0.30725434997E+03  0.41962041875E+03  0.26297561290E+03 0.  0.
         25    1    4    4    0    0 -0.21394450312E+02 -0.96858888748E+02 -0.17686453148E+03  0.23826023048E+03  0.12509000000E+03 0.  0.
         25    1    4    4    0    0 -0.11990033131E+02 -0.99370078843E+01 -0.13038981849E+03  0.18136018826E+03  0.12509000000E+03 0.  0.
         25    1    3    3    0    0  0.33384483444E+02  0.10679589663E+03 -0.12707286892E+03  0.21051106714E+03  0.12509000000E+03 0.  0.
<mgrwt>
<rscale>  2 0.45653648E+03</rscale>
<asrwt>0</asrwt>
<pdfrwt beam="1">  1       21 0.14397373E-01 0.45653648E+03</pdfrwt>
<pdfrwt beam="2">  1       21 0.78269022E-01 0.45653648E+03</pdfrwt>
<totfact> 0.56176410E+04</totfact>
</mgrwt>
</event>
<event>
 7    0  0.4709932E-002  0.4556794E+03  0.7546771E-02  0.1026042E+00
         21   -1    0    0  502  501  0.00000000000E+00  0.00000000000E+00  0.15068693757E+03  0.15068693757E+03  0.00000000000E+00 0. -1.
         21   -1    0    0  501  502 -0.00000000000E+00 -0.00000000000E+00 -0.34449522921E+03  0.34449522921E+03  0.00000000000E+00 0. -1.
      99926    2    1    2    0    0  0.00000000000E+00  0.14210854715E-13 -0.19380829164E+03  0.49518216678E+03  0.45567940966E+03 0.  0.
      99925    2    3    3    0    0 -0.85529373885E+02 -0.68361920977E+02 -0.15577274797E+03  0.32464525957E+03  0.26294632440E+03 0.  0.
         25    1    4    4    0    0 -0.28934212575E+02 -0.62826613620E+02 -0.10805673259E+03  0.17918743704E+03  0.12509000000E+03 0.  0.
         25    1    4    4    0    0 -0.56595161310E+02 -0.55353073569E+01 -0.47716015387E+02  0.14545782253E+03  0.12509000000E+03 0.  0.
         25    1    3    3    0    0  0.85529373885E+02  0.68361920977E+02 -0.38035543663E+02  0.17053690720E+03  0.12509000000E+03 0.  0.
<mgrwt>
<rscale>  2 0.45567941E+03</rscale>
<asrwt>0</asrwt>
<pdfrwt beam="1">  1       21 0.22159844E-01 0.45567941E+03</pdfrwt>
<pdfrwt beam="2">  1       21 0.50661062E-01 0.45567941E+03</pdfrwt>
<totfact> 0.65257786E+04</totfact>
</mgrwt>
</event>
<event>
 7    0  0.4709932E-002  0.4526850E+03  0.7546771E-02  0.1026924E+00
         21   -1    0    0  502  501  0.00000000000E+00  0.00000000000E+00  0.64816416241E+03  0.64816416241E+03  0.00000000000E+00 0. -1.
         21   -1    0    0  501  502 -0.00000000000E+00 -0.00000000000E+00 -0.79040044661E+02  0.79040044661E+02  0.00000000000E+00 0. -1.
      99926    2    1    2    0    0  0.00000000000E+00  0.00000000000E+00  0.56912411774E+03  0.72720420707E+03  0.45268498691E+03 0.  0.
      99925    2    3    3    0    0  0.25976815009E+02  0.56801691778E+02  0.21156214668E+03  0.34327804443E+03  0.26302100063E+03 0.  0.
         25    1    4    4    0    0 -0.57222165501E+01 -0.87560349957E+01  0.10208239469E+03  0.16179535011E+03  0.12509000000E+03 0.  0.
         25    1    3    3    0    0 -0.25976815009E+02 -0.56801691778E+02  0.35756197107E+03  0.38392616264E+03  0.12509000000E+03 0.  0.
         25    1    4    4    0    0  0.31699031559E+02  0.65557726773E+02  0.10947975199E+03  0.18148269432E+03  0.12509000000E+03 0.  0.
<mgrwt>
<rscale>  2 0.45268499E+03</rscale>
<asrwt>0</asrwt>
<pdfrwt beam="1">  1       21 0.95318256E-01 0.45268499E+03</pdfrwt>
<pdfrwt beam="2">  1       21 0.11623536E-01 0.45268499E+03</pdfrwt>
<totfact> 0.52398185E+04</totfact>
</mgrwt>
</event>
<event>
 7    0  0.4709932E-002  0.4549131E+03  0.7546771E-02  0.1026267E+00
         21   -1    0    0  502  501  0.00000000000E+00  0.00000000000E+00  0.15797025581E+03  0.15797025581E+03  0.00000000000E+00 0. -1.
         21   -1    0    0  501  502 -0.00000000000E+00 -0.00000000000E+00 -0.32750781055E+03  0.32750781055E+03  0.00000000000E+00 0. -1.
      99926    2    1    2    0    0  0.71054273576E-14  0.00000000000E+00 -0.16953755474E+03  0.48547806636E+03  0.45491314605E+03 0.  0.
      99925    2    3    3    0    0 -0.32848018873E+02  0.71596145767E+02 -0.19328555901E+03  0.33575673776E+03  0.26299862965E+03 0.  0.
         25    1    3    3    0    0  0.32848018873E+02 -0.71596145767E+02  0.23748004264E+02  0.14972132860E+03  0.12509000000E+03 0.  0.
         25    1    4    4    0    0 -0.46740489554E+02  0.41899025562E+02 -0.67603994300E+02  0.15542847182E+03  0.12509000000E+03 0.  0.
         25    1    4    4    0    0  0.13892470682E+02  0.29697120205E+02 -0.12568156470E+03  0.18032826594E+03  0.12509000000E+03 0.  0.
<mgrwt>
<rscale>  2 0.45491315E+03</rscale>
<asrwt>0</asrwt>
<pdfrwt beam="1">  1       21 0.23230920E-01 0.45491315E+03</pdfrwt>
<pdfrwt beam="2">  1       21 0.48162913E-01 0.45491315E+03</pdfrwt>
<totfact> 0.66349186E+04</totfact>
</mgrwt>
</event>
<event>
 7    0  0.4709932E-002  0.4573123E+03  0.7546771E-02  0.1025564E+00
         21   -1    0    0  502  501  0.00000000000E+00  0.00000000000E+00  0.19302846021E+04  0.19302846021E+04  0.00000000000E+00 0. -1.
         21   -1    0    0  501  502 -0.00000000000E+00 -0.00000000000E+00 -0.27085975839E+02  0.27085975839E+02  0.00000000000E+00 0. -1.
      99926    2    1    2    0    0  0.71054273576E-14  0.00000000000E+00  0.19031986263E+04  0.19573705780E+04  0.45731233133E+03 0.  0.
      99925    2    3    3    0    0  0.38486004118E+02 -0.87473104217E+02  0.91899158910E+03  0.96065411045E+03  0.26301722873E+03 0.  0.
         25    1    4    4    0    0  0.37327257226E-01 -0.64087274105E+01  0.44498785830E+03  0.46227997503E+03  0.12509000000E+03 0.  0.
         25    1    4    4    0    0  0.38448676861E+02 -0.81064376806E+02  0.47400373080E+03  0.49837413542E+03  0.12509000000E+03 0.  0.
         25    1    3    3    0    0 -0.38486004118E+02  0.87473104217E+02  0.98420703719E+03  0.99671646752E+03  0.12509000000E+03 0.  0.
<mgrwt>
<rscale>  2 0.45731233E+03</rscale>
<asrwt>0</asrwt>
<pdfrwt beam="1">  1       21 0.28386529E+00 0.45731233E+03</pdfrwt>
<pdfrwt beam="2">  1       21 0.39832331E-02 0.45731233E+03</pdfrwt>
<totfact> 0.14162721E+04</totfact>
</mgrwt>
</event>
<event>
 7    0  0.4709932E-002  0.4786905E+03  0.7546771E-02  0.1019496E+00
         21   -1    0    0  502  501  0.00000000000E+00  0.00000000000E+00  0.20384060200E+03  0.20384060200E+03  0.00000000000E+00 0.  1.
         21   -1    0    0  501  502 -0.00000000000E+00 -0.00000000000E+00 -0.28103408162E+03  0.28103408162E+03  0.00000000000E+00 0.  1.
      99926    2    1    2    0    0  0.00000000000E+00  0.14210854715E-13 -0.77193479620E+02  0.48487468362E+03  0.47869053210E+03 0.  0.
      99925    2    3    3    0    0 -0.99255535740E+02 -0.89402373511E+02 -0.34358152056E+02  0.29692038292E+03  0.26293874841E+03 0.  0.
         25    1    4    4    0    0 -0.76278343828E+02 -0.76207139345E+02 -0.36086022281E+02  0.16904325757E+03  0.12509000000E+03 0.  0.
         25    1    3    3    0    0  0.99255535740E+02  0.89402373511E+02 -0.42835327564E+02  0.18795430070E+03  0.12509000000E+03 0.  0.
         25    1    4    4    0    0 -0.22977191912E+02 -0.13195234167E+02  0.17278702250E+01  0.12787712535E+03  0.12509000000E+03 0.  0.
<mgrwt>
<rscale>  2 0.47869053E+03</rscale>
<asrwt>0</asrwt>
<pdfrwt beam="1">  1       21 0.29976559E-01 0.47869053E+03</pdfrwt>
<pdfrwt beam="2">  1       21 0.41328541E-01 0.47869053E+03</pdfrwt>
<totfact> 0.55207077E+04</totfact>
</mgrwt>
</event>
<event>
 7    0  0.4709932E-002  0.4557226E+03  0.7546771E-02  0.1026029E+00
         21   -1    0    0  502  501  0.00000000000E+00  0.00000000000E+00  0.17903390917E+03  0.17903390917E+03  0.00000000000E+00 0.  1.
         21   -1    0    0  501  502 -0.00000000000E+00 -0.00000000000E+00 -0.29000519224E+03  0.29000519224E+03  0.00000000000E+00 0.  1.
      99926    2    1    2    0    0  0.00000000000E+00  0.00000000000E+00 -0.11097128307E+03  0.46903910141E+03  0.45572256142E+03 0.  0.
      99925    2    3    3    0    0  0.59369281371E+02  0.23248000050E+02  0.26710921036E+02  0.27239455279E+03  0.26347701610E+03 0.  0.
         25    1    4    4    0    0  0.30560072447E+02  0.19937955006E+02 -0.27229272947E+02  0.13311792322E+03  0.12509000000E+03 0.  0.
         25    1    3    3    0    0 -0.59369281371E+02 -0.23248000050E+02 -0.13768220410E+03  0.19664454862E+03  0.12509000000E+03 0.  0.
         25    1    4    4    0    0  0.28809208924E+02  0.33100450440E+01  0.53940193983E+02  0.13927662957E+03  0.12509000000E+03 0.  0.
<mgrwt>
<rscale>  2 0.45572256E+03</rscale>
<asrwt>0</asrwt>
<pdfrwt beam="1">  1       21 0.26328516E-01 0.45572256E+03</pdfrwt>
<pdfrwt beam="2">  1       21 0.42647822E-01 0.45572256E+03</pdfrwt>
<totfact> 0.67121777E+04</totfact>
</mgrwt>
</event>
<event>
 7    0  0.4709932E-002  0.4571744E+03  0.7546771E-02  0.1025604E+00
         21   -1    0    0  502  501  0.00000000000E+00  0.00000000000E+00  0.89047485755E+03  0.89047485755E+03  0.00000000000E+00 0.  1.
         21   -1    0    0  501  502 -0.00000000000E+00 -0.00000000000E+00 -0.58678930563E+02  0.58678930563E+02  0.00000000000E+00 0.  1.
      99926    2    1    2    0    0  0.00000000000E+00  0.00000000000E+00  0.83179592698E+03  0.94915378811E+03  0.45717441894E+03 0.  0.
      99925    2    3    3    0    0 -0.23340285170E+02  0.58089959414E+02  0.32228609030E+03  0.42079122881E+03  0.26320661455E+03 0.  0.
         25    1    4    4    0    0  0.60573093094E+01  0.31037853501E+01  0.11051687327E+03  0.16705631343E+03  0.12509000000E+03 0.  0.
         25    1    3    3    0    0  0.23340285170E+02 -0.58089959414E+02  0.50950983668E+03  0.52836255930E+03  0.12509000000E+03 0.  0.
         25    1    4    4    0    0 -0.29397594479E+02  0.54986174064E+02  0.21176921704E+03  0.25373491538E+03  0.12509000000E+03 0.  0.
<mgrwt>
<rscale>  2 0.45717442E+03</rscale>
<asrwt>0</asrwt>
<pdfrwt beam="1">  1       21 0.13095218E+00 0.45717442E+03</pdfrwt>
<pdfrwt beam="2">  1       21 0.86292551E-02 0.45717442E+03</pdfrwt>
<totfact> 0.40482345E+04</totfact>
</mgrwt>
</event>
<event>
 7    0  0.4709932E-002  0.4565391E+03  0.7546771E-02  0.1025790E+00
         21   -1    0    0  502  501  0.00000000000E+00  0.00000000000E+00  0.33247643262E+03  0.33247643262E+03  0.00000000000E+00 0. -1.
         21   -1    0    0  501  502 -0.00000000000E+00 -0.00000000000E+00 -0.15672384284E+03  0.15672384284E+03  0.00000000000E+00 0. -1.
      99926    2    1    2    0    0  0.71054273576E-14  0.00000000000E+00  0.17575258978E+03  0.48920027546E+03  0.45653908561E+03 0.  0.
      99925    2    3    3    0    0  0.62866529695E+02 -0.37601628984E+02  0.20492524401E+03  0.34133332542E+03  0.26296007369E+03 0.  0.
         25    1    3    3    0    0 -0.62866529695E+02  0.37601628984E+02 -0.29172654229E+02  0.14786695004E+03  0.12509000000E+03 0.  0.
         25    1    4    4    0    0  0.15463304678E+02 -0.36036196475E+02  0.14274982821E+03  0.19381110082E+03  0.12509000000E+03 0.  0.
         25    1    4    4    0    0  0.47403225018E+02 -0.15654325095E+01  0.62175415799E+02  0.14752222460E+03  0.12509000000E+03 0.  0.
<mgrwt>
<rscale>  2 0.45653909E+03</rscale>
<asrwt>0</asrwt>
<pdfrwt beam="1">  1       21 0.48893593E-01 0.45653909E+03</pdfrwt>
<pdfrwt beam="2">  1       21 0.23047624E-01 0.45653909E+03</pdfrwt>
<totfact> 0.65235527E+04</totfact>
</mgrwt>
</event>
<event>
 7    0  0.4709932E-002  0.4538271E+03  0.7546771E-02  0.1026587E+00
         21   -1    0    0  502  501  0.00000000000E+00  0.00000000000E+00  0.79175781343E+03  0.79175781343E+03  0.00000000000E+00 0.  1.
         21   -1    0    0  501  502 -0.00000000000E+00 -0.00000000000E+00 -0.65032197628E+02  0.65032197628E+02  0.00000000000E+00 0.  1.
      99926    2    1    2    0    0 -0.17763568394E-14  0.00000000000E+00  0.72672561580E+03  0.85679001106E+03  0.45382706220E+03 0.  0.
      99925    2    3    3    0    0  0.90395062579E+01  0.55744782296E+02  0.27524315490E+03  0.38490748963E+03  0.26306992954E+03 0.  0.
         25    1    4    4    0    0  0.44384987617E+02  0.19844274635E+02  0.13814400235E+03  0.19260087188E+03  0.12509000000E+03 0.  0.
         25    1    3    3    0    0 -0.90395062579E+01 -0.55744782296E+02  0.45148246091E+03  0.47188252143E+03  0.12509000000E+03 0.  0.
         25    1    4    4    0    0 -0.35345481359E+02  0.35900507661E+02  0.13709915255E+03  0.19230661775E+03  0.12509000000E+03 0.  0.
<mgrwt>
<rscale>  2 0.45382706E+03</rscale>
<asrwt>0</asrwt>
<pdfrwt beam="1">  1       21 0.11643497E+00 0.45382706E+03</pdfrwt>
<pdfrwt beam="2">  1       21 0.95635589E-02 0.45382706E+03</pdfrwt>
<totfact> 0.45554812E+04</totfact>
</mgrwt>
</event>
<event>
 7    0  0.4709932E-002  0.4583374E+03  0.7546771E-02  0.1025265E+00
         21   -1    0    0  502  501  0.00000000000E+00  0.00000000000E+00  0.34704840813E+03  0.34704840813E+03  0.00000000000E+00 0.  1.
         21   -1    0    0  501  502 -0.00000000000E+00 -0.00000000000E+00 -0.15132845924E+03  0.15132845924E+03  0.00000000000E+00 0.  1.
      99926    2    1    2    0    0  0.00000000000E+00  0.00000000000E+00  0.19571994888E+03  0.49837686737E+03  0.45833743414E+03 0.  0.
      99925    2    3    3    0    0  0.93460514226E+02 -0.56990460551E+02  0.80244770813E+02  0.29597922616E+03  0.26302414103E+03 0.  0.
         25    1    4    4    0    0  0.59795838846E+02 -0.62986706514E+02  0.64377804148E+02  0.16533262626E+03  0.12509000000E+03 0.  0.
         25    1    3    3    0    0 -0.93460514226E+02  0.56990460551E+02  0.11547517807E+03  0.20239764120E+03  0.12509000000E+03 0.  0.
         25    1    4    4    0    0  0.33664675380E+02  0.59962459626E+01  0.15866966664E+02  0.13064659990E+03  0.12509000000E+03 0.  0.
<mgrwt>
<rscale>  2 0.45833743E+03</rscale>
<asrwt>0</asrwt>
<pdfrwt beam="1">  1       21 0.51036531E-01 0.45833743E+03</pdfrwt>
<pdfrwt beam="2">  1       21 0.22254185E-01 0.45833743E+03</pdfrwt>
<totfact> 0.63680885E+04</totfact>
</mgrwt>
</event>
<event>
 7    0  0.4709932E-002  0.4468878E+03  0.7546771E-02  0.1028654E+00
         21   -1    0    0  502  501  0.00000000000E+00  0.00000000000E+00  0.31714117688E+03  0.31714117688E+03  0.00000000000E+00 0. -1.
         21   -1    0    0  501  502 -0.00000000000E+00 -0.00000000000E+00 -0.15742889180E+03  0.15742889180E+03  0.00000000000E+00 0. -1.
      99926    2    1    2    0    0 -0.35527136788E-14  0.00000000000E+00  0.15971228508E+03  0.47457006867E+03  0.44688783389E+03 0.  0.
      99925    2    3    3    0    0  0.16495164767E+02 -0.87319372803E+01 -0.91999385861E+01  0.26355541375E+03  0.26273271600E+03 0.  0.
         25    1    4    4    0    0  0.47219883633E+02  0.53593366996E+01 -0.38506341545E+01  0.13386850034E+03  0.12509000000E+03 0.  0.
         25    1    3    3    0    0 -0.16495164767E+02  0.87319372803E+01  0.16891222366E+03  0.21101465492E+03  0.12509000000E+03 0.  0.
         25    1    4    4    0    0 -0.30724718866E+02 -0.14091273980E+02 -0.53493044316E+01  0.12968691341E+03  0.12509000000E+03 0.  0.
<mgrwt>
<rscale>  2 0.44688783E+03</rscale>
<asrwt>0</asrwt>
<pdfrwt beam="1">  1       21 0.46638408E-01 0.44688783E+03</pdfrwt>
<pdfrwt beam="2">  1       21 0.23151308E-01 0.44688783E+03</pdfrwt>
<totfact> 0.71597685E+04</totfact>
</mgrwt>
</event>
<event>
 7    0  0.4709932E-002  0.4554432E+03  0.7546771E-02  0.1026111E+00
         21   -1    0    0  502  501  0.00000000000E+00  0.00000000000E+00  0.61804619228E+02  0.61804619228E+02  0.00000000000E+00 0. -1.
         21   -1    0    0  501  502 -0.00000000000E+00 -0.00000000000E+00 -0.83904932173E+03  0.83904932173E+03  0.00000000000E+00 0. -1.
      99926    2    1    2    0    0  0.00000000000E+00  0.71054273576E-14 -0.77724470250E+03  0.90085394095E+03  0.45544318567E+03 0.  0.
      99925    2    3    3    0    0  0.45353069112E+02 -0.47558293844E+02 -0.67256337636E+03  0.72500064888E+03  0.26261331548E+03 0.  0.
         25    1    4    4    0    0  0.38533334385E+02 -0.61366306951E+02 -0.34876305696E+03  0.37753651411E+03  0.12509000000E+03 0.  0.
         25    1    3    3    0    0 -0.45353069112E+02  0.47558293844E+02 -0.10468132614E+03  0.17585329208E+03  0.12509000000E+03 0.  0.
         25    1    4    4    0    0  0.68197347271E+01  0.13808013107E+02 -0.32380031940E+03  0.34746413477E+03  0.12509000000E+03 0.  0.
<mgrwt>
<rscale>  2 0.45544319E+03</rscale>
<asrwt>0</asrwt>
<pdfrwt beam="1">  1       21 0.90889153E-02 0.45544319E+03</pdfrwt>
<pdfrwt beam="2">  1       21 0.12338960E+00 0.45544319E+03</pdfrwt>
<totfact> 0.43047228E+04</totfact>
</mgrwt>
</event>
<event>
 7    0  0.4709932E-002  0.4349587E+03  0.7546771E-02  0.1032305E+00
         21   -1    0    0  502  501  0.00000000000E+00  0.00000000000E+00  0.97747748184E+02  0.97747748184E+02  0.00000000000E+00 0.  1.
         21   -1    0    0  501  502 -0.00000000000E+00 -0.00000000000E+00 -0.48387069284E+03  0.48387069284E+03  0.00000000000E+00 0.  1.
      99926    2    1    2    0    0 -0.66613381478E-15  0.00000000000E+00 -0.38612294466E+03  0.58161844102E+03  0.43495871361E+03 0.  0.
      99925    2    3    3    0    0 -0.19392849338E+01  0.91740751851E+02 -0.27032767424E+03  0.38803078871E+03  0.26281308026E+03 0.  0.
         25    1    4    4    0    0  0.24463016954E+02  0.41190251736E+02 -0.90430680078E+02  0.16161773429E+03  0.12509000000E+03 0.  0.
         25    1    3    3    0    0  0.19392849338E+01 -0.91740751851E+02 -0.11579527042E+03  0.19358765231E+03  0.12509000000E+03 0.  0.
         25    1    4    4    0    0 -0.26402301887E+02  0.50550500115E+02 -0.17989699416E+03  0.22641305442E+03  0.12509000000E+03 0.  0.
<mgrwt>
<rscale>  2 0.43495871E+03</rscale>
<asrwt>0</asrwt>
<pdfrwt beam="1">  1       21 0.14374669E-01 0.43495871E+03</pdfrwt>
<pdfrwt beam="2">  1       21 0.71157453E-01 0.43495871E+03</pdfrwt>
<totfact> 0.70319747E+04</totfact>
</mgrwt>
</event>
<event>
 7    0  0.4709932E-002  0.4492579E+03  0.7546771E-02  0.1027944E+00
         21   -1    0    0  502  501  0.00000000000E+00  0.00000000000E+00  0.93914282374E+03  0.93914282374E+03  0.00000000000E+00 0.  1.
         21   -1    0    0  501  502 -0.00000000000E+00 -0.00000000000E+00 -0.53727887409E+02  0.53727887409E+02  0.00000000000E+00 0.  1.
      99926    2    1    2    0    0  0.00000000000E+00  0.00000000000E+00  0.88541493633E+03  0.99287071115E+03  0.44925787648E+03 0.  0.
      99925    2    3    3    0    0  0.67267119138E+02  0.29529805283E+02  0.73324767991E+03  0.78263451839E+03  0.26356736250E+03 0.  0.
         25    1    4    4    0    0  0.66774725559E+02  0.41540750055E+02  0.41077996919E+03  0.43654574684E+03  0.12509000000E+03 0.  0.
         25    1    4    4    0    0  0.49239357938E+00 -0.12010944772E+02  0.32246771071E+03  0.34608877156E+03  0.12509000000E+03 0.  0.
         25    1    3    3    0    0 -0.67267119138E+02 -0.29529805283E+02  0.15216725642E+03  0.21023619276E+03  0.12509000000E+03 0.  0.
<mgrwt>
<rscale>  2 0.44925788E+03</rscale>
<asrwt>0</asrwt>
<pdfrwt beam="1">  1       21 0.13810923E+00 0.44925788E+03</pdfrwt>
<pdfrwt beam="2">  1       21 0.79011605E-02 0.44925788E+03</pdfrwt>
<totfact> 0.41265072E+04</totfact>
</mgrwt>
</event>
<event>
 7    0  0.4709932E-002  0.4335071E+03  0.7546771E-02  0.1032758E+00
         21   -1    0    0  502  501  0.00000000000E+00  0.00000000000E+00  0.10796764047E+03  0.10796764047E+03  0.00000000000E+00 0. -1.
         21   -1    0    0  501  502 -0.00000000000E+00 -0.00000000000E+00 -0.43514974217E+03  0.43514974217E+03  0.00000000000E+00 0. -1.
      99926    2    1    2    0    0  0.00000000000E+00  0.00000000000E+00 -0.32718210170E+03  0.54311738264E+03  0.43350705145E+03 0.  0.
      99925    2    3    3    0    0 -0.42182620587E+02  0.67189362653E+02 -0.15314685842E+03  0.31457951284E+03  0.26308273550E+03 0.  0.
         25    1    4    4    0    0  0.63315010931E+01  0.23664314746E+02 -0.39515259734E+02  0.13345055845E+03  0.12509000000E+03 0.  0.
         25    1    4    4    0    0 -0.48514121680E+02  0.43525047906E+02 -0.11363159869E+03  0.18112895439E+03  0.12509000000E+03 0.  0.
         25    1    3    3    0    0  0.42182620587E+02 -0.67189362653E+02 -0.17403524328E+03  0.22853786981E+03  0.12509000000E+03 0.  0.
<mgrwt>
<rscale>  2 0.43350705E+03</rscale>
<asrwt>0</asrwt>
<pdfrwt beam="1">  1       21 0.15877594E-01 0.43350705E+03</pdfrwt>
<pdfrwt beam="2">  1       21 0.63992609E-01 0.43350705E+03</pdfrwt>
<totfact> 0.74153364E+04</totfact>
</mgrwt>
</event>
<event>
 7    0  0.4709932E-002  0.4557933E+03  0.7546771E-02  0.1026008E+00
         21   -1    0    0  502  501  0.00000000000E+00  0.00000000000E+00  0.60292755966E+02  0.60292755966E+02  0.00000000000E+00 0.  1.
         21   -1    0    0  501  502 -0.00000000000E+00 -0.00000000000E+00 -0.86141180916E+03  0.86141180916E+03  0.00000000000E+00 0.  1.
      99926    2    1    2    0    0  0.00000000000E+00  0.00000000000E+00 -0.80111905319E+03  0.92170456512E+03  0.45579333912E+03 0.  0.
      99925    2    3    3    0    0 -0.85085446357E+02 -0.33748384163E+02 -0.64106195258E+03  0.69889462331E+03  0.26289690152E+03 0.  0.
         25    1    4    4    0    0 -0.45984807801E+02  0.79684057359E+00 -0.40882893141E+03  0.43000446598E+03  0.12509000000E+03 0.  0.
         25    1    3    3    0    0  0.85085446357E+02  0.33748384163E+02 -0.16005710061E+03  0.22280994182E+03  0.12509000000E+03 0.  0.
         25    1    4    4    0    0 -0.39100638557E+02 -0.34545224737E+02 -0.23223302116E+03  0.26889015732E+03  0.12509000000E+03 0.  0.
<mgrwt>
<rscale>  2 0.45579334E+03</rscale>
<asrwt>0</asrwt>
<pdfrwt beam="1">  1       21 0.88665818E-02 0.45579334E+03</pdfrwt>
<pdfrwt beam="2">  1       21 0.12667821E+00 0.45579334E+03</pdfrwt>
<totfact> 0.42046855E+04</totfact>
</mgrwt>
</event>
<event>
 7    0  0.4709932E-002  0.4595372E+03  0.7546771E-02  0.1024916E+00
         21   -1    0    0  502  501  0.00000000000E+00  0.00000000000E+00  0.20725467341E+03  0.20725467341E+03  0.00000000000E+00 0.  1.
         21   -1    0    0  501  502 -0.00000000000E+00 -0.00000000000E+00 -0.25472814738E+03  0.25472814738E+03  0.00000000000E+00 0.  1.
      99926    2    1    2    0    0  0.00000000000E+00  0.88817841970E-15 -0.47473473973E+02  0.46198282079E+03  0.45953715407E+03 0.  0.
      99925    2    3    3    0    0  0.20431942621E+02  0.59361300524E+01  0.86105542722E+02  0.27774502955E+03  0.26320227019E+03 0.  0.
         25    1    3    3    0    0 -0.20431942621E+02 -0.59361300524E+01 -0.13357901669E+03  0.18423779124E+03  0.12509000000E+03 0.  0.
         25    1    4    4    0    0  0.23345240968E+02 -0.32577320519E+02  0.26980643051E+02  0.13409603010E+03  0.12509000000E+03 0.  0.
         25    1    4    4    0    0 -0.29132983463E+01  0.38513450572E+02  0.59124899670E+02  0.14364899945E+03  0.12509000000E+03 0.  0.
<mgrwt>
<rscale>  2 0.45953715E+03</rscale>
<asrwt>0</asrwt>
<pdfrwt beam="1">  1       21 0.30478628E-01 0.45953715E+03</pdfrwt>
<pdfrwt beam="2">  1       21 0.37460022E-01 0.45953715E+03</pdfrwt>
<totfact> 0.65629077E+04</totfact>
</mgrwt>
</event>
<event>
 7    0  0.4709932E-002  0.4550457E+03  0.7546771E-02  0.1026228E+00
         21   -1    0    0  502  501  0.00000000000E+00  0.00000000000E+00  0.27600758170E+03  0.27600758170E+03  0.00000000000E+00 0. -1.
         21   -1    0    0  501  502 -0.00000000000E+00 -0.00000000000E+00 -0.18755516358E+03  0.18755516358E+03  0.00000000000E+00 0. -1.
      99926    2    1    2    0    0 -0.71054273576E-14  0.35527136788E-14  0.88452418126E+02  0.46356274528E+03  0.45504569940E+03 0.  0.
      99925    2    3    3    0    0 -0.60162414123E+02  0.25350672636E+02  0.14954186223E+03  0.30980449036E+03  0.26335125025E+03 0.  0.
         25    1    4    4    0    0 -0.70155876045E+02  0.19353843287E+02  0.93072419680E+02  0.17206510860E+03  0.12509000000E+03 0.  0.
         25    1    3    3    0    0  0.60162414123E+02 -0.25350672636E+02 -0.61089444108E+02  0.15375825493E+03  0.12509000000E+03 0.  0.
         25    1    4    4    0    0  0.99934619218E+01  0.59968293493E+01  0.56469442555E+02  0.13773938175E+03  0.12509000000E+03 0.  0.
<mgrwt>
<rscale>  2 0.45504570E+03</rscale>
<asrwt>0</asrwt>
<pdfrwt beam="1">  1       21 0.40589350E-01 0.45504570E+03</pdfrwt>
<pdfrwt beam="2">  1       21 0.27581642E-01 0.45504570E+03</pdfrwt>
<totfact> 0.67892355E+04</totfact>
</mgrwt>
</event>
<event>
 7    0  0.4709932E-002  0.4547538E+03  0.7546771E-02  0.1026314E+00
         21   -1    0    0  502  501  0.00000000000E+00  0.00000000000E+00  0.29038431344E+03  0.29038431344E+03  0.00000000000E+00 0. -1.
         21   -1    0    0  501  502 -0.00000000000E+00 -0.00000000000E+00 -0.17804080207E+03  0.17804080207E+03  0.00000000000E+00 0. -1.
      99926    2    1    2    0    0  0.00000000000E+00 -0.14210854715E-13  0.11234351137E+03  0.46842511550E+03  0.45475380624E+03 0.  0.
      99925    2    3    3    0    0 -0.17442162653E+02 -0.10772185873E+03  0.40616318858E+02  0.28759224755E+03  0.26296651423E+03 0.  0.
         25    1    3    3    0    0  0.17442162653E+02  0.10772185873E+03  0.71727192510E+02  0.18083286795E+03  0.12509000000E+03 0.  0.
         25    1    4    4    0    0  0.12529442620E+02 -0.89539769758E+02  0.13932433586E+02  0.15497089438E+03  0.12509000000E+03 0.  0.
         25    1    4    4    0    0 -0.29971605273E+02 -0.18182088974E+02  0.26683885271E+02  0.13262135316E+03  0.12509000000E+03 0.  0.
<mgrwt>
<rscale>  2 0.45475381E+03</rscale>
<asrwt>0</asrwt>
<pdfrwt beam="1">  1       21 0.42703576E-01 0.45475381E+03</pdfrwt>
<pdfrwt beam="2">  1       21 0.26182471E-01 0.45475381E+03</pdfrwt>
<totfact> 0.67685180E+04</totfact>
</mgrwt>
</event>
<event>
 7    0  0.4709932E-002  0.4496763E+03  0.7546771E-02  0.1027819E+00
         21   -1    0    0  502  501  0.00000000000E+00  0.00000000000E+00  0.42622324864E+02  0.42622324864E+02  0.00000000000E+00 0. -1.
         21   -1    0    0  501  502 -0.00000000000E+00 -0.00000000000E+00 -0.11860496545E+04  0.11860496545E+04  0.00000000000E+00 0. -1.
      99926    2    1    2    0    0  0.00000000000E+00  0.71054273576E-14 -0.11434273296E+04  0.12286719794E+04  0.44967629993E+03 0.  0.
      99925    2    3    3    0    0  0.43220404960E+02  0.61087475841E+02 -0.51004015969E+03  0.57872852162E+03  0.26303242031E+03 0.  0.
         25    1    4    4    0    0  0.92087917754E+01  0.48301699803E+02 -0.33157800068E+03  0.35778392178E+03  0.12509000000E+03 0.  0.
         25    1    3    3    0    0 -0.43220404960E+02 -0.61087475841E+02 -0.63338716994E+03  0.64994345774E+03  0.12509000000E+03 0.  0.
         25    1    4    4    0    0  0.34011613184E+02  0.12785776037E+02 -0.17846215900E+03  0.22094459984E+03  0.12509000000E+03 0.  0.
<mgrwt>
<rscale>  2 0.44967630E+03</rscale>
<asrwt>0</asrwt>
<pdfrwt beam="1">  1       21 0.62679888E-02 0.44967630E+03</pdfrwt>
<pdfrwt beam="2">  1       21 0.17441907E+00 0.44967630E+03</pdfrwt>
<totfact> 0.32588580E+04</totfact>
</mgrwt>
</event>
<event>
 7    0  0.4709932E-002  0.4517742E+03  0.7546771E-02  0.1027194E+00
         21   -1    0    0  502  501  0.00000000000E+00  0.00000000000E+00  0.27526653859E+03  0.27526653859E+03  0.00000000000E+00 0. -1.
         21   -1    0    0  501  502 -0.00000000000E+00 -0.00000000000E+00 -0.18536572905E+03  0.18536572905E+03  0.00000000000E+00 0. -1.
      99926    2    1    2    0    0  0.00000000000E+00  0.00000000000E+00  0.89900809536E+02  0.46063226764E+03  0.45177420294E+03 0.  0.
      99925    2    3    3    0    0 -0.11771998251E+02  0.10848878729E+03  0.42843001908E+02  0.28809142532E+03  0.26315917165E+03 0.  0.
         25    1    4    4    0    0 -0.45686789378E+01  0.61092252909E+02 -0.18941155899E+02  0.14056817449E+03  0.12509000000E+03 0.  0.
         25    1    3    3    0    0  0.11771998251E+02 -0.10848878729E+03  0.47057807628E+02  0.17254084232E+03  0.12509000000E+03 0.  0.
         25    1    4    4    0    0 -0.72033193135E+01  0.47396534378E+02  0.61784157807E+02  0.14752325083E+03  0.12509000000E+03 0.  0.
<mgrwt>
<rscale>  2 0.45177420E+03</rscale>
<asrwt>0</asrwt>
<pdfrwt beam="1">  1       21 0.40480373E-01 0.45177420E+03</pdfrwt>
<pdfrwt beam="2">  1       21 0.27259666E-01 0.45177420E+03</pdfrwt>
<totfact> 0.69911270E+04</totfact>
</mgrwt>
</event>
<event>
 7    0  0.4709932E-002  0.4555117E+03  0.7546771E-02  0.1026091E+00
         21   -1    0    0  502  501  0.00000000000E+00  0.00000000000E+00  0.77472707440E+02  0.77472707440E+02  0.00000000000E+00 0.  1.
         21   -1    0    0  501  502 -0.00000000000E+00 -0.00000000000E+00 -0.66956143141E+03  0.66956143141E+03  0.00000000000E+00 0.  1.
      99926    2    1    2    0    0  0.71054273576E-14  0.00000000000E+00 -0.59208872397E+03  0.74703413885E+03  0.45551174250E+03 0.  0.
      99925    2    3    3    0    0 -0.49710422744E+02  0.97467071366E+02 -0.42284798728E+03  0.50984035481E+03  0.26299393704E+03 0.  0.
         25    1    4    4    0    0 -0.35717932788E+02  0.77019631410E+02 -0.28109026442E+03  0.31916616237E+03  0.12509000000E+03 0.  0.
         25    1    3    3    0    0  0.49710422744E+02 -0.97467071366E+02 -0.16924073669E+03  0.23719378404E+03  0.12509000000E+03 0.  0.
         25    1    4    4    0    0 -0.13992489957E+02  0.20447439956E+02 -0.14175772285E+03  0.19067419245E+03  0.12509000000E+03 0.  0.
<mgrwt>
<rscale>  2 0.45551174E+03</rscale>
<asrwt>0</asrwt>
<pdfrwt beam="1">  1       21 0.11393045E-01 0.45551174E+03</pdfrwt>
<pdfrwt beam="2">  1       21 0.98464921E-01 0.45551174E+03</pdfrwt>
<totfact> 0.50220269E+04</totfact>
</mgrwt>
</event>
<event>
 7    0  0.4709932E-002  0.4321616E+03  0.7546771E-02  0.1033179E+00
         21   -1    0    0  502  501  0.00000000000E+00  0.00000000000E+00  0.21197498898E+03  0.21197498898E+03  0.00000000000E+00 0.  1.
         21   -1    0    0  501  502 -0.00000000000E+00 -0.00000000000E+00 -0.22026610986E+03  0.22026610986E+03  0.00000000000E+00 0.  1.
      99926    2    1    2    0    0  0.00000000000E+00  0.88817841970E-15 -0.82911208861E+01  0.43224109884E+03  0.43216157261E+03 0.  0.
      99925    2    3    3    0    0  0.77961114189E+02 -0.73706680447E+00 -0.51213813391E+02  0.27872124922E+03  0.26264843707E+03 0.  0.
         25    1    4    4    0    0  0.75052712717E+02 -0.12780701024E+02 -0.11468292402E+02  0.14688528121E+03  0.12509000000E+03 0.  0.
         25    1    3    3    0    0 -0.77961114189E+02  0.73706680447E+00  0.42922692504E+02  0.15351984961E+03  0.12509000000E+03 0.  0.
         25    1    4    4    0    0  0.29084014722E+01  0.12043634220E+02 -0.39745520989E+02  0.13183596802E+03  0.12509000000E+03 0.  0.
<mgrwt>
<rscale>  2 0.43216157E+03</rscale>
<asrwt>0</asrwt>
<pdfrwt beam="1">  1       21 0.31172792E-01 0.43216157E+03</pdfrwt>
<pdfrwt beam="2">  1       21 0.32392075E-01 0.43216157E+03</pdfrwt>
<totfact> 0.84652112E+04</totfact>
</mgrwt>
</event>
<event>
 7    0  0.4709932E-002  0.4575825E+03  0.7546771E-02  0.1025485E+00
         21   -1    0    0  502  501  0.00000000000E+00  0.00000000000E+00  0.56108363593E+02  0.56108363593E+02  0.00000000000E+00 0. -1.
         21   -1    0    0  501  502 -0.00000000000E+00 -0.00000000000E+00 -0.93293476371E+03  0.93293476371E+03  0.00000000000E+00 0. -1.
      99926    2    1    2    0    0  0.00000000000E+00  0.00000000000E+00 -0.87682640012E+03  0.98904312730E+03  0.45758252996E+03 0.  0.
      99925    2    3    3    0    0 -0.68105916298E+02  0.66338965675E+02 -0.69270103658E+03  0.74699162081E+03  0.26291154647E+03 0.  0.
         25    1    4    4    0    0  0.48243122825E+00  0.89580848123E+01 -0.33102821555E+03  0.35398823089E+03  0.12509000000E+03 0.  0.
         25    1    4    4    0    0 -0.68588347527E+02  0.57380880863E+02 -0.36167282104E+03  0.39300338991E+03  0.12509000000E+03 0.  0.
         25    1    3    3    0    0  0.68105916298E+02 -0.66338965675E+02 -0.18412536353E+03  0.24205150650E+03  0.12509000000E+03 0.  0.
<mgrwt>
<rscale>  2 0.45758253E+03</rscale>
<asrwt>0</asrwt>
<pdfrwt beam="1">  1       21 0.82512302E-02 0.45758253E+03</pdfrwt>
<pdfrwt beam="2">  1       21 0.13719629E+00 0.45758253E+03</pdfrwt>
<totfact> 0.38806867E+04</totfact>
</mgrwt>
</event>
<event>
 7    0  0.4709932E-002  0.4538240E+03  0.7546771E-02  0.1026588E+00
         21   -1    0    0  502  501  0.00000000000E+00  0.00000000000E+00  0.13384743507E+03  0.13384743507E+03  0.00000000000E+00 0.  1.
         21   -1    0    0  501  502 -0.00000000000E+00 -0.00000000000E+00 -0.38468470290E+03  0.38468470290E+03  0.00000000000E+00 0.  1.
      99926    2    1    2    0    0  0.00000000000E+00  0.00000000000E+00 -0.25083726783E+03  0.51853213797E+03  0.45382402226E+03 0.  0.
      99925    2    3    3    0    0  0.40219051292E+01 -0.80631563275E+02 -0.69246964366E+02  0.28371269430E+03  0.26302115146E+03 0.  0.
         25    1    4    4    0    0  0.27316521820E+02 -0.14194273893E+02 -0.52835632537E+02  0.13923642462E+03  0.12509000000E+03 0.  0.
         25    1    4    4    0    0 -0.23294616690E+02 -0.66437289383E+02 -0.16411331829E+02  0.14447626968E+03  0.12509000000E+03 0.  0.
         25    1    3    3    0    0 -0.40219051292E+01  0.80631563275E+02 -0.18159030346E+03  0.23481944367E+03  0.12509000000E+03 0.  0.
<mgrwt>
<rscale>  2 0.45382402E+03</rscale>
<asrwt>0</asrwt>
<pdfrwt beam="1">  1       21 0.19683447E-01 0.45382402E+03</pdfrwt>
<pdfrwt beam="2">  1       21 0.56571278E-01 0.45382402E+03</pdfrwt>
<totfact> 0.64587905E+04</totfact>
</mgrwt>
</event>
<event>
 7    0  0.4709932E-002  0.4520027E+03  0.7546771E-02  0.1027126E+00
         21   -1    0    0  502  501  0.00000000000E+00  0.00000000000E+00  0.71896507796E+03  0.71896507796E+03  0.00000000000E+00 0. -1.
         21   -1    0    0  501  502 -0.00000000000E+00 -0.00000000000E+00 -0.71041851759E+02  0.71041851759E+02  0.00000000000E+00 0. -1.
      99926    2    1    2    0    0 -0.14210854715E-13 -0.35527136788E-14  0.64792322620E+03  0.79000692972E+03  0.45200270127E+03 0.  0.
      99925    2    3    3    0    0 -0.99482115161E+02 -0.18116683372E+02  0.33167758601E+03  0.43520597355E+03  0.26300059487E+03 0.  0.
         25    1    4    4    0    0 -0.31163935750E+02 -0.15537736156E+02  0.10301666785E+03  0.16574846633E+03  0.12509000000E+03 0.  0.
         25    1    4    4    0    0 -0.68318179412E+02 -0.25789472161E+01  0.22866091815E+03  0.26945750722E+03  0.12509000000E+03 0.  0.
         25    1    3    3    0    0  0.99482115161E+02  0.18116683372E+02  0.31624564019E+03  0.35480095616E+03  0.12509000000E+03 0.  0.
<mgrwt>
<rscale>  2 0.45200270E+03</rscale>
<asrwt>0</asrwt>
<pdfrwt beam="1">  1       21 0.10573015E+00 0.45200270E+03</pdfrwt>
<pdfrwt beam="2">  1       21 0.10447332E-01 0.45200270E+03</pdfrwt>
<totfact> 0.49403959E+04</totfact>
</mgrwt>
</event>
<event>
 7    0  0.4709932E-002  0.4564535E+03  0.7546771E-02  0.1025815E+00
         21   -1    0    0  502  501  0.00000000000E+00  0.00000000000E+00  0.45412270582E+02  0.45412270582E+02  0.00000000000E+00 0. -1.
         21   -1    0    0  501  502 -0.00000000000E+00 -0.00000000000E+00 -0.11469907639E+04  0.11469907639E+04  0.00000000000E+00 0. -1.
      99926    2    1    2    0    0 -0.14210854715E-13  0.35527136788E-14 -0.11015784934E+04  0.11924030345E+04  0.45645352415E+03 0.  0.
      99925    2    3    3    0    0 -0.11202012110E+03  0.22128216823E+02 -0.67563174401E+03  0.73401858137E+03  0.26318597753E+03 0.  0.
         25    1    4    4    0    0 -0.28220757349E+02  0.41420840894E+02 -0.30007993887E+03  0.32894919823E+03  0.12509000000E+03 0.  0.
         25    1    4    4    0    0 -0.83799363756E+02 -0.19292624071E+02 -0.37555180514E+03  0.40506938314E+03  0.12509000000E+03 0.  0.
         25    1    3    3    0    0  0.11202012110E+03 -0.22128216823E+02 -0.42594674934E+03  0.45838445314E+03  0.12509000000E+03 0.  0.
<mgrwt>
<rscale>  2 0.45645352E+03</rscale>
<asrwt>0</asrwt>
<pdfrwt beam="1">  1       21 0.66782745E-02 0.45645352E+03</pdfrwt>
<pdfrwt beam="2">  1       21 0.16867513E+00 0.45645352E+03</pdfrwt>
<totfact> 0.32033375E+04</totfact>
</mgrwt>
</event>
<event>
 7    0  0.4709932E-002  0.4464578E+03  0.7546771E-02  0.1028784E+00
         21   -1    0    0  502  501  0.00000000000E+00  0.00000000000E+00  0.19711862794E+03  0.19711862794E+03  0.00000000000E+00 0. -1.
         21   -1    0    0  501  502 -0.00000000000E+00 -0.00000000000E+00 -0.25279778210E+03  0.25279778210E+03  0.00000000000E+00 0. -1.
      99926    2    1    2    0    0  0.00000000000E+00  0.00000000000E+00 -0.55679154158E+02  0.44991641003E+03  0.44645784550E+03 0.  0.
      99925    2    3    3    0    0  0.88044099554E+02 -0.46497409924E+02 -0.18536542366E+01  0.28122004037E+03  0.26299715298E+03 0.  0.
         25    1    4    4    0    0  0.71968717228E+02 -0.33678081571E+02 -0.30395271213E+02  0.15127818762E+03  0.12509000000E+03 0.  0.
         25    1    4    4    0    0  0.16075382326E+02 -0.12819328354E+02  0.28541616976E+02  0.12994185275E+03  0.12509000000E+03 0.  0.
         25    1    3    3    0    0 -0.88044099554E+02  0.46497409924E+02 -0.53825499921E+02  0.16869636966E+03  0.12509000000E+03 0.  0.
<mgrwt>
<rscale>  2 0.44645785E+03</rscale>
<asrwt>0</asrwt>
<pdfrwt beam="1">  1       21 0.28988033E-01 0.44645785E+03</pdfrwt>
<pdfrwt beam="2">  1       21 0.37176145E-01 0.44645785E+03</pdfrwt>
<totfact> 0.73824101E+04</totfact>
</mgrwt>
</event>
<event>
 7    0  0.4709932E-002  0.4812119E+03  0.7546771E-02  0.1018803E+00
         21   -1    0    0  502  501  0.00000000000E+00  0.00000000000E+00  0.84197095007E+03  0.84197095007E+03  0.00000000000E+00 0.  1.
         21   -1    0    0  501  502 -0.00000000000E+00 -0.00000000000E+00 -0.68756804506E+02  0.68756804506E+02  0.00000000000E+00 0.  1.
      99926    2    1    2    0    0  0.14210854715E-13  0.00000000000E+00  0.77321414557E+03  0.91072775458E+03  0.48121193673E+03 0.  0.
      99925    2    3    3    0    0 -0.11860626510E+03 -0.43142697225E+02  0.57371476666E+03  0.64356441740E+03  0.26286458000E+03 0.  0.
         25    1    3    3    0    0  0.11860626510E+03  0.43142697225E+02  0.19949937891E+03  0.26716333717E+03  0.12509000000E+03 0.  0.
         25    1    4    4    0    0 -0.25358730731E+02 -0.45043391291E+02  0.27872851363E+03  0.30985329550E+03  0.12509000000E+03 0.  0.
         25    1    4    4    0    0 -0.93247534374E+02  0.19006940661E+01  0.29498625303E+03  0.33371112190E+03  0.12509000000E+03 0.  0.
<mgrwt>
<rscale>  2 0.48121194E+03</rscale>
<asrwt>0</asrwt>
<pdfrwt beam="1">  1       21 0.12381925E+00 0.48121194E+03</pdfrwt>
<pdfrwt beam="2">  1       21 0.10111295E-01 0.48121194E+03</pdfrwt>
<totfact> 0.35015491E+04</totfact>
</mgrwt>
</event>
<event>
 7    0  0.4709932E-002  0.4556618E+03  0.7546771E-02  0.1026047E+00
         21   -1    0    0  502  501  0.00000000000E+00  0.00000000000E+00  0.24034723639E+03  0.24034723639E+03  0.00000000000E+00 0.  1.
         21   -1    0    0  501  502 -0.00000000000E+00 -0.00000000000E+00 -0.21596633195E+03  0.21596633195E+03  0.00000000000E+00 0.  1.
      99926    2    1    2    0    0  0.14210854715E-13  0.14210854715E-13  0.24380904439E+02  0.45631356834E+03  0.45566176507E+03 0.  0.
      99925    2    3    3    0    0  0.84285419564E+02  0.74631408413E+02  0.16775606843E+02  0.28785221454E+03  0.26439288447E+03 0.  0.
         25    1    4    4    0    0  0.81141525052E+02  0.41151086008E+02 -0.12074016472E+02  0.15514718477E+03  0.12509000000E+03 0.  0.
         25    1    4    4    0    0  0.31438945122E+01  0.33480322405E+02  0.28849623315E+02  0.13270502977E+03  0.12509000000E+03 0.  0.
         25    1    3    3    0    0 -0.84285419564E+02 -0.74631408413E+02  0.76052975965E+01  0.16846135380E+03  0.12509000000E+03 0.  0.
<mgrwt>
<rscale>  2 0.45566177E+03</rscale>
<asrwt>0</asrwt>
<pdfrwt beam="1">  1       21 0.35345182E-01 0.45566177E+03</pdfrwt>
<pdfrwt beam="2">  1       21 0.31759754E-01 0.45566177E+03</pdfrwt>
<totfact> 0.68089467E+04</totfact>
</mgrwt>
</event>
<event>
 7    0  0.4709932E-002  0.5594300E+03  0.7546771E-02  0.9993345E-01
         21   -1    0    0  502  501  0.00000000000E+00  0.00000000000E+00  0.14062533448E+03  0.14062533448E+03  0.00000000000E+00 0. -1.
         21   -1    0    0  501  502 -0.00000000000E+00 -0.00000000000E+00 -0.55637537032E+03  0.55637537032E+03  0.00000000000E+00 0. -1.
      99926    2    1    2    0    0  0.00000000000E+00  0.00000000000E+00 -0.41575003584E+03  0.69700070480E+03  0.55942996898E+03 0.  0.
      99925    2    3    3    0    0  0.17815001328E+03 -0.70737294945E+02 -0.29053686128E+03  0.43610409825E+03  0.26274307721E+03 0.  0.
         25    1    3    3    0    0 -0.17815001328E+03  0.70737294945E+02 -0.12521317456E+03  0.26089660655E+03  0.12509000000E+03 0.  0.
         25    1    4    4    0    0  0.95030695613E+02 -0.51528355555E+02 -0.10186698457E+03  0.19419164550E+03  0.12509000000E+03 0.  0.
         25    1    4    4    0    0  0.83119317664E+02 -0.19208939389E+02 -0.18866987671E+03  0.24191245275E+03  0.12509000000E+03 0.  0.
<mgrwt>
<rscale>  2 0.55942997E+03</rscale>
<asrwt>0</asrwt>
<pdfrwt beam="1">  1       21 0.20680196E-01 0.55942997E+03</pdfrwt>
<pdfrwt beam="2">  1       21 0.81819908E-01 0.55942997E+03</pdfrwt>
<totfact> 0.25095150E+04</totfact>
</mgrwt>
</event>
<event>
 7    0  0.4709932E-002  0.4573253E+03  0.7546771E-02  0.1025560E+00
         21   -1    0    0  502  501  0.00000000000E+00  0.00000000000E+00  0.44402877475E+03  0.44402877475E+03  0.00000000000E+00 0. -1.
         21   -1    0    0  501  502 -0.00000000000E+00 -0.00000000000E+00 -0.11775498159E+03  0.11775498159E+03  0.00000000000E+00 0. -1.
      99926    2    1    2    0    0  0.88817841970E-15 -0.71054273576E-14  0.32627379316E+03  0.56178375634E+03  0.45732526804E+03 0.  0.
      99925    2    3    3    0    0  0.43640962192E+01 -0.39218506371E+02  0.71764531828E+02  0.27546294191E+03  0.26300674470E+03 0.  0.
         25    1    4    4    0    0  0.15073624715E+02 -0.57941347175E+02  0.30557140579E+02  0.14200584782E+03  0.12509000000E+03 0.  0.
         25    1    4    4    0    0 -0.10709528496E+02  0.18722840805E+02  0.41207391248E+02  0.13345709409E+03  0.12509000000E+03 0.  0.
         25    1    3    3    0    0 -0.43640962192E+01  0.39218506371E+02  0.25450926133E+03  0.28632081444E+03  0.12509000000E+03 0.  0.
<mgrwt>
<rscale>  2 0.45732527E+03</rscale>
<asrwt>0</asrwt>
<pdfrwt beam="1">  1       21 0.65298349E-01 0.45732527E+03</pdfrwt>
<pdfrwt beam="2">  1       21 0.17316909E-01 0.45732527E+03</pdfrwt>
<totfact> 0.59983637E+04</totfact>
</mgrwt>
</event>
<event>
 7    0  0.4709932E-002  0.4244934E+03  0.7546771E-02  0.1035614E+00
         21   -1    0    0  502  501  0.00000000000E+00  0.00000000000E+00  0.98990563652E+02  0.98990563652E+02  0.00000000000E+00 0. -1.
         21   -1    0    0  501  502 -0.00000000000E+00 -0.00000000000E+00 -0.45508043672E+03  0.45508043672E+03  0.00000000000E+00 0. -1.
      99926    2    1    2    0    0  0.35527136788E-14  0.00000000000E+00 -0.35608987307E+03  0.55407100037E+03  0.42449343429E+03 0.  0.
      99925    2    3    3    0    0 -0.29783922133E+02 -0.42277454630E+02 -0.14865246925E+03  0.30637713733E+03  0.26285914189E+03 0.  0.
         25    1    3    3    0    0  0.29783922133E+02  0.42277454630E+02 -0.20743740382E+03  0.24769386304E+03  0.12509000000E+03 0.  0.
         25    1    4    4    0    0  0.16164490087E+02 -0.27416481909E+02 -0.10162794490E+03  0.16428238343E+03  0.12509000000E+03 0.  0.
         25    1    4    4    0    0 -0.45948412220E+02 -0.14860972721E+02 -0.47024524353E+02  0.14209475390E+03  0.12509000000E+03 0.  0.
<mgrwt>
<rscale>  2 0.42449343E+03</rscale>
<asrwt>0</asrwt>
<pdfrwt beam="1">  1       21 0.14557436E-01 0.42449343E+03</pdfrwt>
<pdfrwt beam="2">  1       21 0.66923592E-01 0.42449343E+03</pdfrwt>
<totfact> 0.79007828E+04</totfact>
</mgrwt>
</event>
<event>
 7    0  0.4709932E-002  0.4546522E+03  0.7546771E-02  0.1026344E+00
         21   -1    0    0  502  501  0.00000000000E+00  0.00000000000E+00  0.16882934299E+03  0.16882934299E+03  0.00000000000E+00 0. -1.
         21   -1    0    0  501  502 -0.00000000000E+00 -0.00000000000E+00 -0.30609108714E+03  0.30609108714E+03  0.00000000000E+00 0. -1.
      99926    2    1    2    0    0  0.00000000000E+00  0.14210854715E-13 -0.13726174415E+03  0.47492043012E+03  0.45465220614E+03 0.  0.
      99925    2    3    3    0    0  0.18359141289E+02 -0.10994706211E+03 -0.67676505734E+02  0.29349543725E+03  0.26293354241E+03 0.  0.
         25    1    3    3    0    0 -0.18359141289E+02  0.10994706211E+03 -0.69585238412E+02  0.18142499288E+03  0.12509000000E+03 0.  0.
         25    1    4    4    0    0  0.33997127744E+02 -0.37606036270E+02 -0.45929265949E+01  0.13505044144E+03  0.12509000000E+03 0.  0.
         25    1    4    4    0    0 -0.15637986455E+02 -0.72341025838E+02 -0.63083579139E+02  0.15844499581E+03  0.12509000000E+03 0.  0.
<mgrwt>
<rscale>  2 0.45465221E+03</rscale>
<asrwt>0</asrwt>
<pdfrwt beam="1">  1       21 0.24827845E-01 0.45465221E+03</pdfrwt>
<pdfrwt beam="2">  1       21 0.45013395E-01 0.45465221E+03</pdfrwt>
<totfact> 0.67257202E+04</totfact>
</mgrwt>
</event>
<event>
 7    0  0.4709932E-002  0.4557896E+03  0.7546771E-02  0.1026009E+00
         21   -1    0    0  502  501  0.00000000000E+00  0.00000000000E+00  0.50873298312E+03  0.50873298312E+03  0.00000000000E+00 0. -1.
         21   -1    0    0  501  502 -0.00000000000E+00 -0.00000000000E+00 -0.10208898921E+03  0.10208898921E+03  0.00000000000E+00 0. -1.
      99926    2    1    2    0    0  0.14210854715E-13 -0.35527136788E-14  0.40664399391E+03  0.61082197233E+03  0.45578958313E+03 0.  0.
      99925    2    3    3    0    0 -0.66265004019E+02 -0.12646824218E+02  0.37751156124E+03  0.46574544199E+03  0.26429688789E+03 0.  0.
         25    1    3    3    0    0  0.66265004019E+02  0.12646824218E+02  0.29132432676E+02  0.14507653033E+03  0.12509000000E+03 0.  0.
         25    1    4    4    0    0  0.15239136197E+01  0.20128668120E+02  0.18022412648E+03  0.22030826008E+03  0.12509000000E+03 0.  0.
         25    1    4    4    0    0 -0.67788917638E+02 -0.32775492337E+02  0.19728743475E+03  0.24543718191E+03  0.12509000000E+03 0.  0.
<mgrwt>
<rscale>  2 0.45578958E+03</rscale>
<asrwt>0</asrwt>
<pdfrwt beam="1">  1       21 0.74813673E-01 0.45578958E+03</pdfrwt>
<pdfrwt beam="2">  1       21 0.15013087E-01 0.45578958E+03</pdfrwt>
<totfact> 0.57656614E+04</totfact>
</mgrwt>
</event>
<event>
 7    0  0.4709932E-002  0.4525699E+03  0.7546771E-02  0.1026958E+00
         21   -1    0    0  502  501  0.00000000000E+00  0.00000000000E+00  0.11996980978E+03  0.11996980978E+03  0.00000000000E+00 0.  1.
         21   -1    0    0  501  502 -0.00000000000E+00 -0.00000000000E+00 -0.42681469604E+03  0.42681469604E+03  0.00000000000E+00 0.  1.
      99926    2    1    2    0    0  0.00000000000E+00  0.00000000000E+00 -0.30684488627E+03  0.54678450582E+03  0.45256989690E+03 0.  0.
      99925    2    3    3    0    0 -0.98452701269E+02 -0.35096990433E+02 -0.23809264135E+03  0.36986895420E+03  0.26304030925E+03 0.  0.
         25    1    3    3    0    0  0.98452701269E+02  0.35096990433E+02 -0.68752244918E+02  0.17691555162E+03  0.12509000000E+03 0.  0.
         25    1    4    4    0    0 -0.64667965186E+02 -0.30877651683E+02 -0.17176588387E+03  0.22424629776E+03  0.12509000000E+03 0.  0.
         25    1    4    4    0    0 -0.33784736083E+02 -0.42193387505E+01 -0.66326757477E+02  0.14562265644E+03  0.12509000000E+03 0.  0.
<mgrwt>
<rscale>  2 0.45256990E+03</rscale>
<asrwt>0</asrwt>
<pdfrwt beam="1">  1       21 0.17642619E-01 0.45256990E+03</pdfrwt>
<pdfrwt beam="2">  1       21 0.62766867E-01 0.45256990E+03</pdfrwt>
<totfact> 0.63287654E+04</totfact>
</mgrwt>
</event>
<event>
 7    0  0.4709932E-002  0.4564952E+03  0.7546771E-02  0.1025803E+00
         21   -1    0    0  502  501  0.00000000000E+00  0.00000000000E+00  0.54134181087E+02  0.54134181087E+02  0.00000000000E+00 0. -1.
         21   -1    0    0  501  502 -0.00000000000E+00 -0.00000000000E+00 -0.96236722668E+03  0.96236722668E+03  0.00000000000E+00 0. -1.
      99926    2    1    2    0    0 -0.71054273576E-14  0.71054273576E-14 -0.90823304560E+03  0.10165014078E+04  0.45649517729E+03 0.  0.
      99925    2    3    3    0    0  0.48901527827E+02 -0.36723958947E+02 -0.35523020530E+03  0.44623861041E+03  0.26305967018E+03 0.  0.
         25    1    4    4    0    0  0.20421239168E+02 -0.30541549134E+02 -0.11507920114E+03  0.17389808472E+03  0.12509000000E+03 0.  0.
         25    1    3    3    0    0 -0.48901527827E+02  0.36723958947E+02 -0.55300284029E+03  0.57026279736E+03  0.12509000000E+03 0.  0.
         25    1    4    4    0    0  0.28480288659E+02 -0.61824098131E+01 -0.24015100416E+03  0.27234052569E+03  0.12509000000E+03 0.  0.
<mgrwt>
<rscale>  2 0.45649518E+03</rscale>
<asrwt>0</asrwt>
<pdfrwt beam="1">  1       21 0.79609082E-02 0.45649518E+03</pdfrwt>
<pdfrwt beam="2">  1       21 0.14152461E+00 0.45649518E+03</pdfrwt>
<totfact> 0.38084450E+04</totfact>
</mgrwt>
</event>
<event>
 7    0  0.4709932E-002  0.4841856E+03  0.7546771E-02  0.1017991E+00
         21   -1    0    0  502  501  0.00000000000E+00  0.00000000000E+00  0.13783331492E+03  0.13783331492E+03  0.00000000000E+00 0. -1.
         21   -1    0    0  501  502 -0.00000000000E+00 -0.00000000000E+00 -0.42521598175E+03  0.42521598175E+03  0.00000000000E+00 0. -1.
      99926    2    1    2    0    0 -0.88817841970E-15  0.00000000000E+00 -0.28738266683E+03  0.56304929667E+03  0.48418561863E+03 0.  0.
      99925    2    3    3    0    0 -0.33163703139E+01  0.55469624143E+02 -0.32436781221E+03  0.42126323744E+03  0.26298357382E+03 0.  0.
         25    1    4    4    0    0  0.38058746662E+02  0.34649000842E+02 -0.17000405920E+03  0.21725079908E+03  0.12509000000E+03 0.  0.
         25    1    4    4    0    0 -0.41375116976E+02  0.20820623301E+02 -0.15436375301E+03  0.20401243835E+03  0.12509000000E+03 0.  0.
         25    1    3    3    0    0  0.33163703139E+01 -0.55469624143E+02  0.36985145377E+02  0.14178605923E+03  0.12509000000E+03 0.  0.
<mgrwt>
<rscale>  2 0.48418562E+03</rscale>
<asrwt>0</asrwt>
<pdfrwt beam="1">  1       21 0.20269605E-01 0.48418562E+03</pdfrwt>
<pdfrwt beam="2">  1       21 0.62531762E-01 0.48418562E+03</pdfrwt>
<totfact> 0.48739502E+04</totfact>
</mgrwt>
</event>
<event>
 7    0  0.4709932E-002  0.4573694E+03  0.7546771E-02  0.1025547E+00
         21   -1    0    0  502  501  0.00000000000E+00  0.00000000000E+00  0.30090773791E+02  0.30090773791E+02  0.00000000000E+00 0.  1.
         21   -1    0    0  501  502 -0.00000000000E+00 -0.00000000000E+00 -0.17379643903E+04  0.17379643903E+04  0.00000000000E+00 0.  1.
      99926    2    1    2    0    0  0.00000000000E+00 -0.14210854715E-13 -0.17078736165E+04  0.17680551641E+04  0.45736940574E+03 0.  0.
      99925    2    3    3    0    0  0.22980497372E+02  0.10146857168E+03 -0.12654044546E+04  0.12966207131E+04  0.26296932418E+03 0.  0.
         25    1    3    3    0    0 -0.22980497372E+02 -0.10146857168E+03 -0.44246916188E+03  0.47143445103E+03  0.12509000000E+03 0.  0.
         25    1    4    4    0    0 -0.10787834691E+02  0.66694220757E+02 -0.51229505889E+03  0.53165612187E+03  0.12509000000E+03 0.  0.
         25    1    4    4    0    0  0.33768332063E+02  0.34774350923E+02 -0.75310939576E+03  0.76496459122E+03  0.12509000000E+03 0.  0.
<mgrwt>
<rscale>  2 0.45736941E+03</rscale>
<asrwt>0</asrwt>
<pdfrwt beam="1">  1       21 0.44251152E-02 0.45736941E+03</pdfrwt>
<pdfrwt beam="2">  1       21 0.25558292E+00 0.45736941E+03</pdfrwt>
<totfact> 0.17556254E+04</totfact>
</mgrwt>
</event>
<event>
 7    0  0.4709932E-002  0.4387991E+03  0.7546771E-02  0.1031116E+00
         21   -1    0    0  502  501  0.00000000000E+00  0.00000000000E+00  0.96882778718E+03  0.96882778718E+03  0.00000000000E+00 0.  1.
         21   -1    0    0  501  502 -0.00000000000E+00 -0.00000000000E+00 -0.49684958196E+02  0.49684958196E+02  0.00000000000E+00 0.  1.
      99926    2    1    2    0    0  0.00000000000E+00  0.00000000000E+00  0.91914282898E+03  0.10185127454E+04  0.43879912536E+03 0.  0.
      99925    2    3    3    0    0 -0.45175181782E+02  0.41746676610E+02  0.76202553093E+03  0.80847242662E+03  0.26298511887E+03 0.  0.
         25    1    3    3    0    0  0.45175181782E+02 -0.41746676610E+02  0.15711729805E+03  0.21004031876E+03  0.12509000000E+03 0.  0.
         25    1    4    4    0    0 -0.33977702221E+02 -0.17614534675E+02  0.34884518192E+03  0.37256573263E+03  0.12509000000E+03 0.  0.
         25    1    4    4    0    0 -0.11197479561E+02  0.59361211285E+02  0.41318034901E+03  0.43590669399E+03  0.12509000000E+03 0.  0.
<mgrwt>
<rscale>  2 0.43879913E+03</rscale>
<asrwt>0</asrwt>
<pdfrwt beam="1">  1       21 0.14247466E+00 0.43879913E+03</pdfrwt>
<pdfrwt beam="2">  1       21 0.73066121E-02 0.43879913E+03</pdfrwt>
<totfact> 0.43729513E+04</totfact>
</mgrwt>
</event>
<event>
 7    0  0.4709932E-002  0.4556062E+03  0.7546771E-02  0.1026063E+00
         21   -1    0    0  502  501  0.00000000000E+00  0.00000000000E+00  0.61395121921E+02  0.61395121921E+02  0.00000000000E+00 0.  1.
         21   -1    0    0  501  502 -0.00000000000E+00 -0.00000000000E+00 -0.84525032906E+03  0.84525032906E+03  0.00000000000E+00 0.  1.
      99926    2    1    2    0    0  0.71054273576E-14  0.00000000000E+00 -0.78385520713E+03  0.90664545098E+03  0.45560617645E+03 0.  0.
      99925    2    3    3    0    0  0.42608980346E+02  0.71130923934E+02 -0.33906998878E+03  0.43722396435E+03  0.26328920251E+03 0.  0.
         25    1    4    4    0    0  0.32888539362E+02  0.11500526077E+01 -0.12859750133E+03  0.18239463833E+03  0.12509000000E+03 0.  0.
         25    1    4    4    0    0  0.97204409840E+01  0.69980871326E+02 -0.21047248746E+03  0.25482932602E+03  0.12509000000E+03 0.  0.
         25    1    3    3    0    0 -0.42608980346E+02 -0.71130923934E+02 -0.44478521835E+03  0.46942148663E+03  0.12509000000E+03 0.  0.
<mgrwt>
<rscale>  2 0.45560618E+03</rscale>
<asrwt>0</asrwt>
<pdfrwt beam="1">  1       21 0.90286948E-02 0.45560618E+03</pdfrwt>
<pdfrwt beam="2">  1       21 0.12430151E+00 0.45560618E+03</pdfrwt>
<totfact> 0.42744429E+04</totfact>
</mgrwt>
</event>
<event>
 7    0  0.4709932E-002  0.4356512E+03  0.7546771E-02  0.1032090E+00
         21   -1    0    0  502  501  0.00000000000E+00  0.00000000000E+00  0.37740973217E+03  0.37740973217E+03  0.00000000000E+00 0. -1.
         21   -1    0    0  501  502 -0.00000000000E+00 -0.00000000000E+00 -0.12572012438E+03  0.12572012438E+03  0.00000000000E+00 0. -1.
      99926    2    1    2    0    0  0.00000000000E+00  0.00000000000E+00  0.25168960779E+03  0.50312985656E+03  0.43565122964E+03 0.  0.
      99925    2    3    3    0    0 -0.63077413352E+02  0.68451129436E+02  0.15142547944E+03  0.31775261758E+03  0.26338704022E+03 0.  0.
         25    1    4    4    0    0 -0.34283016786E+02  0.69806734138E+02  0.10644540106E+03  0.18173177179E+03  0.12509000000E+03 0.  0.
         25    1    4    4    0    0 -0.28794396566E+02 -0.13556047020E+01  0.44980078377E+02  0.13602084579E+03  0.12509000000E+03 0.  0.
         25    1    3    3    0    0  0.63077413352E+02 -0.68451129436E+02  0.10026412835E+03  0.18537723898E+03  0.12509000000E+03 0.  0.
<mgrwt>
<rscale>  2 0.43565123E+03</rscale>
<asrwt>0</asrwt>
<pdfrwt beam="1">  1       21 0.55501431E-01 0.43565123E+03</pdfrwt>
<pdfrwt beam="2">  1       21 0.18488254E-01 0.43565123E+03</pdfrwt>
<totfact> 0.76076463E+04</totfact>
</mgrwt>
</event>
<event>
 7    0  0.4709932E-002  0.4547464E+03  0.7546771E-02  0.1026316E+00
         21   -1    0    0  502  501  0.00000000000E+00  0.00000000000E+00  0.76482847253E+03  0.76482847253E+03  0.00000000000E+00 0.  1.
         21   -1    0    0  501  502 -0.00000000000E+00 -0.00000000000E+00 -0.67594999771E+02  0.67594999771E+02  0.00000000000E+00 0.  1.
      99926    2    1    2    0    0  0.71054273576E-14 -0.14210854715E-13  0.69723347276E+03  0.83242347230E+03  0.45474643671E+03 0.  0.
      99925    2    3    3    0    0  0.10540211051E+02 -0.81946830749E+02  0.29798453161E+03  0.40595705600E+03  0.26302085682E+03 0.  0.
         25    1    4    4    0    0  0.33818329575E+02 -0.17344464149E+02  0.16847922198E+03  0.21325399455E+03  0.12509000000E+03 0.  0.
         25    1    3    3    0    0 -0.10540211051E+02  0.81946830749E+02  0.39924894115E+03  0.42646641630E+03  0.12509000000E+03 0.  0.
         25    1    4    4    0    0 -0.23278118524E+02 -0.64602366600E+02  0.12950530963E+03  0.19270306146E+03  0.12509000000E+03 0.  0.
<mgrwt>
<rscale>  2 0.45474644E+03</rscale>
<asrwt>0</asrwt>
<pdfrwt beam="1">  1       21 0.11247477E+00 0.45474644E+03</pdfrwt>
<pdfrwt beam="2">  1       21 0.99404415E-02 0.45474644E+03</pdfrwt>
<totfact> 0.46328264E+04</totfact>
</mgrwt>
</event>
<event>
 7    0  0.4709932E-002  0.4550821E+03  0.7546771E-02  0.1026217E+00
         21   -1    0    0  502  501  0.00000000000E+00  0.00000000000E+00  0.38398641381E+02  0.38398641381E+02  0.00000000000E+00 0. -1.
         21   -1    0    0  501  502 -0.00000000000E+00 -0.00000000000E+00 -0.13483533988E+04  0.13483533988E+04  0.00000000000E+00 0. -1.
      99926    2    1    2    0    0  0.00000000000E+00 -0.71054273576E-14 -0.13099547574E+04  0.13867520402E+04  0.45508214035E+03 0.  0.
      99925    2    3    3    0    0  0.10693503058E+03  0.37603913293E+02 -0.82327975055E+03  0.87163144705E+03  0.26287387994E+03 0.  0.
         25    1    3    3    0    0 -0.10693503058E+03 -0.37603913293E+02 -0.48667500689E+03  0.51512059316E+03  0.12509000000E+03 0.  0.
         25    1    4    4    0    0  0.96825014638E+02  0.24415244810E+02 -0.45463001360E+03  0.48198251524E+03  0.12509000000E+03 0.  0.
         25    1    4    4    0    0  0.10110015947E+02  0.13188668483E+02 -0.36864973695E+03  0.38964893180E+03  0.12509000000E+03 0.  0.
<mgrwt>
<rscale>  2 0.45508214E+03</rscale>
<asrwt>0</asrwt>
<pdfrwt beam="1">  1       21 0.56468599E-02 0.45508214E+03</pdfrwt>
<pdfrwt beam="2">  1       21 0.19828723E+00 0.45508214E+03</pdfrwt>
<totfact> 0.26670160E+04</totfact>
</mgrwt>
</event>
<event>
 7    0  0.4709932E-002  0.4580852E+03  0.7546771E-02  0.1025338E+00
         21   -1    0    0  502  501  0.00000000000E+00  0.00000000000E+00  0.67175591642E+03  0.67175591642E+03  0.00000000000E+00 0. -1.
         21   -1    0    0  501  502 -0.00000000000E+00 -0.00000000000E+00 -0.78094613727E+02  0.78094613727E+02  0.00000000000E+00 0. -1.
      99926    2    1    2    0    0  0.00000000000E+00  0.00000000000E+00  0.59366130269E+03  0.74985053015E+03  0.45808522706E+03 0.  0.
      99925    2    3    3    0    0 -0.42536171692E+02 -0.49625048120E+02  0.53029228287E+03  0.59514076292E+03  0.26212716592E+03 0.  0.
         25    1    3    3    0    0  0.42536171692E+02  0.49625048120E+02  0.63369019823E+02  0.15470976723E+03  0.12509000000E+03 0.  0.
         25    1    4    4    0    0 -0.55539971670E+02 -0.10340874189E+02  0.29782836389E+03  0.32793423818E+03  0.12509000000E+03 0.  0.
         25    1    4    4    0    0  0.13003799978E+02 -0.39284173932E+02  0.23246391898E+03  0.26720652474E+03  0.12509000000E+03 0.  0.
<mgrwt>
<rscale>  2 0.45808523E+03</rscale>
<asrwt>0</asrwt>
<pdfrwt beam="1">  1       21 0.98787631E-01 0.45808523E+03</pdfrwt>
<pdfrwt beam="2">  1       21 0.11484502E-01 0.45808523E+03</pdfrwt>
<totfact> 0.49077631E+04</totfact>
</mgrwt>
</event>
<event>
 7    0  0.4709932E-002  0.4567258E+03  0.7546771E-02  0.1025735E+00
         21   -1    0    0  502  501  0.00000000000E+00  0.00000000000E+00  0.11259719690E+03  0.11259719690E+03  0.00000000000E+00 0.  1.
         21   -1    0    0  501  502 -0.00000000000E+00 -0.00000000000E+00 -0.46315206245E+03  0.46315206245E+03  0.00000000000E+00 0.  1.
      99926    2    1    2    0    0 -0.35527136788E-14  0.00000000000E+00 -0.35055486554E+03  0.57574925935E+03  0.45672584324E+03 0.  0.
      99925    2    3    3    0    0  0.29885524134E+02 -0.10277082677E+03 -0.27271015974E+03  0.39364408724E+03  0.26292555754E+03 0.  0.
         25    1    3    3    0    0 -0.29885524134E+02  0.10277082677E+03 -0.77844705810E+02  0.18210517211E+03  0.12509000000E+03 0.  0.
         25    1    4    4    0    0 -0.13092311742E+02 -0.20599700186E+02 -0.13667590975E+03  0.18687848641E+03  0.12509000000E+03 0.  0.
         25    1    4    4    0    0  0.42977835877E+02 -0.82171126581E+02 -0.13603424998E+03  0.20676560083E+03  0.12509000000E+03 0.  0.
<mgrwt>
<rscale>  2 0.45672584E+03</rscale>
<asrwt>0</asrwt>
<pdfrwt beam="1">  1       21 0.16558411E-01 0.45672584E+03</pdfrwt>
<pdfrwt beam="2">  1       21 0.68110597E-01 0.45672584E+03</pdfrwt>
<totfact> 0.59381896E+04</totfact>
</mgrwt>
</event>
<event>
 7    0  0.4709932E-002  0.4717650E+03  0.7546771E-02  0.1021423E+00
         21   -1    0    0  502  501  0.00000000000E+00  0.00000000000E+00  0.82768093219E+02  0.82768093219E+02  0.00000000000E+00 0.  1.
         21   -1    0    0  501  502 -0.00000000000E+00 -0.00000000000E+00 -0.67224653727E+03  0.67224653727E+03  0.00000000000E+00 0.  1.
      99926    2    1    2    0    0  0.00000000000E+00  0.00000000000E+00 -0.58947844405E+03  0.75501463049E+03  0.47176504348E+03 0.  0.
      99925    2    3    3    0    0  0.60678487937E+02  0.49966068332E+01 -0.18497437778E+03  0.32725547781E+03  0.26300909174E+03 0.  0.
         25    1    3    3    0    0 -0.60678487937E+02 -0.49966068332E+01 -0.40450406627E+03  0.42775915269E+03  0.12509000000E+03 0.  0.
         25    1    4    4    0    0  0.59449378061E+02 -0.61024650978E+01 -0.13039646026E+03  0.19032134294E+03  0.12509000000E+03 0.  0.
         25    1    4    4    0    0  0.12291098760E+01  0.11099071931E+02 -0.54577917523E+02  0.13693413486E+03  0.12509000000E+03 0.  0.
<mgrwt>
<rscale>  2 0.47176504E+03</rscale>
<asrwt>0</asrwt>
<pdfrwt beam="1">  1       21 0.12171779E-01 0.47176504E+03</pdfrwt>
<pdfrwt beam="2">  1       21 0.98859784E-01 0.47176504E+03</pdfrwt>
<totfact> 0.43934718E+04</totfact>
</mgrwt>
</event>
<event>
 7    0  0.4709932E-002  0.4551924E+03  0.7546771E-02  0.1026185E+00
         21   -1    0    0  502  501  0.00000000000E+00  0.00000000000E+00  0.24319991472E+03  0.24319991472E+03  0.00000000000E+00 0.  1.
         21   -1    0    0  501  502 -0.00000000000E+00 -0.00000000000E+00 -0.21299364752E+03  0.21299364752E+03  0.00000000000E+00 0.  1.
      99926    2    1    2    0    0  0.14210854715E-13  0.71054273576E-14  0.30206267195E+02  0.45619356224E+03  0.45519242925E+03 0.  0.
      99925    2    3    3    0    0 -0.10044805199E+03 -0.47377801201E+02  0.41936504145E+02  0.28850464264E+03  0.26294826726E+03 0.  0.
         25    1    3    3    0    0  0.10044805199E+03  0.47377801201E+02 -0.11730236950E+02  0.16768891959E+03  0.12509000000E+03 0.  0.
         25    1    4    4    0    0 -0.21998268856E+02 -0.52704656265E+02  0.15111236719E+02  0.13833857813E+03  0.12509000000E+03 0.  0.
         25    1    4    4    0    0 -0.78449783133E+02  0.53268550639E+01  0.26825267426E+02  0.15016606451E+03  0.12509000000E+03 0.  0.
<mgrwt>
<rscale>  2 0.45519243E+03</rscale>
<asrwt>0</asrwt>
<pdfrwt beam="1">  1       21 0.35764693E-01 0.45519243E+03</pdfrwt>
<pdfrwt beam="2">  1       21 0.31322595E-01 0.45519243E+03</pdfrwt>
<totfact> 0.68353471E+04</totfact>
</mgrwt>
</event>
<event>
 7    0  0.4709932E-002  0.4565764E+03  0.7546771E-02  0.1025779E+00
         21   -1    0    0  502  501  0.00000000000E+00  0.00000000000E+00  0.15677080813E+03  0.15677080813E+03  0.00000000000E+00 0. -1.
         21   -1    0    0  501  502 -0.00000000000E+00 -0.00000000000E+00 -0.33243122068E+03  0.33243122068E+03  0.00000000000E+00 0. -1.
      99926    2    1    2    0    0  0.35527136788E-14  0.00000000000E+00 -0.17566041254E+03  0.48920202881E+03  0.45657643879E+03 0.  0.
      99925    2    3    3    0    0 -0.13909309072E+02  0.10382351112E+03 -0.60505277273E+02  0.28949974134E+03  0.26301410859E+03 0.  0.
         25    1    4    4    0    0 -0.27249464279E+02  0.71565121101E+02 -0.10608848415E+01  0.14667219722E+03  0.12509000000E+03 0.  0.
         25    1    3    3    0    0  0.13909309072E+02 -0.10382351112E+03 -0.11515513527E+03  0.19970228747E+03  0.12509000000E+03 0.  0.
         25    1    4    4    0    0  0.13340155206E+02  0.32258390018E+02 -0.59444392432E+02  0.14282754412E+03  0.12509000000E+03 0.  0.
<mgrwt>
<rscale>  2 0.45657644E+03</rscale>
<asrwt>0</asrwt>
<pdfrwt beam="1">  1       21 0.23054531E-01 0.45657644E+03</pdfrwt>
<pdfrwt beam="2">  1       21 0.48886944E-01 0.45657644E+03</pdfrwt>
<totfact> 0.65216122E+04</totfact>
</mgrwt>
</event>
<event>
 6    0  0.4709932E-002  0.4548045E+03  0.7546771E-02  0.1026299E+00
         21   -1    0    0  502  501  0.00000000000E+00  0.00000000000E+00  0.71645222392E+02  0.71645222392E+02  0.00000000000E+00 0.  1.
         21   -1    0    0  501  502 -0.00000000000E+00 -0.00000000000E+00 -0.72177574452E+03  0.72177574452E+03  0.00000000000E+00 0.  1.
      99926    2    1    2    0    0  0.00000000000E+00  0.71054273576E-14 -0.65013052213E+03  0.79342096692E+03  0.45480450189E+03 0.  0.
         25    1    3    3    0    0 -0.26900793212E+02 -0.35722665299E+02 -0.80031410015E+02  0.15508802720E+03  0.12509000000E+03 0.  0.
         25    1    3    3    0    0  0.32061501639E+02 -0.42614615056E+02 -0.32309410329E+03  0.35054422401E+03  0.12509000000E+03 0.  0.
         25    1    3    3    0    0 -0.51607084269E+01  0.78337280355E+02 -0.24700500882E+03  0.28778871571E+03  0.12509000000E+03 0.  0.
<mgrwt>
<rscale>  2 0.45480450E+03</rscale>
<asrwt>0</asrwt>
<pdfrwt beam="1">  1       21 0.10536062E-01 0.45480450E+03</pdfrwt>
<pdfrwt beam="2">  1       21 0.10614349E+00 0.45480450E+03</pdfrwt>
<totfact> 0.48158534E+04</totfact>
</mgrwt>
</event>
<event>
 7    0  0.4709932E-002  0.4575459E+03  0.7546771E-02  0.1025495E+00
         21   -1    0    0  502  501  0.00000000000E+00  0.00000000000E+00  0.16183405570E+03  0.16183405570E+03  0.00000000000E+00 0.  1.
         21   -1    0    0  501  502 -0.00000000000E+00 -0.00000000000E+00 -0.32339950958E+03  0.32339950958E+03  0.00000000000E+00 0.  1.
      99926    2    1    2    0    0  0.00000000000E+00  0.00000000000E+00 -0.16156545388E+03  0.48523356527E+03  0.45754586325E+03 0.  0.
      99925    2    3    3    0    0  0.10860791758E+03  0.38174151712E+02 -0.11143576384E+03  0.30799519600E+03  0.26304023585E+03 0.  0.
         25    1    4    4    0    0  0.41838186763E+02  0.45019561619E+02 -0.24439163604E+02  0.14149903045E+03  0.12509000000E+03 0.  0.
         25    1    4    4    0    0  0.66769730818E+02 -0.68454099073E+01 -0.86996600234E+02  0.16649616555E+03  0.12509000000E+03 0.  0.
         25    1    3    3    0    0 -0.10860791758E+03 -0.38174151712E+02 -0.50129690044E+02  0.17723836928E+03  0.12509000000E+03 0.  0.
<mgrwt>
<rscale>  2 0.45754586E+03</rscale>
<asrwt>0</asrwt>
<pdfrwt beam="1">  1       21 0.23799126E-01 0.45754586E+03</pdfrwt>
<pdfrwt beam="2">  1       21 0.47558752E-01 0.45754586E+03</pdfrwt>
<totfact> 0.64997531E+04</totfact>
</mgrwt>
</event>
<event>
 7    0  0.4709932E-002  0.4584207E+03  0.7546771E-02  0.1025240E+00
         21   -1    0    0  502  501  0.00000000000E+00  0.00000000000E+00  0.15846380199E+04  0.15846380199E+04  0.00000000000E+00 0.  1.
         21   -1    0    0  501  502 -0.00000000000E+00 -0.00000000000E+00 -0.33154192386E+02  0.33154192386E+02  0.00000000000E+00 0.  1.
      99926    2    1    2    0    0  0.00000000000E+00  0.14210854715E-13  0.15514838275E+04  0.16177922123E+04  0.45842074026E+03 0.  0.
      99925    2    3    3    0    0  0.61634561955E+02 -0.65365493541E+02  0.12342741095E+04  0.12651720480E+04  0.26297579097E+03 0.  0.
         25    1    4    4    0    0  0.29561643325E+02 -0.63716343016E+02  0.52563635227E+03  0.54486213490E+03  0.12509000000E+03 0.  0.
         25    1    3    3    0    0 -0.61634561955E+02  0.65365493541E+02  0.31720971804E+03  0.35262016433E+03  0.12509000000E+03 0.  0.
         25    1    4    4    0    0  0.32072918630E+02 -0.16491505257E+01  0.70863775721E+03  0.72030991306E+03  0.12509000000E+03 0.  0.
<mgrwt>
<rscale>  2 0.45842074E+03</rscale>
<asrwt>0</asrwt>
<pdfrwt beam="1">  1       21 0.23303495E+00 0.45842074E+03</pdfrwt>
<pdfrwt beam="2">  1       21 0.48756176E-02 0.45842074E+03</pdfrwt>
<totfact> 0.20481275E+04</totfact>
</mgrwt>
</event>
<event>
 7    0  0.4709932E-002  0.4544435E+03  0.7546771E-02  0.1026405E+00
         21   -1    0    0  502  501  0.00000000000E+00  0.00000000000E+00  0.64830651200E+03  0.64830651200E+03  0.00000000000E+00 0.  1.
         21   -1    0    0  501  502 -0.00000000000E+00 -0.00000000000E+00 -0.79637815176E+02  0.79637815176E+02  0.00000000000E+00 0.  1.
      99926    2    1    2    0    0  0.00000000000E+00  0.00000000000E+00  0.56866869682E+03  0.72794432717E+03  0.45444345822E+03 0.  0.
      99925    2    3    3    0    0 -0.22897673160E+02 -0.10709885113E+03  0.31663548139E+03  0.42601268404E+03  0.26312413711E+03 0.  0.
         25    1    4    4    0    0  0.80949383774E+01 -0.43505278942E+02  0.20430592761E+03  0.24361169405E+03  0.12509000000E+03 0.  0.
         25    1    4    4    0    0 -0.30992611538E+02 -0.63593572188E+02  0.11232955379E+03  0.18240098999E+03  0.12509000000E+03 0.  0.
         25    1    3    3    0    0  0.22897673160E+02  0.10709885113E+03  0.25203321543E+03  0.30193164314E+03  0.12509000000E+03 0.  0.
<mgrwt>
<rscale>  2 0.45444346E+03</rscale>
<asrwt>0</asrwt>
<pdfrwt beam="1">  1       21 0.95339190E-01 0.45444346E+03</pdfrwt>
<pdfrwt beam="2">  1       21 0.11711444E-01 0.45444346E+03</pdfrwt>
<totfact> 0.51637551E+04</totfact>
</mgrwt>
</event>
<event>
 7    0  0.4709932E-002  0.4655257E+03  0.7546771E-02  0.1023191E+00
         21   -1    0    0  502  501  0.00000000000E+00  0.00000000000E+00  0.16908494670E+03  0.16908494670E+03  0.00000000000E+00 0. -1.
         21   -1    0    0  501  502 -0.00000000000E+00 -0.00000000000E+00 -0.32042202071E+03  0.32042202071E+03  0.00000000000E+00 0. -1.
      99926    2    1    2    0    0  0.00000000000E+00  0.35527136788E-14 -0.15133707401E+03  0.48950696741E+03  0.46552568261E+03 0.  0.
      99925    2    3    3    0    0  0.73294376186E+02 -0.22455050632E+02 -0.19520887510E+03  0.33637781306E+03  0.26299664127E+03 0.  0.
         25    1    3    3    0    0 -0.73294376186E+02  0.22455050632E+02  0.43871801092E+02  0.15312915434E+03  0.12509000000E+03 0.  0.
         25    1    4    4    0    0  0.13668828753E+02  0.19257608625E+02 -0.11130775434E+03  0.16909942828E+03  0.12509000000E+03 0.  0.
         25    1    4    4    0    0  0.59625547433E+02 -0.41712659257E+02 -0.83901120766E+02  0.16727838478E+03  0.12509000000E+03 0.  0.
<mgrwt>
<rscale>  2 0.46552568E+03</rscale>
<asrwt>0</asrwt>
<pdfrwt beam="1">  1       21 0.24865433E-01 0.46552568E+03</pdfrwt>
<pdfrwt beam="2">  1       21 0.47120885E-01 0.46552568E+03</pdfrwt>
<totfact> 0.60775356E+04</totfact>
</mgrwt>
</event>
<event>
 7    0  0.4709932E-002  0.4526192E+03  0.7546771E-02  0.1026944E+00
         21   -1    0    0  502  501  0.00000000000E+00  0.00000000000E+00  0.68538114851E+02  0.68538114851E+02  0.00000000000E+00 0.  1.
         21   -1    0    0  501  502 -0.00000000000E+00 -0.00000000000E+00 -0.74726357217E+03  0.74726357217E+03  0.00000000000E+00 0.  1.
      99926    2    1    2    0    0 -0.14210854715E-13  0.00000000000E+00 -0.67872545732E+03  0.81580168702E+03  0.45261920655E+03 0.  0.
      99925    2    3    3    0    0  0.10135439531E+03  0.70966808376E+01 -0.50831834707E+03  0.58126135435E+03  0.26297175468E+03 0.  0.
         25    1    4    4    0    0  0.32885258278E+02  0.47847095852E+01 -0.16654900551E+03  0.21092750649E+03  0.12509000000E+03 0.  0.
         25    1    3    3    0    0 -0.10135439531E+03 -0.70966808376E+01 -0.17040711024E+03  0.23454033267E+03  0.12509000000E+03 0.  0.
         25    1    4    4    0    0  0.68469137032E+02  0.23119712524E+01 -0.34176934157E+03  0.37033384786E+03  0.12509000000E+03 0.  0.
<mgrwt>
<rscale>  2 0.45261921E+03</rscale>
<asrwt>0</asrwt>
<pdfrwt beam="1">  1       21 0.10079134E-01 0.45261921E+03</pdfrwt>
<pdfrwt beam="2">  1       21 0.10989171E+00 0.45261921E+03</pdfrwt>
<totfact> 0.47898566E+04</totfact>
</mgrwt>
</event>
<event>
 7    0  0.4709932E-002  0.4510929E+03  0.7546771E-02  0.1027397E+00
         21   -1    0    0  502  501  0.00000000000E+00  0.00000000000E+00  0.93868494786E+02  0.93868494786E+02  0.00000000000E+00 0. -1.
         21   -1    0    0  501  502 -0.00000000000E+00 -0.00000000000E+00 -0.54194110559E+03  0.54194110559E+03  0.00000000000E+00 0. -1.
      99926    2    1    2    0    0  0.00000000000E+00  0.00000000000E+00 -0.44807261080E+03  0.63580960038E+03  0.45109287667E+03 0.  0.
      99925    2    3    3    0    0  0.43070748084E+02  0.74760679819E+02 -0.18798338136E+03  0.33458183944E+03  0.26298860627E+03 0.  0.
         25    1    4    4    0    0  0.28221141444E+02  0.19105855146E+02 -0.13459045721E+03  0.18687847869E+03  0.12509000000E+03 0.  0.
         25    1    4    4    0    0  0.14849606640E+02  0.55654824673E+02 -0.53392924148E+02  0.14770336075E+03  0.12509000000E+03 0.  0.
         25    1    3    3    0    0 -0.43070748084E+02 -0.74760679819E+02 -0.26008922944E+03  0.30122776094E+03  0.12509000000E+03 0.  0.
<mgrwt>
<rscale>  2 0.45109288E+03</rscale>
<asrwt>0</asrwt>
<pdfrwt beam="1">  1       21 0.13804191E-01 0.45109288E+03</pdfrwt>
<pdfrwt beam="2">  1       21 0.79697219E-01 0.45109288E+03</pdfrwt>
<totfact> 0.58303679E+04</totfact>
</mgrwt>
</event>
<event>
 7    0  0.4709932E-002  0.4542815E+03  0.7546771E-02  0.1026453E+00
         21   -1    0    0  502  501  0.00000000000E+00  0.00000000000E+00  0.74638778067E+02  0.74638778067E+02  0.00000000000E+00 0. -1.
         21   -1    0    0  501  502 -0.00000000000E+00 -0.00000000000E+00 -0.69123470269E+03  0.69123470269E+03  0.00000000000E+00 0. -1.
      99926    2    1    2    0    0  0.00000000000E+00  0.00000000000E+00 -0.61659592463E+03  0.76587348076E+03  0.45428147031E+03 0.  0.
      99925    2    3    3    0    0 -0.35362387399E+02 -0.10124499481E+03 -0.44575419460E+03  0.52852257548E+03  0.26294155886E+03 0.  0.
         25    1    3    3    0    0  0.35362387399E+02  0.10124499481E+03 -0.17084173003E+03  0.23735090528E+03  0.12509000000E+03 0.  0.
         25    1    4    4    0    0 -0.25701886682E+02 -0.87574773136E+02 -0.28272634262E+03  0.32235325464E+03  0.12509000000E+03 0.  0.
         25    1    4    4    0    0 -0.96605007171E+01 -0.13670221671E+02 -0.16302785198E+03  0.20616932084E+03  0.12509000000E+03 0.  0.
<mgrwt>
<rscale>  2 0.45428147E+03</rscale>
<asrwt>0</asrwt>
<pdfrwt beam="1">  1       21 0.10976291E-01 0.45428147E+03</pdfrwt>
<pdfrwt beam="2">  1       21 0.10165216E+00 0.45428147E+03</pdfrwt>
<totfact> 0.49739579E+04</totfact>
</mgrwt>
</event>
<event>
 7    0  0.4709932E-002  0.4534367E+03  0.7546771E-02  0.1026702E+00
         21   -1    0    0  502  501  0.00000000000E+00  0.00000000000E+00  0.16345799248E+03  0.16345799248E+03  0.00000000000E+00 0. -1.
         21   -1    0    0  501  502 -0.00000000000E+00 -0.00000000000E+00 -0.31446127890E+03  0.31446127890E+03  0.00000000000E+00 0. -1.
      99926    2    1    2    0    0  0.00000000000E+00  0.00000000000E+00 -0.15100328642E+03  0.47791927139E+03  0.45343669619E+03 0.  0.
      99925    2    3    3    0    0  0.39339997545E+02 -0.90326338751E+02 -0.15059764869E+03  0.31868938876E+03  0.26301481297E+03 0.  0.
         25    1    4    4    0    0  0.53471071881E+02 -0.46651510880E+02 -0.10419527385E+03  0.17759415021E+03  0.12509000000E+03 0.  0.
         25    1    4    4    0    0 -0.14131074336E+02 -0.43674827871E+02 -0.46402374839E+02  0.14109523855E+03  0.12509000000E+03 0.  0.
         25    1    3    3    0    0 -0.39339997545E+02  0.90326338751E+02 -0.40563772927E+00  0.15922988263E+03  0.12509000000E+03 0.  0.
<mgrwt>
<rscale>  2 0.45343670E+03</rscale>
<asrwt>0</asrwt>
<pdfrwt beam="1">  1       21 0.24037940E-01 0.45343670E+03</pdfrwt>
<pdfrwt beam="2">  1       21 0.46244305E-01 0.45343670E+03</pdfrwt>
<totfact> 0.67687861E+04</totfact>
</mgrwt>
</event>
<event>
 7    0  0.4709932E-002  0.4495476E+03  0.7546771E-02  0.1027857E+00
         21   -1    0    0  502  501  0.00000000000E+00  0.00000000000E+00  0.14660938052E+04  0.14660938052E+04  0.00000000000E+00 0. -1.
         21   -1    0    0  501  502 -0.00000000000E+00 -0.00000000000E+00 -0.34461134350E+02  0.34461134350E+02  0.00000000000E+00 0. -1.
      99926    2    1    2    0    0  0.00000000000E+00  0.00000000000E+00  0.14316326709E+04  0.15005549396E+04  0.44954757520E+03 0.  0.
      99925    2    3    3    0    0  0.40972474398E+02  0.90927406588E+02  0.75928076839E+03  0.80943184938E+03  0.26215662611E+03 0.  0.
         25    1    3    3    0    0 -0.40972474398E+02 -0.90927406588E+02  0.67235190250E+03  0.69112309021E+03  0.12509000000E+03 0.  0.
         25    1    4    4    0    0  0.40075321036E+02  0.80571330369E+02  0.38650515788E+03  0.41609075429E+03  0.12509000000E+03 0.  0.
         25    1    4    4    0    0  0.89715336176E+00  0.10356076219E+02  0.37277561050E+03  0.39334109509E+03  0.12509000000E+03 0.  0.
<mgrwt>
<rscale>  2 0.44954758E+03</rscale>
<asrwt>0</asrwt>
<pdfrwt beam="1">  1       21 0.21560199E+00 0.44954758E+03</pdfrwt>
<pdfrwt beam="2">  1       21 0.50678148E-02 0.44954758E+03</pdfrwt>
<totfact> 0.24799298E+04</totfact>
</mgrwt>
</event>
<event>
 7    0  0.4709932E-002  0.4546877E+03  0.7546771E-02  0.1026333E+00
         21   -1    0    0  502  501  0.00000000000E+00  0.00000000000E+00  0.66964252533E+02  0.66964252533E+02  0.00000000000E+00 0. -1.
         21   -1    0    0  501  502 -0.00000000000E+00 -0.00000000000E+00 -0.77183306772E+03  0.77183306772E+03  0.00000000000E+00 0. -1.
      99926    2    1    2    0    0  0.00000000000E+00  0.00000000000E+00 -0.70486881519E+03  0.83879732025E+03  0.45468769264E+03 0.  0.
      99925    2    3    3    0    0 -0.83797572569E+02 -0.57836023666E+02 -0.35412970841E+03  0.45275008490E+03  0.26307365926E+03 0.  0.
         25    1    4    4    0    0 -0.43079054656E+02 -0.21621931531E+02 -0.23984883617E+03  0.27476951284E+03  0.12509000000E+03 0.  0.
         25    1    4    4    0    0 -0.40718517913E+02 -0.36214092135E+02 -0.11428087223E+03  0.17798057205E+03  0.12509000000E+03 0.  0.
         25    1    3    3    0    0  0.83797572569E+02  0.57836023666E+02 -0.35073910678E+03  0.38604723536E+03  0.12509000000E+03 0.  0.
<mgrwt>
<rscale>  2 0.45468769E+03</rscale>
<asrwt>0</asrwt>
<pdfrwt beam="1">  1       21 0.98476845E-02 0.45468769E+03</pdfrwt>
<pdfrwt beam="2">  1       21 0.11350486E+00 0.45468769E+03</pdfrwt>
<totfact> 0.46057493E+04</totfact>
</mgrwt>
</event>
<event>
 7    0  0.4709932E-002  0.4569801E+03  0.7546771E-02  0.1025661E+00
         21   -1    0    0  502  501  0.00000000000E+00  0.00000000000E+00  0.38071759302E+03  0.38071759302E+03  0.00000000000E+00 0. -1.
         21   -1    0    0  501  502 -0.00000000000E+00 -0.00000000000E+00 -0.13712972801E+03  0.13712972801E+03  0.00000000000E+00 0. -1.
      99926    2    1    2    0    0  0.00000000000E+00  0.00000000000E+00  0.24358786501E+03  0.51784732104E+03  0.45698008701E+03 0.  0.
      99925    2    3    3    0    0  0.73753166857E+02  0.59649295150E+02  0.22671123246E+03  0.35995527925E+03  0.26300618263E+03 0.  0.
         25    1    4    4    0    0  0.19769337060E+02  0.50347952484E+02  0.73948938349E+02  0.15505385061E+03  0.12509000000E+03 0.  0.
         25    1    4    4    0    0  0.53983829797E+02  0.93013426662E+01  0.15276229411E+03  0.20490142864E+03  0.12509000000E+03 0.  0.
         25    1    3    3    0    0 -0.73753166857E+02 -0.59649295150E+02  0.16876632550E+02  0.15789204179E+03  0.12509000000E+03 0.  0.
<mgrwt>
<rscale>  2 0.45698009E+03</rscale>
<asrwt>0</asrwt>
<pdfrwt beam="1">  1       21 0.55987881E-01 0.45698009E+03</pdfrwt>
<pdfrwt beam="2">  1       21 0.20166137E-01 0.45698009E+03</pdfrwt>
<totfact> 0.63037930E+04</totfact>
</mgrwt>
</event>
<event>
 7    0  0.4709932E-002  0.4467562E+03  0.7546771E-02  0.1028694E+00
         21   -1    0    0  502  501  0.00000000000E+00  0.00000000000E+00  0.68054318797E+02  0.68054318797E+02  0.00000000000E+00 0. -1.
         21   -1    0    0  501  502 -0.00000000000E+00 -0.00000000000E+00 -0.73320522423E+03  0.73320522423E+03  0.00000000000E+00 0. -1.
      99926    2    1    2    0    0  0.00000000000E+00 -0.14210854715E-13 -0.66515090543E+03  0.80125954303E+03  0.44675622916E+03 0.  0.
      99925    2    3    3    0    0  0.67021120163E+02 -0.79461905444E+02 -0.45059162593E+03  0.53202132605E+03  0.26307385473E+03 0.  0.
         25    1    4    4    0    0  0.51493973873E+02 -0.78573007724E+02 -0.26309785678E+03  0.30609367395E+03  0.12509000000E+03 0.  0.
         25    1    3    3    0    0 -0.67021120163E+02  0.79461905444E+02 -0.21455927950E+03  0.26923821698E+03  0.12509000000E+03 0.  0.
         25    1    4    4    0    0  0.15527146290E+02 -0.88889771966E+00 -0.18749376916E+03  0.22592765210E+03  0.12509000000E+03 0.  0.
<mgrwt>
<rscale>  2 0.44675623E+03</rscale>
<asrwt>0</asrwt>
<pdfrwt beam="1">  1       21 0.10007988E-01 0.44675623E+03</pdfrwt>
<pdfrwt beam="2">  1       21 0.10782430E+00 0.44675623E+03</pdfrwt>
<totfact> 0.50919115E+04</totfact>
</mgrwt>
</event>
<event>
 7    0  0.4709932E-002  0.4601956E+03  0.7546771E-02  0.1024725E+00
         21   -1    0    0  502  501  0.00000000000E+00  0.00000000000E+00  0.29847900561E+02  0.29847900561E+02  0.00000000000E+00 0.  1.
         21   -1    0    0  501  502 -0.00000000000E+00 -0.00000000000E+00 -0.17738262363E+04  0.17738262363E+04  0.00000000000E+00 0.  1.
      99926    2    1    2    0    0  0.14210854715E-13  0.00000000000E+00 -0.17439783357E+04  0.18036741368E+04  0.46019556327E+03 0.  0.
      99925    2    3    3    0    0 -0.92749531884E+02  0.18702893714E+02 -0.13684199300E+04  0.13966804045E+04  0.26304139182E+03 0.  0.
         25    1    3    3    0    0  0.92749531884E+02 -0.18702893714E+02 -0.37555840575E+03  0.40699373230E+03  0.12509000000E+03 0.  0.
         25    1    4    4    0    0 -0.18910269681E+02 -0.15646862176E+02 -0.53308836842E+03  0.54811781511E+03  0.12509000000E+03 0.  0.
         25    1    4    4    0    0 -0.73839262202E+02  0.34349755890E+02 -0.83533156154E+03  0.84856258942E+03  0.12509000000E+03 0.  0.
<mgrwt>
<rscale>  2 0.46019556E+03</rscale>
<asrwt>0</asrwt>
<pdfrwt beam="1">  1       21 0.43893960E-02 0.46019556E+03</pdfrwt>
<pdfrwt beam="2">  1       21 0.26085687E+00 0.46019556E+03</pdfrwt>
<totfact> 0.16512787E+04</totfact>
</mgrwt>
</event>
<event>
 7    0  0.4709932E-002  0.4547447E+03  0.7546771E-02  0.1026316E+00
         21   -1    0    0  502  501  0.00000000000E+00  0.00000000000E+00  0.37304464611E+03  0.37304464611E+03  0.00000000000E+00 0. -1.
         21   -1    0    0  501  502 -0.00000000000E+00 -0.00000000000E+00 -0.13858446156E+03  0.13858446156E+03  0.00000000000E+00 0. -1.
      99926    2    1    2    0    0  0.00000000000E+00  0.14210854715E-13  0.23446018455E+03  0.51162910767E+03  0.45474472583E+03 0.  0.
      99925    2    3    3    0    0  0.38294905094E+02 -0.82877288988E+02  0.73177765927E+02  0.28803422525E+03  0.26319875513E+03 0.  0.
         25    1    4    4    0    0  0.19165055439E+02 -0.83848081422E+02  0.45712717177E+02  0.15854009184E+03  0.12509000000E+03 0.  0.
         25    1    3    3    0    0 -0.38294905094E+02  0.82877288988E+02  0.16128241863E+03  0.22359488242E+03  0.12509000000E+03 0.  0.
         25    1    4    4    0    0  0.19129849654E+02  0.97079243428E+00  0.27465048750E+02  0.12949413341E+03  0.12509000000E+03 0.  0.
<mgrwt>
<rscale>  2 0.45474473E+03</rscale>
<asrwt>0</asrwt>
<pdfrwt beam="1">  1       21 0.54859506E-01 0.45474473E+03</pdfrwt>
<pdfrwt beam="2">  1       21 0.20380068E-01 0.45474473E+03</pdfrwt>
<totfact> 0.64591914E+04</totfact>
</mgrwt>
</event>
<event>
 7    0  0.7395785E-002  0.3941656E+03  0.7546771E-02  0.1045819E+00
         21   -1    0    0  502  501  0.00000000000E+00  0.00000000000E+00  0.50706575723E+02  0.50706575723E+02  0.00000000000E+00 0. -1.
         21   -1    0    0  501  502 -0.00000000000E+00 -0.00000000000E+00 -0.76600774990E+03  0.76600774990E+03  0.00000000000E+00 0. -1.
      99926    2    1    2    0    0  0.00000000000E+00  0.35527136788E-14 -0.71530117418E+03  0.81671432563E+03  0.39416559959E+03 0.  0.
      99925    2    3    3    0    0 -0.32660050932E+02 -0.13718612969E+02 -0.49664704554E+03  0.56232876129E+03  0.26134358356E+03 0.  0.
         25    1    4    4    0    0 -0.22856420405E+02 -0.37480898368E+02 -0.20745910594E+03  0.24619915198E+03  0.12509000000E+03 0.  0.
         25    1    3    3    0    0  0.32660050932E+02  0.13718612969E+02 -0.21865412864E+03  0.25438556433E+03  0.12509000000E+03 0.  0.
         25    1    4    4    0    0 -0.98036305271E+01  0.23762285399E+02 -0.28918793959E+03  0.31612960932E+03  0.12509000000E+03 0.  0.
<mgrwt>
<rscale>  2 0.39416560E+03</rscale>
<asrwt>0</asrwt>
<pdfrwt beam="1">  1       21 0.74568495E-02 0.39416560E+03</pdfrwt>
<pdfrwt beam="2">  1       21 0.11264820E+00 0.39416560E+03</pdfrwt>
<totfact> 0.78084486E+04</totfact>
</mgrwt>
</event>
<event>
 7    0  0.4709932E-002  0.4398660E+03  0.7546771E-02  0.1030788E+00
         21   -1    0    0  502  501  0.00000000000E+00  0.00000000000E+00  0.10549463820E+03  0.10549463820E+03  0.00000000000E+00 0.  1.
         21   -1    0    0  501  502 -0.00000000000E+00 -0.00000000000E+00 -0.45851160673E+03  0.45851160673E+03  0.00000000000E+00 0.  1.
      99926    2    1    2    0    0  0.00000000000E+00  0.35527136788E-14 -0.35301696853E+03  0.56400624492E+03  0.43986596168E+03 0.  0.
      99925    2    3    3    0    0  0.80389962912E+02 -0.17025360756E+02 -0.29467454129E+03  0.40337076951E+03  0.26291155045E+03 0.  0.
         25    1    4    4    0    0  0.43632359044E+01 -0.28461027484E+02 -0.14629829141E+03  0.19462724907E+03  0.12509000000E+03 0.  0.
         25    1    3    3    0    0 -0.80389962912E+02  0.17025360756E+02 -0.58342427238E+02  0.16063547542E+03  0.12509000000E+03 0.  0.
         25    1    4    4    0    0  0.76026727008E+02  0.11435666728E+02 -0.14837624988E+03  0.20874352043E+03  0.12509000000E+03 0.  0.
<mgrwt>
<rscale>  2 0.43986596E+03</rscale>
<asrwt>0</asrwt>
<pdfrwt beam="1">  1       21 0.15513918E-01 0.43986596E+03</pdfrwt>
<pdfrwt beam="2">  1       21 0.67428174E-01 0.43986596E+03</pdfrwt>
<totfact> 0.68825711E+04</totfact>
</mgrwt>
</event>
<event>
 7    0  0.4709932E-002  0.4538210E+03  0.7546771E-02  0.1026589E+00
         21   -1    0    0  502  501  0.00000000000E+00  0.00000000000E+00  0.44054524055E+03  0.44054524055E+03  0.00000000000E+00 0.  1.
         21   -1    0    0  501  502 -0.00000000000E+00 -0.00000000000E+00 -0.11687418805E+03  0.11687418805E+03  0.00000000000E+00 0.  1.
      99926    2    1    2    0    0 -0.71054273576E-14  0.00000000000E+00  0.32367105250E+03  0.55741942860E+03  0.45382096597E+03 0.  0.
      99925    2    3    3    0    0  0.61167659580E+02 -0.85395382272E+02  0.25219737171E+03  0.37912234776E+03  0.26286191504E+03 0.  0.
         25    1    3    3    0    0 -0.61167659580E+02  0.85395382272E+02  0.71473680794E+02  0.17829708085E+03  0.12509000000E+03 0.  0.
         25    1    4    4    0    0  0.43797239971E+02 -0.13986443191E+02  0.15536899507E+03  0.20469697494E+03  0.12509000000E+03 0.  0.
         25    1    4    4    0    0  0.17370419609E+02 -0.71408939081E+02  0.96828376643E+02  0.17442537281E+03  0.12509000000E+03 0.  0.
<mgrwt>
<rscale>  2 0.45382097E+03</rscale>
<asrwt>0</asrwt>
<pdfrwt beam="1">  1       21 0.64786064E-01 0.45382097E+03</pdfrwt>
<pdfrwt beam="2">  1       21 0.17187381E-01 0.45382097E+03</pdfrwt>
<totfact> 0.61954686E+04</totfact>
</mgrwt>
</event>
<event>
 7    0  0.4709932E-002  0.4480398E+03  0.7546771E-02  0.1028308E+00
         21   -1    0    0  502  501  0.00000000000E+00  0.00000000000E+00  0.21898774156E+03  0.21898774156E+03  0.00000000000E+00 0. -1.
         21   -1    0    0  501  502 -0.00000000000E+00 -0.00000000000E+00 -0.22916770747E+03  0.22916770747E+03  0.00000000000E+00 0. -1.
      99926    2    1    2    0    0  0.00000000000E+00 -0.16653345369E-14 -0.10179965916E+02  0.44815544903E+03  0.44803981384E+03 0.  0.
      99925    2    3    3    0    0  0.24568830740E+02  0.16388434008E+00  0.97464378867E+02  0.28130681294E+03  0.26273668102E+03 0.  0.
         25    1    3    3    0    0 -0.24568830740E+02 -0.16388434008E+00 -0.10764434478E+03  0.16684863609E+03  0.12509000000E+03 0.  0.
         25    1    4    4    0    0  0.37146125788E+02  0.25653590773E+02  0.29834028278E+02  0.13629203470E+03  0.12509000000E+03 0.  0.
         25    1    4    4    0    0 -0.12577295048E+02 -0.25489706433E+02  0.67630350589E+02  0.14501477823E+03  0.12509000000E+03 0.  0.
<mgrwt>
<rscale>  2 0.44803981E+03</rscale>
<asrwt>0</asrwt>
<pdfrwt beam="1">  1       21 0.32204080E-01 0.44803981E+03</pdfrwt>
<pdfrwt beam="2">  1       21 0.33701133E-01 0.44803981E+03</pdfrwt>
<totfact> 0.73021948E+04</totfact>
</mgrwt>
</event>
<event>
 7    0  0.4709932E-002  0.4544419E+03  0.7546771E-02  0.1026406E+00
         21   -1    0    0  502  501  0.00000000000E+00  0.00000000000E+00  0.11723913609E+03  0.11723913609E+03  0.00000000000E+00 0. -1.
         21   -1    0    0  501  502 -0.00000000000E+00 -0.00000000000E+00 -0.44037653783E+03  0.44037653783E+03  0.00000000000E+00 0. -1.
      99926    2    1    2    0    0  0.00000000000E+00  0.00000000000E+00 -0.32313740175E+03  0.55761567392E+03  0.45444192082E+03 0.  0.
      99925    2    3    3    0    0  0.64026934815E+02  0.10833214478E+02 -0.31634045733E+03  0.41651105504E+03  0.26304632121E+03 0.  0.
         25    1    4    4    0    0  0.83046108886E+01 -0.42542378959E+01 -0.20053934010E+03  0.23653879202E+03  0.12509000000E+03 0.  0.
         25    1    4    4    0    0  0.55722323926E+02  0.15087452374E+02 -0.11580111724E+03  0.17997226302E+03  0.12509000000E+03 0.  0.
         25    1    3    3    0    0 -0.64026934815E+02 -0.10833214478E+02 -0.67969444134E+01  0.14110461889E+03  0.12509000000E+03 0.  0.
<mgrwt>
<rscale>  2 0.45444192E+03</rscale>
<asrwt>0</asrwt>
<pdfrwt beam="1">  1       21 0.17241049E-01 0.45444192E+03</pdfrwt>
<pdfrwt beam="2">  1       21 0.64761256E-01 0.45444192E+03</pdfrwt>
<totfact> 0.61637706E+04</totfact>
</mgrwt>
</event>
<event>
 7    0  0.4709932E-002  0.4551394E+03  0.7546771E-02  0.1026200E+00
         21   -1    0    0  502  501  0.00000000000E+00  0.00000000000E+00  0.92246421839E+02  0.92246421839E+02  0.00000000000E+00 0. -1.
         21   -1    0    0  501  502 -0.00000000000E+00 -0.00000000000E+00 -0.56140892729E+03  0.56140892729E+03  0.00000000000E+00 0. -1.
      99926    2    1    2    0    0 -0.35527136788E-14 -0.14210854715E-13 -0.46916250545E+03  0.65365534913E+03  0.45513938406E+03 0.  0.
      99925    2    3    3    0    0  0.17466048964E+02  0.87790550424E+02 -0.19436416227E+03  0.33873650065E+03  0.26258854828E+03 0.  0.
         25    1    4    4    0    0  0.42902164988E+01  0.37648979497E+01 -0.10195394042E+03  0.16147660661E+03  0.12509000000E+03 0.  0.
         25    1    3    3    0    0 -0.17466048964E+02 -0.87790550424E+02 -0.27479834318E+03  0.31491884848E+03  0.12509000000E+03 0.  0.
         25    1    4    4    0    0  0.13175832465E+02  0.84025652474E+02 -0.92410221850E+02  0.17725989405E+03  0.12509000000E+03 0.  0.
<mgrwt>
<rscale>  2 0.45513938E+03</rscale>
<asrwt>0</asrwt>
<pdfrwt beam="1">  1       21 0.13565651E-01 0.45513938E+03</pdfrwt>
<pdfrwt beam="2">  1       21 0.82560133E-01 0.45513938E+03</pdfrwt>
<totfact> 0.55430431E+04</totfact>
</mgrwt>
</event>
<event>
 7    0  0.4709932E-002  0.4405094E+03  0.7546771E-02  0.1030591E+00
         21   -1    0    0  502  501  0.00000000000E+00  0.00000000000E+00  0.51274726562E+03  0.51274726562E+03  0.00000000000E+00 0. -1.
         21   -1    0    0  501  502 -0.00000000000E+00 -0.00000000000E+00 -0.94612191245E+02  0.94612191245E+02  0.00000000000E+00 0. -1.
      99926    2    1    2    0    0  0.14210854715E-13  0.71054273576E-14  0.41813507438E+03  0.60735945687E+03  0.44050944306E+03 0.  0.
      99925    2    3    3    0    0 -0.78497531652E+02 -0.32823560347E+02  0.33672705350E+03  0.43556300012E+03  0.26285123154E+03 0.  0.
         25    1    4    4    0    0 -0.75359699757E+02  0.25057135149E+01  0.16985970474E+03  0.22402051321E+03  0.12509000000E+03 0.  0.
         25    1    3    3    0    0  0.78497531652E+02  0.32823560347E+02  0.81408020874E+02  0.17179645675E+03  0.12509000000E+03 0.  0.
         25    1    4    4    0    0 -0.31378318950E+01 -0.35329273862E+02  0.16686734877E+03  0.21154248690E+03  0.12509000000E+03 0.  0.
<mgrwt>
<rscale>  2 0.44050944E+03</rscale>
<asrwt>0</asrwt>
<pdfrwt beam="1">  1       21 0.75404008E-01 0.44050944E+03</pdfrwt>
<pdfrwt beam="2">  1       21 0.13913558E-01 0.44050944E+03</pdfrwt>
<totfact> 0.65397622E+04</totfact>
</mgrwt>
</event>
<event>
 7    0  0.4709932E-002  0.4587075E+03  0.7546771E-02  0.1025157E+00
         21   -1    0    0  502  501  0.00000000000E+00  0.00000000000E+00  0.41320593179E+03  0.41320593179E+03  0.00000000000E+00 0.  1.
         21   -1    0    0  501  502 -0.00000000000E+00 -0.00000000000E+00 -0.12730488690E+03  0.12730488690E+03  0.00000000000E+00 0.  1.
      99926    2    1    2    0    0  0.00000000000E+00  0.00000000000E+00  0.28590104489E+03  0.54051081869E+03  0.45870746413E+03 0.  0.
      99925    2    3    3    0    0  0.51455716110E+02 -0.26133957514E+02  0.60074839910E+02  0.27598169475E+03  0.26310878927E+03 0.  0.
         25    1    3    3    0    0 -0.51455716110E+02  0.26133957514E+02  0.22582620498E+03  0.26452912393E+03  0.12509000000E+03 0.  0.
         25    1    4    4    0    0  0.37242054063E+02 -0.51147491424E+02  0.20553121910E+02  0.14167912828E+03  0.12509000000E+03 0.  0.
         25    1    4    4    0    0  0.14213662047E+02  0.25013533909E+02  0.39521718000E+02  0.13430256647E+03  0.12509000000E+03 0.  0.
<mgrwt>
<rscale>  2 0.45870746E+03</rscale>
<asrwt>0</asrwt>
<pdfrwt beam="1">  1       21 0.60765578E-01 0.45870746E+03</pdfrwt>
<pdfrwt beam="2">  1       21 0.18721307E-01 0.45870746E+03</pdfrwt>
<totfact> 0.60697361E+04</totfact>
</mgrwt>
</event>
<event>
 7    0  0.4709932E-002  0.4532044E+03  0.7546771E-02  0.1026771E+00
         21   -1    0    0  502  501  0.00000000000E+00  0.00000000000E+00  0.12780653475E+03  0.12780653475E+03  0.00000000000E+00 0.  1.
         21   -1    0    0  501  502 -0.00000000000E+00 -0.00000000000E+00 -0.40176787473E+03  0.40176787473E+03  0.00000000000E+00 0.  1.
      99926    2    1    2    0    0  0.00000000000E+00  0.13322676296E-14 -0.27396133998E+03  0.52957440948E+03  0.45320441235E+03 0.  0.
      99925    2    3    3    0    0  0.11089656210E+03 -0.20375214014E+01 -0.16153382440E+03  0.32810566913E+03  0.26316906108E+03 0.  0.
         25    1    4    4    0    0  0.56515857200E+02 -0.23469843589E+02 -0.12025717746E+03  0.18399503391E+03  0.12509000000E+03 0.  0.
         25    1    4    4    0    0  0.54380704901E+02  0.21432322187E+02 -0.41276646945E+02  0.14411063522E+03  0.12509000000E+03 0.  0.
         25    1    3    3    0    0 -0.11089656210E+03  0.20375214014E+01 -0.11242751558E+03  0.20146874035E+03  0.12509000000E+03 0.  0.
<mgrwt>
<rscale>  2 0.45320441E+03</rscale>
<asrwt>0</asrwt>
<pdfrwt beam="1">  1       21 0.18795079E-01 0.45320441E+03</pdfrwt>
<pdfrwt beam="2">  1       21 0.59083510E-01 0.45320441E+03</pdfrwt>
<totfact> 0.64143349E+04</totfact>
</mgrwt>
</event>
<event>
 7    0  0.4709932E-002  0.4413503E+03  0.7546771E-02  0.1030333E+00
         21   -1    0    0  502  501  0.00000000000E+00  0.00000000000E+00  0.19742395967E+03  0.19742395967E+03  0.00000000000E+00 0.  1.
         21   -1    0    0  501  502 -0.00000000000E+00 -0.00000000000E+00 -0.24666475543E+03  0.24666475543E+03  0.00000000000E+00 0.  1.
      99926    2    1    2    0    0 -0.71054273576E-14 -0.71054273576E-14 -0.49240795751E+02  0.44408871510E+03  0.44135034940E+03 0.  0.
      99925    2    3    3    0    0  0.48788365090E+02  0.37779953612E+02 -0.11009083717E+03  0.29191163041E+03  0.26322001839E+03 0.  0.
         25    1    4    4    0    0  0.41358706597E+02 -0.64816037845E+01 -0.25428711471E+02  0.13433793681E+03  0.12509000000E+03 0.  0.
         25    1    4    4    0    0  0.74296584932E+01  0.44261557396E+02 -0.84662125698E+02  0.15757369360E+03  0.12509000000E+03 0.  0.
         25    1    3    3    0    0 -0.48788365090E+02 -0.37779953612E+02  0.60850041418E+02  0.15217708469E+03  0.12509000000E+03 0.  0.
<mgrwt>
<rscale>  2 0.44135035E+03</rscale>
<asrwt>0</asrwt>
<pdfrwt beam="1">  1       21 0.29032935E-01 0.44135035E+03</pdfrwt>
<pdfrwt beam="2">  1       21 0.36274229E-01 0.44135035E+03</pdfrwt>
<totfact> 0.77449619E+04</totfact>
</mgrwt>
</event>
<event>
 7    0  0.4709932E-002  0.4533314E+03  0.7546771E-02  0.1026733E+00
         21   -1    0    0  502  501  0.00000000000E+00  0.00000000000E+00  0.10062213352E+03  0.10062213352E+03  0.00000000000E+00 0.  1.
         21   -1    0    0  501  502 -0.00000000000E+00 -0.00000000000E+00 -0.51059677007E+03  0.51059677007E+03  0.00000000000E+00 0.  1.
      99926    2    1    2    0    0  0.17763568394E-14  0.14210854715E-13 -0.40997463655E+03  0.61121890358E+03  0.45333138595E+03 0.  0.
      99925    2    3    3    0    0 -0.12139327823E+02 -0.11016850626E+03 -0.27578293485E+03  0.39688415615E+03  0.26301396009E+03 0.  0.
         25    1    4    4    0    0 -0.38671980283E+01 -0.11132076112E+02 -0.12005677711E+03  0.17378151849E+03  0.12509000000E+03 0.  0.
         25    1    4    4    0    0 -0.82721297949E+01 -0.99036430147E+02 -0.15572615774E+03  0.22310263766E+03  0.12509000000E+03 0.  0.
         25    1    3    3    0    0  0.12139327823E+02  0.11016850626E+03 -0.13419170170E+03  0.21433474743E+03  0.12509000000E+03 0.  0.
<mgrwt>
<rscale>  2 0.45333139E+03</rscale>
<asrwt>0</asrwt>
<pdfrwt beam="1">  1       21 0.14797373E-01 0.45333139E+03</pdfrwt>
<pdfrwt beam="2">  1       21 0.75087760E-01 0.45333139E+03</pdfrwt>
<totfact> 0.58763640E+04</totfact>
</mgrwt>
</event>
<event>
 7    0  0.4709932E-002  0.4477839E+03  0.7546771E-02  0.1028385E+00
         21   -1    0    0  502  501  0.00000000000E+00  0.00000000000E+00  0.22882962381E+03  0.22882962381E+03  0.00000000000E+00 0.  1.
         21   -1    0    0  501  502 -0.00000000000E+00 -0.00000000000E+00 -0.21906078959E+03  0.21906078959E+03  0.00000000000E+00 0.  1.
      99926    2    1    2    0    0  0.00000000000E+00  0.00000000000E+00  0.97688342206E+01  0.44789041340E+03  0.44778386784E+03 0.  0.
      99925    2    3    3    0    0 -0.70162010246E+02 -0.78475558056E+02 -0.73161137438E+01  0.28351120413E+03  0.26314246418E+03 0.  0.
         25    1    4    4    0    0 -0.46382956912E+02 -0.31699780884E+02 -0.42152581848E+02  0.14345941258E+03  0.12509000000E+03 0.  0.
         25    1    3    3    0    0  0.70162010246E+02  0.78475558056E+02  0.17084947964E+02  0.16437920927E+03  0.12509000000E+03 0.  0.
         25    1    4    4    0    0 -0.23779053333E+02 -0.46775777172E+02  0.34836468104E+02  0.14005179155E+03  0.12509000000E+03 0.  0.
<mgrwt>
<rscale>  2 0.44778387E+03</rscale>
<asrwt>0</asrwt>
<pdfrwt beam="1">  1       21 0.33651415E-01 0.44778387E+03</pdfrwt>
<pdfrwt beam="2">  1       21 0.32214822E-01 0.44778387E+03</pdfrwt>
<totfact> 0.73194206E+04</totfact>
</mgrwt>
</event>
<event>
 7    0  0.4709932E-002  0.4490564E+03  0.7546771E-02  0.1028004E+00
         21   -1    0    0  502  501  0.00000000000E+00  0.00000000000E+00  0.54130005248E+03  0.54130005248E+03  0.00000000000E+00 0.  1.
         21   -1    0    0  501  502 -0.00000000000E+00 -0.00000000000E+00 -0.93133038556E+02  0.93133038556E+02  0.00000000000E+00 0.  1.
      99926    2    1    2    0    0  0.35527136788E-14  0.35527136788E-14  0.44816701392E+03  0.63443309103E+03  0.44905642700E+03 0.  0.
      99925    2    3    3    0    0  0.14936514774E+02  0.28853529103E+02  0.13868936802E+03  0.29905338529E+03  0.26294973062E+03 0.  0.
         25    1    4    4    0    0  0.31375432717E+02  0.19395846299E+02  0.10682887695E+03  0.16858390695E+03  0.12509000000E+03 0.  0.
         25    1    4    4    0    0 -0.16438917943E+02  0.94576828034E+01  0.31860491076E+02  0.13046947834E+03  0.12509000000E+03 0.  0.
         25    1    3    3    0    0 -0.14936514774E+02 -0.28853529103E+02  0.30947764590E+03  0.33537970574E+03  0.12509000000E+03 0.  0.
<mgrwt>
<rscale>  2 0.44905643E+03</rscale>
<asrwt>0</asrwt>
<pdfrwt beam="1">  1       21 0.79602947E-01 0.44905643E+03</pdfrwt>
<pdfrwt beam="2">  1       21 0.13696035E-01 0.44905643E+03</pdfrwt>
<totfact> 0.59342489E+04</totfact>
</mgrwt>
</event>
<event>
 7    0  0.4709932E-002  0.4548744E+03  0.7546771E-02  0.1026278E+00
         21   -1    0    0  502  501  0.00000000000E+00  0.00000000000E+00  0.69012434322E+03  0.69012434322E+03  0.00000000000E+00 0. -1.
         21   -1    0    0  501  502 -0.00000000000E+00 -0.00000000000E+00 -0.74954155511E+02  0.74954155511E+02  0.00000000000E+00 0. -1.
      99926    2    1    2    0    0  0.00000000000E+00  0.00000000000E+00  0.61517018771E+03  0.76507849873E+03  0.45487443253E+03 0.  0.
      99925    2    3    3    0    0 -0.90228378379E+02 -0.30788027020E+02  0.48952765403E+03  0.56377619561E+03  0.26290152491E+03 0.  0.
         25    1    4    4    0    0 -0.46856329467E+02  0.39747281804E+01  0.17056641930E+03  0.21668346861E+03  0.12509000000E+03 0.  0.
         25    1    3    3    0    0  0.90228378379E+02  0.30788027020E+02  0.12564253368E+03  0.20130230312E+03  0.12509000000E+03 0.  0.
         25    1    4    4    0    0 -0.43372048913E+02 -0.34762755201E+02  0.31896123473E+03  0.34709272700E+03  0.12509000000E+03 0.  0.
<mgrwt>
<rscale>  2 0.45487443E+03</rscale>
<asrwt>0</asrwt>
<pdfrwt beam="1">  1       21 0.10148887E+00 0.45487443E+03</pdfrwt>
<pdfrwt beam="2">  1       21 0.11022670E-01 0.45487443E+03</pdfrwt>
<totfact> 0.49548933E+04</totfact>
</mgrwt>
</event>
<event>
 7    0  0.4709932E-002  0.4719574E+03  0.7546771E-02  0.1021369E+00
         21   -1    0    0  502  501  0.00000000000E+00  0.00000000000E+00  0.58370508410E+02  0.58370508410E+02  0.00000000000E+00 0.  1.
         21   -1    0    0  501  502 -0.00000000000E+00 -0.00000000000E+00 -0.95400838211E+03  0.95400838211E+03  0.00000000000E+00 0.  1.
      99926    2    1    2    0    0  0.00000000000E+00  0.00000000000E+00 -0.89563787370E+03  0.10123788905E+04  0.47195743152E+03 0.  0.
      99925    2    3    3    0    0 -0.81407660592E+02  0.95948437892E+02 -0.61069740664E+03  0.67671255648E+03  0.26297386123E+03 0.  0.
         25    1    4    4    0    0 -0.68306496807E+02  0.66089632649E+02 -0.27092097981E+03  0.31317615243E+03  0.12509000000E+03 0.  0.
         25    1    3    3    0    0  0.81407660592E+02 -0.95948437892E+02 -0.28494046707E+03  0.33566633404E+03  0.12509000000E+03 0.  0.
         25    1    4    4    0    0 -0.13101163784E+02  0.29858805243E+02 -0.33977642683E+03  0.36353640405E+03  0.12509000000E+03 0.  0.
<mgrwt>
<rscale>  2 0.47195743E+03</rscale>
<asrwt>0</asrwt>
<pdfrwt beam="1">  1       21 0.85838986E-02 0.47195743E+03</pdfrwt>
<pdfrwt beam="2">  1       21 0.14029535E+00 0.47195743E+03</pdfrwt>
<totfact> 0.33963487E+04</totfact>
</mgrwt>
</event>
<event>
 7    0  0.4709932E-002  0.4569012E+03  0.7546771E-02  0.1025684E+00
         21   -1    0    0  502  501  0.00000000000E+00  0.00000000000E+00  0.10665271878E+03  0.10665271878E+03  0.00000000000E+00 0. -1.
         21   -1    0    0  501  502 -0.00000000000E+00 -0.00000000000E+00 -0.48934216883E+03  0.48934216883E+03  0.00000000000E+00 0. -1.
      99926    2    1    2    0    0  0.71054273576E-14  0.00000000000E+00 -0.38268945005E+03  0.59599488761E+03  0.45690118284E+03 0.  0.
      99925    2    3    3    0    0  0.33006495773E+02 -0.86772305055E+02 -0.32889293713E+03  0.43119065651E+03  0.26293717211E+03 0.  0.
         25    1    4    4    0    0  0.54389965418E+02 -0.30492159998E+02 -0.17415763914E+03  0.22330792984E+03  0.12509000000E+03 0.  0.
         25    1    4    4    0    0 -0.21383469646E+02 -0.56280145057E+02 -0.15473529799E+03  0.20788272666E+03  0.12509000000E+03 0.  0.
         25    1    3    3    0    0 -0.33006495773E+02  0.86772305055E+02 -0.53796512925E+02  0.16480423111E+03  0.12509000000E+03 0.  0.
<mgrwt>
<rscale>  2 0.45690118E+03</rscale>
<asrwt>0</asrwt>
<pdfrwt beam="1">  1       21 0.15684223E-01 0.45690118E+03</pdfrwt>
<pdfrwt beam="2">  1       21 0.71962083E-01 0.45690118E+03</pdfrwt>
<totfact> 0.58048446E+04</totfact>
</mgrwt>
</event>
<event>
 7    0  0.4709932E-002  0.4566068E+03  0.7546771E-02  0.1025770E+00
         21   -1    0    0  502  501  0.00000000000E+00  0.00000000000E+00  0.33146199150E+03  0.33146199150E+03  0.00000000000E+00 0.  1.
         21   -1    0    0  501  502 -0.00000000000E+00 -0.00000000000E+00 -0.15725015863E+03  0.15725015863E+03  0.00000000000E+00 0.  1.
      99926    2    1    2    0    0  0.14210854715E-13  0.00000000000E+00  0.17421183288E+03  0.48871215013E+03  0.45660683632E+03 0.  0.
      99925    2    3    3    0    0 -0.75125403038E+02 -0.38286946230E+02  0.26442143860E+02  0.27754135308E+03  0.26309750905E+03 0.  0.
         25    1    4    4    0    0 -0.71789629174E+02 -0.85473582508E+01 -0.69866719844E+01  0.14464829717E+03  0.12509000000E+03 0.  0.
         25    1    4    4    0    0 -0.33357738643E+01 -0.29739587980E+02  0.33428815845E+02  0.13289305591E+03  0.12509000000E+03 0.  0.
         25    1    3    3    0    0  0.75125403038E+02  0.38286946230E+02  0.14776968902E+03  0.21117079705E+03  0.12509000000E+03 0.  0.
<mgrwt>
<rscale>  2 0.45660684E+03</rscale>
<asrwt>0</asrwt>
<pdfrwt beam="1">  1       21 0.48744411E-01 0.45660684E+03</pdfrwt>
<pdfrwt beam="2">  1       21 0.23125023E-01 0.45660684E+03</pdfrwt>
<totfact> 0.65235060E+04</totfact>
</mgrwt>
</event>
<event>
 7    0  0.4709932E-002  0.4548648E+03  0.7546771E-02  0.1026281E+00
         21   -1    0    0  502  501  0.00000000000E+00  0.00000000000E+00  0.15360930307E+04  0.15360930307E+04  0.00000000000E+00 0.  1.
         21   -1    0    0  501  502 -0.00000000000E+00 -0.00000000000E+00 -0.33673411004E+02  0.33673411004E+02  0.00000000000E+00 0.  1.
      99926    2    1    2    0    0  0.71054273576E-14  0.88817841970E-15  0.15024196197E+04  0.15697664417E+04  0.45486477974E+03 0.  0.
      99925    2    3    3    0    0 -0.46039528855E+02 -0.10997150980E+01  0.13018115074E+04  0.13289096992E+04  0.26299608409E+03 0.  0.
         25    1    4    4    0    0 -0.63347277322E+02  0.68013208546E+01  0.70177114334E+03  0.71567407473E+03  0.12509000000E+03 0.  0.
         25    1    4    4    0    0  0.17307748467E+02 -0.79010359526E+01  0.60004036402E+03  0.61323562444E+03  0.12509000000E+03 0.  0.
         25    1    3    3    0    0  0.46039528855E+02  0.10997150980E+01  0.20060811231E+03  0.24085674252E+03  0.12509000000E+03 0.  0.
<mgrwt>
<rscale>  2 0.45486478E+03</rscale>
<asrwt>0</asrwt>
<pdfrwt beam="1">  1       21 0.22589599E+00 0.45486478E+03</pdfrwt>
<pdfrwt beam="2">  1       21 0.49519732E-02 0.45486478E+03</pdfrwt>
<totfact> 0.22143150E+04</totfact>
</mgrwt>
</event>
<event>
 7    0  0.4709932E-002  0.4567660E+03  0.7546771E-02  0.1025723E+00
         21   -1    0    0  502  501  0.00000000000E+00  0.00000000000E+00  0.10635653538E+03  0.10635653538E+03  0.00000000000E+00 0.  1.
         21   -1    0    0  501  502 -0.00000000000E+00 -0.00000000000E+00 -0.49041447337E+03  0.49041447337E+03  0.00000000000E+00 0.  1.
      99926    2    1    2    0    0  0.71054273576E-14 -0.35527136788E-14 -0.38405793799E+03  0.59677100874E+03  0.45676595445E+03 0.  0.
      99925    2    3    3    0    0 -0.45675260090E+02  0.27442060421E+02 -0.37409870294E+03  0.46044056267E+03  0.26309005330E+03 0.  0.
         25    1    3    3    0    0  0.45675260090E+02 -0.27442060421E+02 -0.99592350546E+01  0.13633044608E+03  0.12509000000E+03 0.  0.
         25    1    4    4    0    0 -0.52108553766E+02  0.27521003789E+02 -0.23969543553E+03  0.27672028646E+03  0.12509000000E+03 0.  0.
         25    1    4    4    0    0  0.64332936760E+01 -0.78943368519E-01 -0.13440326741E+03  0.18372027621E+03  0.12509000000E+03 0.  0.
<mgrwt>
<rscale>  2 0.45676595E+03</rscale>
<asrwt>0</asrwt>
<pdfrwt beam="1">  1       21 0.15640667E-01 0.45676595E+03</pdfrwt>
<pdfrwt beam="2">  1       21 0.72119776E-01 0.45676595E+03</pdfrwt>
<totfact> 0.58062959E+04</totfact>
</mgrwt>
</event>
<event>
 7    0  0.4709932E-002  0.4529518E+03  0.7546771E-02  0.1026845E+00
         21   -1    0    0  502  501  0.00000000000E+00  0.00000000000E+00  0.21852726515E+03  0.21852726515E+03  0.00000000000E+00 0. -1.
         21   -1    0    0  501  502 -0.00000000000E+00 -0.00000000000E+00 -0.23471369518E+03  0.23471369518E+03  0.00000000000E+00 0. -1.
      99926    2    1    2    0    0  0.14210854715E-13  0.14210854715E-13 -0.16186430029E+02  0.45324096032E+03  0.45295183806E+03 0.  0.
      99925    2    3    3    0    0  0.79595041764E+02  0.73284721470E+02 -0.35318272080E+02  0.28674904895E+03  0.26319501449E+03 0.  0.
         25    1    4    4    0    0  0.73614205483E+02  0.43117060308E+02  0.58210685457E+01  0.15152400825E+03  0.12509000000E+03 0.  0.
         25    1    3    3    0    0 -0.79595041764E+02 -0.73284721470E+02  0.19131842051E+02  0.16649191138E+03  0.12509000000E+03 0.  0.
         25    1    4    4    0    0  0.59808362804E+01  0.30167661162E+02 -0.41139340626E+02  0.13522504069E+03  0.12509000000E+03 0.  0.
<mgrwt>
<rscale>  2 0.45295184E+03</rscale>
<asrwt>0</asrwt>
<pdfrwt beam="1">  1       21 0.32136362E-01 0.45295184E+03</pdfrwt>
<pdfrwt beam="2">  1       21 0.34516720E-01 0.45295184E+03</pdfrwt>
<totfact> 0.69808731E+04</totfact>
</mgrwt>
</event>
<event>
 7    0  0.4709932E-002  0.4546247E+03  0.7546771E-02  0.1026352E+00
         21   -1    0    0  502  501  0.00000000000E+00  0.00000000000E+00  0.32178937285E+03  0.32178937285E+03  0.00000000000E+00 0. -1.
         21   -1    0    0  501  502 -0.00000000000E+00 -0.00000000000E+00 -0.16057365263E+03  0.16057365263E+03  0.00000000000E+00 0. -1.
      99926    2    1    2    0    0  0.00000000000E+00  0.00000000000E+00  0.16121572022E+03  0.48236302548E+03  0.45462465827E+03 0.  0.
      99925    2    3    3    0    0  0.69168779637E+02 -0.76694715259E+02  0.15044521556E+03  0.31979023779E+03  0.26261308779E+03 0.  0.
         25    1    4    4    0    0  0.59210486096E+02 -0.73397834758E+02  0.84710289025E+02  0.17809117041E+03  0.12509000000E+03 0.  0.
         25    1    4    4    0    0  0.99582935411E+01 -0.32968805003E+01  0.65734926536E+02  0.14169906739E+03  0.12509000000E+03 0.  0.
         25    1    3    3    0    0 -0.69168779637E+02  0.76694715259E+02  0.10770504655E+02  0.16257278768E+03  0.12509000000E+03 0.  0.
<mgrwt>
<rscale>  2 0.45462466E+03</rscale>
<asrwt>0</asrwt>
<pdfrwt beam="1">  1       21 0.47321966E-01 0.45462466E+03</pdfrwt>
<pdfrwt beam="2">  1       21 0.23613773E-01 0.45462466E+03</pdfrwt>
<totfact> 0.66727079E+04</totfact>
</mgrwt>
</event>
<event>
 7    0  0.4709932E-002  0.4258423E+03  0.7546771E-02  0.1035181E+00
         21   -1    0    0  502  501  0.00000000000E+00  0.00000000000E+00  0.63149441844E+02  0.63149441844E+02  0.00000000000E+00 0.  1.
         21   -1    0    0  501  502 -0.00000000000E+00 -0.00000000000E+00 -0.71790685649E+03  0.71790685649E+03  0.00000000000E+00 0.  1.
      99926    2    1    2    0    0 -0.14210854715E-13  0.00000000000E+00 -0.65475741465E+03  0.78105629833E+03  0.42584230548E+03 0.  0.
      99925    2    3    3    0    0 -0.63544903323E+02 -0.16020917095E+02 -0.33102389557E+03  0.42786297451E+03  0.26304995912E+03 0.  0.
         25    1    4    4    0    0 -0.52778730106E+02 -0.34132267339E+02 -0.13574358011E+03  0.19499854786E+03  0.12509000000E+03 0.  0.
         25    1    3    3    0    0  0.63544903323E+02  0.16020917095E+02 -0.32373351907E+03  0.35319332382E+03  0.12509000000E+03 0.  0.
         25    1    4    4    0    0 -0.10766173217E+02  0.18111350244E+02 -0.19528031546E+03  0.23286442665E+03  0.12509000000E+03 0.  0.
<mgrwt>
<rscale>  2 0.42584231E+03</rscale>
<asrwt>0</asrwt>
<pdfrwt beam="1">  1       21 0.92866822E-02 0.42584231E+03</pdfrwt>
<pdfrwt beam="2">  1       21 0.10557454E+00 0.42584231E+03</pdfrwt>
<totfact> 0.61637007E+04</totfact>
</mgrwt>
</event>
<event>
 7    0  0.4709932E-002  0.4438312E+03  0.7546771E-02  0.1029578E+00
         21   -1    0    0  502  501  0.00000000000E+00  0.00000000000E+00  0.32245396734E+02  0.32245396734E+02  0.00000000000E+00 0.  1.
         21   -1    0    0  501  502 -0.00000000000E+00 -0.00000000000E+00 -0.15272424870E+04  0.15272424870E+04  0.00000000000E+00 0.  1.
      99926    2    1    2    0    0  0.14210854715E-13 -0.71054273576E-14 -0.14949970903E+04  0.15594878837E+04  0.44383122875E+03 0.  0.
      99925    2    3    3    0    0  0.75185232849E+02  0.61827106813E+02 -0.83980890794E+03  0.88540000168E+03  0.26301853688E+03 0.  0.
         25    1    4    4    0    0  0.78366070018E+02  0.43420349348E+02 -0.47337922268E+03  0.49775693288E+03  0.12509000000E+03 0.  0.
         25    1    3    3    0    0 -0.75185232849E+02 -0.61827106813E+02 -0.65518818231E+03  0.67408788204E+03  0.12509000000E+03 0.  0.
         25    1    4    4    0    0 -0.31808371692E+01  0.18406757464E+02 -0.36642968526E+03  0.38764306880E+03  0.12509000000E+03 0.  0.
<mgrwt>
<rscale>  2 0.44383123E+03</rscale>
<asrwt>0</asrwt>
<pdfrwt beam="1">  1       21 0.47419703E-02 0.44383123E+03</pdfrwt>
<pdfrwt beam="2">  1       21 0.22459448E+00 0.44383123E+03</pdfrwt>
<totfact> 0.24407623E+04</totfact>
</mgrwt>
</event>
<event>
 7    0  0.4709932E-002  0.4532931E+03  0.7546771E-02  0.1026745E+00
         21   -1    0    0  502  501  0.00000000000E+00  0.00000000000E+00  0.31675956550E+02  0.31675956550E+02  0.00000000000E+00 0. -1.
         21   -1    0    0  501  502 -0.00000000000E+00 -0.00000000000E+00 -0.16216926437E+04  0.16216926437E+04  0.00000000000E+00 0. -1.
      99926    2    1    2    0    0  0.00000000000E+00  0.00000000000E+00 -0.15900166871E+04  0.16533686002E+04  0.45329313129E+03 0.  0.
      99925    2    3    3    0    0 -0.49439824518E+02 -0.20918641125E+02 -0.13602771197E+04  0.13863299088E+04  0.26205893947E+03 0.  0.
         25    1    3    3    0    0  0.49439824518E+02  0.20918641125E+02 -0.22973956739E+03  0.26703869143E+03  0.12509000000E+03 0.  0.
         25    1    4    4    0    0 -0.24453034499E+02  0.17208905785E+02 -0.81180538091E+03  0.82193039967E+03  0.12509000000E+03 0.  0.
         25    1    4    4    0    0 -0.24986790019E+02 -0.38127546910E+02 -0.54847173884E+03  0.56439950914E+03  0.12509000000E+03 0.  0.
<mgrwt>
<rscale>  2 0.45329313E+03</rscale>
<asrwt>0</asrwt>
<pdfrwt beam="1">  1       21 0.46582289E-02 0.45329313E+03</pdfrwt>
<pdfrwt beam="2">  1       21 0.23848421E+00 0.45329313E+03</pdfrwt>
<totfact> 0.20520827E+04</totfact>
</mgrwt>
</event>
<event>
 7    0  0.4709932E-002  0.4223677E+03  0.7546771E-02  0.1036298E+00
         21   -1    0    0  502  501  0.00000000000E+00  0.00000000000E+00  0.76631899923E+02  0.76631899923E+02  0.00000000000E+00 0. -1.
         21   -1    0    0  501  502 -0.00000000000E+00 -0.00000000000E+00 -0.58198509855E+03  0.58198509855E+03  0.00000000000E+00 0. -1.
      99926    2    1    2    0    0  0.53290705182E-14  0.00000000000E+00 -0.50535319862E+03  0.65861699847E+03  0.42236772523E+03 0.  0.
      99925    2    3    3    0    0 -0.10693283422E+02 -0.19124175808E+02 -0.21006223066E+03  0.33717595524E+03  0.26283341422E+03 0.  0.
         25    1    4    4    0    0 -0.36755650516E+02 -0.49748684093E+01 -0.74046888041E+02  0.15002058822E+03  0.12509000000E+03 0.  0.
         25    1    3    3    0    0  0.10693283422E+02  0.19124175808E+02 -0.29529096796E+03  0.32144104322E+03  0.12509000000E+03 0.  0.
         25    1    4    4    0    0  0.26062367094E+02 -0.14149307398E+02 -0.13601534262E+03  0.18715536703E+03  0.12509000000E+03 0.  0.
<mgrwt>
<rscale>  2 0.42236773E+03</rscale>
<asrwt>0</asrwt>
<pdfrwt beam="1">  1       21 0.11269397E-01 0.42236773E+03</pdfrwt>
<pdfrwt beam="2">  1       21 0.85586047E-01 0.42236773E+03</pdfrwt>
<totfact> 0.72014573E+04</totfact>
</mgrwt>
</event>
<event>
 7    0  0.4709932E-002  0.4553972E+03  0.7546771E-02  0.1026125E+00
         21   -1    0    0  502  501  0.00000000000E+00  0.00000000000E+00  0.74496431443E+02  0.74496431443E+02  0.00000000000E+00 0. -1.
         21   -1    0    0  501  502 -0.00000000000E+00 -0.00000000000E+00 -0.69596143452E+03  0.69596143452E+03  0.00000000000E+00 0. -1.
      99926    2    1    2    0    0  0.00000000000E+00  0.00000000000E+00 -0.62146500308E+03  0.77045786596E+03  0.45539715982E+03 0.  0.
      99925    2    3    3    0    0  0.10495541930E+03 -0.36271589280E+02 -0.35059636436E+03  0.45210492382E+03  0.26296346364E+03 0.  0.
         25    1    4    4    0    0  0.30211163792E+02 -0.23951554094E+02 -0.11207218341E+03  0.17231968476E+03  0.12509000000E+03 0.  0.
         25    1    4    4    0    0  0.74744255511E+02 -0.12320035186E+02 -0.23852418095E+03  0.27978523907E+03  0.12509000000E+03 0.  0.
         25    1    3    3    0    0 -0.10495541930E+03  0.36271589280E+02 -0.27086863871E+03  0.31835294214E+03  0.12509000000E+03 0.  0.
<mgrwt>
<rscale>  2 0.45539716E+03</rscale>
<asrwt>0</asrwt>
<pdfrwt beam="1">  1       21 0.10955358E-01 0.45539716E+03</pdfrwt>
<pdfrwt beam="2">  1       21 0.10234727E+00 0.45539716E+03</pdfrwt>
<totfact> 0.49073698E+04</totfact>
</mgrwt>
</event>
<event>
 7    0  0.4709932E-002  0.4682890E+03  0.7546771E-02  0.1022404E+00
         21   -1    0    0  502  501  0.00000000000E+00  0.00000000000E+00  0.18571708173E+03  0.18571708173E+03  0.00000000000E+00 0. -1.
         21   -1    0    0  501  502 -0.00000000000E+00 -0.00000000000E+00 -0.29519977076E+03  0.29519977076E+03  0.00000000000E+00 0. -1.
      99926    2    1    2    0    0  0.00000000000E+00 -0.14210854715E-13 -0.10948268903E+03  0.48091685249E+03  0.46828897042E+03 0.  0.
      99925    2    3    3    0    0 -0.92581201376E+02 -0.75236301794E+02 -0.30208937816E+02  0.29074951648E+03  0.26342156603E+03 0.  0.
         25    1    3    3    0    0  0.92581201376E+02  0.75236301794E+02 -0.79273751209E+02  0.19016733601E+03  0.12509000000E+03 0.  0.
         25    1    4    4    0    0 -0.19654637551E+02 -0.75379441942E+01  0.55044848207E+01  0.12696823553E+03  0.12509000000E+03 0.  0.
         25    1    4    4    0    0 -0.72926563825E+02 -0.67698357599E+02 -0.35713422637E+02  0.16378128095E+03  0.12509000000E+03 0.  0.
<mgrwt>
<rscale>  2 0.46828897E+03</rscale>
<asrwt>0</asrwt>
<pdfrwt beam="1">  1       21 0.27311336E-01 0.46828897E+03</pdfrwt>
<pdfrwt beam="2">  1       21 0.43411731E-01 0.46828897E+03</pdfrwt>
<totfact> 0.60047059E+04</totfact>
</mgrwt>
</event>
<event>
 7    0  0.4709932E-002  0.4591437E+03  0.7546771E-02  0.1025030E+00
         21   -1    0    0  502  501  0.00000000000E+00  0.00000000000E+00  0.13195126665E+03  0.13195126665E+03  0.00000000000E+00 0. -1.
         21   -1    0    0  501  502 -0.00000000000E+00 -0.00000000000E+00 -0.39941443971E+03  0.39941443971E+03  0.00000000000E+00 0. -1.
      99926    2    1    2    0    0  0.00000000000E+00  0.00000000000E+00 -0.26746317306E+03  0.53136570636E+03  0.45914373016E+03 0.  0.
      99925    2    3    3    0    0 -0.49915458607E+02 -0.55428880570E+02 -0.64081439523E+02  0.28121464910E+03  0.26346030852E+03 0.  0.
         25    1    3    3    0    0  0.49915458607E+02  0.55428880570E+02 -0.20338173354E+03  0.25015105726E+03  0.12509000000E+03 0.  0.
         25    1    4    4    0    0 -0.59662459391E+02 -0.28705978880E+02 -0.96466859320E+01  0.14185982142E+03  0.12509000000E+03 0.  0.
         25    1    4    4    0    0  0.97470007841E+01 -0.26722901690E+02 -0.54434753591E+02  0.13935482768E+03  0.12509000000E+03 0.  0.
<mgrwt>
<rscale>  2 0.45914373E+03</rscale>
<asrwt>0</asrwt>
<pdfrwt beam="1">  1       21 0.19404598E-01 0.45914373E+03</pdfrwt>
<pdfrwt beam="2">  1       21 0.58737418E-01 0.45914373E+03</pdfrwt>
<totfact> 0.61083154E+04</totfact>
</mgrwt>
</event>
<event>
 7    0  0.4709932E-002  0.4441092E+03  0.7546771E-02  0.1029493E+00
         21   -1    0    0  502  501  0.00000000000E+00  0.00000000000E+00  0.12192909846E+04  0.12192909846E+04  0.00000000000E+00 0. -1.
         21   -1    0    0  501  502 -0.00000000000E+00 -0.00000000000E+00 -0.40440088539E+02  0.40440088539E+02  0.00000000000E+00 0. -1.
      99926    2    1    2    0    0  0.00000000000E+00  0.00000000000E+00  0.11788508961E+04  0.12597310732E+04  0.44410915493E+03 0.  0.
      99925    2    3    3    0    0  0.28827858143E+02 -0.70878376712E+02  0.55521097535E+03  0.61908370642E+03  0.26296505225E+03 0.  0.
         25    1    3    3    0    0 -0.28827858143E+02  0.70878376712E+02  0.62363992074E+03  0.64064736675E+03  0.12509000000E+03 0.  0.
         25    1    4    4    0    0  0.43336432867E+02 -0.33497023017E+02  0.21856974213E+03  0.25772143341E+03  0.12509000000E+03 0.  0.
         25    1    4    4    0    0 -0.14508574724E+02 -0.37381353695E+02  0.33664123322E+03  0.36136227300E+03  0.12509000000E+03 0.  0.
<mgrwt>
<rscale>  2 0.44410915E+03</rscale>
<asrwt>0</asrwt>
<pdfrwt beam="1">  1       21 0.17930747E+00 0.44410915E+03</pdfrwt>
<pdfrwt beam="2">  1       21 0.59470726E-02 0.44410915E+03</pdfrwt>
<totfact> 0.33017501E+04</totfact>
</mgrwt>
</event>
<event>
 7    0  0.4709932E-002  0.4452000E+03  0.7546771E-02  0.1029163E+00
         21   -1    0    0  502  501  0.00000000000E+00  0.00000000000E+00  0.45024950889E+02  0.45024950889E+02  0.00000000000E+00 0.  1.
         21   -1    0    0  501  502 -0.00000000000E+00 -0.00000000000E+00 -0.11005179917E+04  0.11005179917E+04  0.00000000000E+00 0.  1.
      99926    2    1    2    0    0 -0.71054273576E-14  0.35527136788E-14 -0.10554930408E+04  0.11455429425E+04  0.44520003830E+03 0.  0.
      99925    2    3    3    0    0  0.57464374679E+02 -0.24637423648E+02 -0.45772327642E+03  0.53163304991E+03  0.26308543286E+03 0.  0.
         25    1    3    3    0    0 -0.57464374679E+02  0.24637423648E+02 -0.59776976436E+03  0.61390989264E+03  0.12509000000E+03 0.  0.
         25    1    4    4    0    0  0.41268766027E+02 -0.45953589553E+02 -0.19922229269E+03  0.24321158165E+03  0.12509000000E+03 0.  0.
         25    1    4    4    0    0  0.16195608652E+02  0.21316165905E+02 -0.25850098373E+03  0.28842146827E+03  0.12509000000E+03 0.  0.
<mgrwt>
<rscale>  2 0.44520004E+03</rscale>
<asrwt>0</asrwt>
<pdfrwt beam="1">  1       21 0.66213170E-02 0.44520004E+03</pdfrwt>
<pdfrwt beam="2">  1       21 0.16184086E+00 0.44520004E+03</pdfrwt>
<totfact> 0.36652039E+04</totfact>
</mgrwt>
</event>
<event>
 7    0  0.4709932E-002  0.4692690E+03  0.7546771E-02  0.1022127E+00
         21   -1    0    0  502  501  0.00000000000E+00  0.00000000000E+00  0.19838370877E+03  0.19838370877E+03  0.00000000000E+00 0. -1.
         21   -1    0    0  501  502 -0.00000000000E+00 -0.00000000000E+00 -0.27750946237E+03  0.27750946237E+03  0.00000000000E+00 0. -1.
      99926    2    1    2    0    0  0.26645352591E-14  0.00000000000E+00 -0.79125753601E+02  0.47589317115E+03  0.46926903314E+03 0.  0.
      99925    2    3    3    0    0 -0.19870616403E+01  0.50045272100E+01 -0.17674608304E+03  0.31712846938E+03  0.26325328966E+03 0.  0.
         25    1    3    3    0    0  0.19870616403E+01 -0.50045272100E+01  0.97620329441E+02  0.15876470177E+03  0.12509000000E+03 0.  0.
         25    1    4    4    0    0 -0.26305878796E+02  0.23172348885E+02 -0.11852215241E+03  0.17585211322E+03  0.12509000000E+03 0.  0.
         25    1    4    4    0    0  0.24318817156E+02 -0.18167821675E+02 -0.58223930635E+02  0.14127635616E+03  0.12509000000E+03 0.  0.
<mgrwt>
<rscale>  2 0.46926903E+03</rscale>
<asrwt>0</asrwt>
<pdfrwt beam="1">  1       21 0.29174075E-01 0.46926903E+03</pdfrwt>
<pdfrwt beam="2">  1       21 0.40810215E-01 0.46926903E+03</pdfrwt>
<totfact> 0.59918628E+04</totfact>
</mgrwt>
</event>
<event>
 7    0  0.4709932E-002  0.4607620E+03  0.7546771E-02  0.1024560E+00
         21   -1    0    0  502  501  0.00000000000E+00  0.00000000000E+00  0.15143761334E+03  0.15143761334E+03  0.00000000000E+00 0. -1.
         21   -1    0    0  501  502 -0.00000000000E+00 -0.00000000000E+00 -0.35047697338E+03  0.35047697338E+03  0.00000000000E+00 0. -1.
      99926    2    1    2    0    0 -0.17763568394E-14  0.35527136788E-14 -0.19903936003E+03  0.50191458672E+03  0.46076196188E+03 0.  0.
      99925    2    3    3    0    0  0.56295895146E+01 -0.26968424499E+02 -0.25022789203E+03  0.36397705700E+03  0.26288079404E+03 0.  0.
         25    1    4    4    0    0 -0.21444698169E+02 -0.29037416253E+02 -0.87183917818E+02  0.15668947076E+03  0.12509000000E+03 0.  0.
         25    1    4    4    0    0  0.27074287683E+02  0.20689917536E+01 -0.16304397421E+03  0.20728758623E+03  0.12509000000E+03 0.  0.
         25    1    3    3    0    0 -0.56295895146E+01  0.26968424499E+02  0.51188531993E+02  0.13793752972E+03  0.12509000000E+03 0.  0.
<mgrwt>
<rscale>  2 0.46076196E+03</rscale>
<asrwt>0</asrwt>
<pdfrwt beam="1">  1       21 0.22270238E-01 0.46076196E+03</pdfrwt>
<pdfrwt beam="2">  1       21 0.51540731E-01 0.46076196E+03</pdfrwt>
<totfact> 0.62240424E+04</totfact>
</mgrwt>
</event>
<event>
 7    0  0.4709932E-002  0.4572692E+03  0.7546771E-02  0.1025576E+00
         21   -1    0    0  502  501  0.00000000000E+00  0.00000000000E+00  0.32820194436E+03  0.32820194436E+03  0.00000000000E+00 0.  1.
         21   -1    0    0  501  502 -0.00000000000E+00 -0.00000000000E+00 -0.15927319014E+03  0.15927319014E+03  0.00000000000E+00 0.  1.
      99926    2    1    2    0    0  0.00000000000E+00  0.71054273576E-14  0.16892875422E+03  0.48747513449E+03  0.45726915788E+03 0.  0.
      99925    2    3    3    0    0 -0.54871615019E+02  0.45360710969E+02  0.93486904127E+01  0.27257563915E+03  0.26294788991E+03 0.  0.
         25    1    4    4    0    0 -0.28989532221E+02 -0.58729040948E+01 -0.24476419294E+02  0.13084910081E+03  0.12509000000E+03 0.  0.
         25    1    4    4    0    0 -0.25882082798E+02  0.51233615064E+02  0.33825109707E+02  0.14172653834E+03  0.12509000000E+03 0.  0.
         25    1    3    3    0    0  0.54871615019E+02 -0.45360710969E+02  0.15958006381E+03  0.21489949535E+03  0.12509000000E+03 0.  0.
<mgrwt>
<rscale>  2 0.45726916E+03</rscale>
<asrwt>0</asrwt>
<pdfrwt beam="1">  1       21 0.48264992E-01 0.45726916E+03</pdfrwt>
<pdfrwt beam="2">  1       21 0.23422528E-01 0.45726916E+03</pdfrwt>
<totfact> 0.64981397E+04</totfact>
</mgrwt>
</event>
<event>
 7    0  0.4709932E-002  0.4464081E+03  0.7546771E-02  0.1028799E+00
         21   -1    0    0  502  501  0.00000000000E+00  0.00000000000E+00  0.11049937361E+03  0.11049937361E+03  0.00000000000E+00 0. -1.
         21   -1    0    0  501  502 -0.00000000000E+00 -0.00000000000E+00 -0.45086280639E+03  0.45086280639E+03  0.00000000000E+00 0. -1.
      99926    2    1    2    0    0 -0.88817841970E-15  0.00000000000E+00 -0.34036343278E+03  0.56136218000E+03  0.44640814370E+03 0.  0.
      99925    2    3    3    0    0 -0.17449889395E+01  0.77344126042E+02 -0.30445839415E+03  0.40996258053E+03  0.26341838366E+03 0.  0.
         25    1    4    4    0    0 -0.14533853936E+02  0.46907944907E+02 -0.21178197121E+03  0.25082005430E+03  0.12509000000E+03 0.  0.
         25    1    3    3    0    0  0.17449889395E+01 -0.77344126042E+02 -0.35905038640E+02  0.15139959947E+03  0.12509000000E+03 0.  0.
         25    1    4    4    0    0  0.12788864996E+02  0.30436181135E+02 -0.92676422931E+02  0.15914252624E+03  0.12509000000E+03 0.  0.
<mgrwt>
<rscale>  2 0.44640814E+03</rscale>
<asrwt>0</asrwt>
<pdfrwt beam="1">  1       21 0.16249908E-01 0.44640814E+03</pdfrwt>
<pdfrwt beam="2">  1       21 0.66303354E-01 0.44640814E+03</pdfrwt>
<totfact> 0.65458087E+04</totfact>
</mgrwt>
</event>
<event>
 7    0  0.4709932E-002  0.4565343E+03  0.7546771E-02  0.1025791E+00
         21   -1    0    0  502  501  0.00000000000E+00  0.00000000000E+00  0.59968255613E+02  0.59968255613E+02  0.00000000000E+00 0.  1.
         21   -1    0    0  501  502 -0.00000000000E+00 -0.00000000000E+00 -0.86889126437E+03  0.86889126437E+03  0.00000000000E+00 0.  1.
      99926    2    1    2    0    0  0.00000000000E+00  0.71054273576E-14 -0.80892300875E+03  0.92885951998E+03  0.45653430733E+03 0.  0.
      99925    2    3    3    0    0 -0.96424841120E+02 -0.61998442787E+02 -0.50870508189E+03  0.58401191798E+03  0.26295912822E+03 0.  0.
         25    1    4    4    0    0 -0.61150164059E+02  0.60649299557E+01 -0.26936997124E+03  0.30328833714E+03  0.12509000000E+03 0.  0.
         25    1    3    3    0    0  0.96424841120E+02  0.61998442787E+02 -0.30021792686E+03  0.34484760200E+03  0.12509000000E+03 0.  0.
         25    1    4    4    0    0 -0.35274677061E+02 -0.68063372743E+02 -0.23933511065E+03  0.28072358084E+03  0.12509000000E+03 0.  0.
<mgrwt>
<rscale>  2 0.45653431E+03</rscale>
<asrwt>0</asrwt>
<pdfrwt beam="1">  1       21 0.88188605E-02 0.45653431E+03</pdfrwt>
<pdfrwt beam="2">  1       21 0.12777814E+00 0.45653431E+03</pdfrwt>
<totfact> 0.41508564E+04</totfact>
</mgrwt>
</event>
<event>
 7    0  0.4709932E-002  0.4607547E+03  0.7546771E-02  0.1024563E+00
         21   -1    0    0  502  501  0.00000000000E+00  0.00000000000E+00  0.61464536612E+02  0.61464536612E+02  0.00000000000E+00 0. -1.
         21   -1    0    0  501  502 -0.00000000000E+00 -0.00000000000E+00 -0.86348542861E+03  0.86348542861E+03  0.00000000000E+00 0. -1.
      99926    2    1    2    0    0  0.00000000000E+00  0.35527136788E-14 -0.80202089200E+03  0.92494996523E+03  0.46075473624E+03 0.  0.
      99925    2    3    3    0    0 -0.11668650417E+03 -0.18777020125E+02 -0.51847723230E+03  0.59326814209E+03  0.26302116125E+03 0.  0.
         25    1    4    4    0    0 -0.55093123285E+02 -0.40253936131E+02 -0.31432658481E+03  0.34511496871E+03  0.12509000000E+03 0.  0.
         25    1    3    3    0    0  0.11668650417E+03  0.18777020125E+02 -0.28354365971E+03  0.33168182314E+03  0.12509000000E+03 0.  0.
         25    1    4    4    0    0 -0.61593380887E+02  0.21476916006E+02 -0.20415064748E+03  0.24815317338E+03  0.12509000000E+03 0.  0.
<mgrwt>
<rscale>  2 0.46075474E+03</rscale>
<asrwt>0</asrwt>
<pdfrwt beam="1">  1       21 0.90389031E-02 0.46075474E+03</pdfrwt>
<pdfrwt beam="2">  1       21 0.12698314E+00 0.46075474E+03</pdfrwt>
<totfact> 0.40325476E+04</totfact>
</mgrwt>
</event>
<event>
 7    0  0.4709932E-002  0.4565645E+03  0.7546771E-02  0.1025782E+00
         21   -1    0    0  502  501  0.00000000000E+00  0.00000000000E+00  0.23493994328E+03  0.23493994328E+03  0.00000000000E+00 0.  1.
         21   -1    0    0  501  502 -0.00000000000E+00 -0.00000000000E+00 -0.22181325135E+03  0.22181325135E+03  0.00000000000E+00 0.  1.
      99926    2    1    2    0    0  0.71054273576E-14  0.00000000000E+00  0.13126691926E+02  0.45675319463E+03  0.45656453078E+03 0.  0.
      99925    2    3    3    0    0 -0.60814188237E+02  0.93997223025E+02 -0.16623529945E+02  0.28626440548E+03  0.26293939352E+03 0.  0.
         25    1    4    4    0    0 -0.10057664802E+02  0.15048354764E+02  0.13130167313E+02  0.12707288852E+03  0.12509000000E+03 0.  0.
         25    1    4    4    0    0 -0.50756523435E+02  0.78948868261E+02 -0.29753697258E+02  0.15919151696E+03  0.12509000000E+03 0.  0.
         25    1    3    3    0    0  0.60814188237E+02 -0.93997223025E+02  0.29750221871E+02  0.17048878916E+03  0.12509000000E+03 0.  0.
<mgrwt>
<rscale>  2 0.45656453E+03</rscale>
<asrwt>0</asrwt>
<pdfrwt beam="1">  1       21 0.34549992E-01 0.45656453E+03</pdfrwt>
<pdfrwt beam="2">  1       21 0.32619596E-01 0.45656453E+03</pdfrwt>
<totfact> 0.67570111E+04</totfact>
</mgrwt>
</event>
<event>
 7    0  0.4709932E-002  0.4520566E+03  0.7546771E-02  0.1027111E+00
         21   -1    0    0  502  501  0.00000000000E+00  0.00000000000E+00  0.55424954386E+03  0.55424954386E+03  0.00000000000E+00 0. -1.
         21   -1    0    0  501  502 -0.00000000000E+00 -0.00000000000E+00 -0.92176512163E+02  0.92176512163E+02  0.00000000000E+00 0. -1.
      99926    2    1    2    0    0  0.00000000000E+00  0.00000000000E+00  0.46207303170E+03  0.64642605603E+03  0.45205658859E+03 0.  0.
      99925    2    3    3    0    0  0.61997451703E+02  0.43698300249E+02  0.17630180367E+03  0.32538722920E+03  0.26275710739E+03 0.  0.
         25    1    4    4    0    0  0.56427359051E+02  0.36983124142E+02  0.12716433186E+03  0.19070939599E+03  0.12509000000E+03 0.  0.
         25    1    3    3    0    0 -0.61997451703E+02 -0.43698300249E+02  0.28577122803E+03  0.32103882683E+03  0.12509000000E+03 0.  0.
         25    1    4    4    0    0  0.55700926514E+01  0.67151761076E+01  0.49137471814E+02  0.13467783321E+03  0.12509000000E+03 0.  0.
<mgrwt>
<rscale>  2 0.45205659E+03</rscale>
<asrwt>0</asrwt>
<pdfrwt beam="1">  1       21 0.81507284E-01 0.45205659E+03</pdfrwt>
<pdfrwt beam="2">  1       21 0.13555370E-01 0.45205659E+03</pdfrwt>
<totfact> 0.57225240E+04</totfact>
</mgrwt>
</event>
<event>
 7    0  0.4709932E-002  0.4550138E+03  0.7546771E-02  0.1026237E+00
         21   -1    0    0  502  501  0.00000000000E+00  0.00000000000E+00  0.47928248140E+03  0.47928248140E+03  0.00000000000E+00 0.  1.
         21   -1    0    0  501  502 -0.00000000000E+00 -0.00000000000E+00 -0.10799348966E+03  0.10799348966E+03  0.00000000000E+00 0.  1.
      99926    2    1    2    0    0 -0.71054273576E-14  0.00000000000E+00  0.37128899174E+03  0.58727597106E+03  0.45501379188E+03 0.  0.
      99925    2    3    3    0    0 -0.59891142697E+02 -0.68973543088E+02  0.31968455348E+03  0.42401291717E+03  0.26314338595E+03 0.  0.
         25    1    3    3    0    0  0.59891142697E+02  0.68973543088E+02  0.51604438257E+02  0.16326305390E+03  0.12509000000E+03 0.  0.
         25    1    4    4    0    0 -0.50588865179E+02 -0.61537796628E+02  0.21082332566E+03  0.25775980376E+03  0.12509000000E+03 0.  0.
         25    1    4    4    0    0 -0.93022775188E+01 -0.74357464598E+01  0.10886122782E+03  0.16625311340E+03  0.12509000000E+03 0.  0.
<mgrwt>
<rscale>  2 0.45501379E+03</rscale>
<asrwt>0</asrwt>
<pdfrwt beam="1">  1       21 0.70482717E-01 0.45501379E+03</pdfrwt>
<pdfrwt beam="2">  1       21 0.15881396E-01 0.45501379E+03</pdfrwt>
<totfact> 0.59461896E+04</totfact>
</mgrwt>
</event>
<event>
 7    0  0.4709932E-002  0.4744500E+03  0.7546771E-02  0.1020672E+00
         21   -1    0    0  502  501  0.00000000000E+00  0.00000000000E+00  0.17507251103E+03  0.17507251103E+03  0.00000000000E+00 0.  1.
         21   -1    0    0  501  502 -0.00000000000E+00 -0.00000000000E+00 -0.32144230927E+03  0.32144230927E+03  0.00000000000E+00 0.  1.
      99926    2    1    2    0    0  0.71054273576E-14 -0.71054273576E-14 -0.14636979824E+03  0.49651482030E+03  0.47445004894E+03 0.  0.
      99925    2    3    3    0    0 -0.51173063450E+02  0.33054755513E+02  0.30283858632E+02  0.27164747747E+03  0.26299038127E+03 0.  0.
         25    1    4    4    0    0 -0.15118242410E+02  0.25230551560E+02 -0.23397468012E+02  0.13061428557E+03  0.12509000000E+03 0.  0.
         25    1    3    3    0    0  0.51173063450E+02 -0.33054755513E+02 -0.17665365688E+03  0.22486734283E+03  0.12509000000E+03 0.  0.
         25    1    4    4    0    0 -0.36054821040E+02  0.78242039525E+01  0.53681326644E+02  0.14103319190E+03  0.12509000000E+03 0.  0.
<mgrwt>
<rscale>  2 0.47445005E+03</rscale>
<asrwt>0</asrwt>
<pdfrwt beam="1">  1       21 0.25745958E-01 0.47445005E+03</pdfrwt>
<pdfrwt beam="2">  1       21 0.47270928E-01 0.47445005E+03</pdfrwt>
<totfact> 0.56307311E+04</totfact>
</mgrwt>
</event>
<event>
 7    0  0.4709932E-002  0.4542391E+03  0.7546771E-02  0.1026465E+00
         21   -1    0    0  502  501  0.00000000000E+00  0.00000000000E+00  0.37502961162E+03  0.37502961162E+03  0.00000000000E+00 0.  1.
         21   -1    0    0  501  502 -0.00000000000E+00 -0.00000000000E+00 -0.13754456982E+03  0.13754456982E+03  0.00000000000E+00 0.  1.
      99926    2    1    2    0    0  0.00000000000E+00 -0.71054273576E-14  0.23748504180E+03  0.51257418144E+03  0.45423908506E+03 0.  0.
      99925    2    3    3    0    0  0.10002078860E+03  0.46537281125E+02  0.12450955413E+03  0.31112730109E+03  0.26292145543E+03 0.  0.
         25    1    3    3    0    0 -0.10002078860E+03 -0.46537281125E+02  0.11297548767E+03  0.20144688035E+03  0.12509000000E+03 0.  0.
         25    1    4    4    0    0  0.37555039612E+02  0.52709989612E+02  0.89454577345E+02  0.16684829491E+03  0.12509000000E+03 0.  0.
         25    1    4    4    0    0  0.62465748992E+02 -0.61727084865E+01  0.35054976782E+02  0.14427900618E+03  0.12509000000E+03 0.  0.
<mgrwt>
<rscale>  2 0.45423909E+03</rscale>
<asrwt>0</asrwt>
<pdfrwt beam="1">  1       21 0.55151413E-01 0.45423909E+03</pdfrwt>
<pdfrwt beam="2">  1       21 0.20227143E-01 0.45423909E+03</pdfrwt>
<totfact> 0.64786327E+04</totfact>
</mgrwt>
</event>
<event>
 7    0  0.4709932E-002  0.4563512E+03  0.7546771E-02  0.1025845E+00
         21   -1    0    0  502  501  0.00000000000E+00  0.00000000000E+00  0.62011224510E+03  0.62011224510E+03  0.00000000000E+00 0.  1.
         21   -1    0    0  501  502 -0.00000000000E+00 -0.00000000000E+00 -0.83959152197E+02  0.83959152197E+02  0.00000000000E+00 0.  1.
      99926    2    1    2    0    0  0.00000000000E+00  0.00000000000E+00  0.53615309290E+03  0.70407139729E+03  0.45635117340E+03 0.  0.
      99925    2    3    3    0    0 -0.81540925274E+02  0.64448019257E+02  0.41083754721E+03  0.49875709245E+03  0.26299938668E+03 0.  0.
         25    1    3    3    0    0  0.81540925274E+02 -0.64448019257E+02  0.12531554569E+03  0.20531430484E+03  0.12509000000E+03 0.  0.
         25    1    4    4    0    0 -0.13072066028E+02  0.30211863992E+02  0.24735934447E+03  0.27913758083E+03  0.12509000000E+03 0.  0.
         25    1    4    4    0    0 -0.68468859246E+02  0.34236155264E+02  0.16347820274E+03  0.21961951162E+03  0.12509000000E+03 0.  0.
<mgrwt>
<rscale>  2 0.45635117E+03</rscale>
<asrwt>0</asrwt>
<pdfrwt beam="1">  1       21 0.91192975E-01 0.45635117E+03</pdfrwt>
<pdfrwt beam="2">  1       21 0.12346935E-01 0.45635117E+03</pdfrwt>
<totfact> 0.52126026E+04</totfact>
</mgrwt>
</event>
<event>
 7    0  0.4709932E-002  0.4675393E+03  0.7546771E-02  0.1022617E+00
         21   -1    0    0  502  501  0.00000000000E+00  0.00000000000E+00  0.63879211165E+02  0.63879211165E+02  0.00000000000E+00 0. -1.
         21   -1    0    0  501  502 -0.00000000000E+00 -0.00000000000E+00 -0.85549356027E+03  0.85549356027E+03  0.00000000000E+00 0. -1.
      99926    2    1    2    0    0  0.71054273576E-14  0.71054273576E-14 -0.79161434911E+03  0.91937277144E+03  0.46753931936E+03 0.  0.
      99925    2    3    3    0    0 -0.49005069104E+02 -0.53787404843E+02 -0.69173133420E+03  0.74353561244E+03  0.26278962409E+03 0.  0.
         25    1    4    4    0    0 -0.45147319230E+02  0.71839303609E+01 -0.35518134345E+03  0.37932991462E+03  0.12509000000E+03 0.  0.
         25    1    4    4    0    0 -0.38577498738E+01 -0.60971335204E+02 -0.33654999076E+03  0.36420569782E+03  0.12509000000E+03 0.  0.
         25    1    3    3    0    0  0.49005069104E+02  0.53787404843E+02 -0.99883014905E+02  0.17583715900E+03  0.12509000000E+03 0.  0.
<mgrwt>
<rscale>  2 0.46753932E+03</rscale>
<asrwt>0</asrwt>
<pdfrwt beam="1">  1       21 0.93940017E-02 0.46753932E+03</pdfrwt>
<pdfrwt beam="2">  1       21 0.12580788E+00 0.46753932E+03</pdfrwt>
<totfact> 0.38487763E+04</totfact>
</mgrwt>
</event>
<event>
 7    0  0.4709932E-002  0.4540432E+03  0.7546771E-02  0.1026523E+00
         21   -1    0    0  502  501  0.00000000000E+00  0.00000000000E+00  0.84946685017E+03  0.84946685017E+03  0.00000000000E+00 0. -1.
         21   -1    0    0  501  502 -0.00000000000E+00 -0.00000000000E+00 -0.60671951570E+02  0.60671951570E+02  0.00000000000E+00 0. -1.
      99926    2    1    2    0    0  0.71054273576E-14  0.44408920985E-14  0.78879489861E+03  0.91013880174E+03  0.45404322082E+03 0.  0.
      99925    2    3    3    0    0 -0.62996706294E+02  0.31369794769E+01  0.68294281372E+03  0.73455236258E+03  0.26301684531E+03 0.  0.
         25    1    4    4    0    0 -0.36267767334E+02  0.40748401147E+02  0.31943217121E+03  0.34736177575E+03  0.12509000000E+03 0.  0.
         25    1    3    3    0    0  0.62996706294E+02 -0.31369794769E+01  0.10585208489E+03  0.17558643917E+03  0.12509000000E+03 0.  0.
         25    1    4    4    0    0 -0.26728938960E+02 -0.37611421670E+02  0.36351064250E+03  0.38719058683E+03  0.12509000000E+03 0.  0.
<mgrwt>
<rscale>  2 0.45404322E+03</rscale>
<asrwt>0</asrwt>
<pdfrwt beam="1">  1       21 0.12492159E+00 0.45404322E+03</pdfrwt>
<pdfrwt beam="2">  1       21 0.89223463E-02 0.45404322E+03</pdfrwt>
<totfact> 0.43120346E+04</totfact>
</mgrwt>
</event>
<event>
 7    0  0.4709932E-002  0.4535035E+03  0.7546771E-02  0.1026682E+00
         21   -1    0    0  502  501  0.00000000000E+00  0.00000000000E+00  0.41570758907E+02  0.41570758907E+02  0.00000000000E+00 0. -1.
         21   -1    0    0  501  502 -0.00000000000E+00 -0.00000000000E+00 -0.12368393071E+04  0.12368393071E+04  0.00000000000E+00 0. -1.
      99926    2    1    2    0    0  0.00000000000E+00  0.35527136788E-14 -0.11952685482E+04  0.12784100660E+04  0.45350346699E+03 0.  0.
      99925    2    3    3    0    0 -0.77621838868E+02  0.18809826706E+02 -0.53263793275E+03  0.59936235040E+03  0.26296977055E+03 0.  0.
         25    1    3    3    0    0  0.77621838868E+02 -0.18809826706E+02 -0.66263061545E+03  0.67904771561E+03  0.12509000000E+03 0.  0.
         25    1    4    4    0    0 -0.14198360521E+02 -0.23666997808E+02 -0.23730717729E+03  0.26967373754E+03  0.12509000000E+03 0.  0.
         25    1    4    4    0    0 -0.63423478347E+02  0.42476824514E+02 -0.29533075546E+03  0.32968861285E+03  0.12509000000E+03 0.  0.
<mgrwt>
<rscale>  2 0.45350347E+03</rscale>
<asrwt>0</asrwt>
<pdfrwt beam="1">  1       21 0.61133466E-02 0.45350347E+03</pdfrwt>
<pdfrwt beam="2">  1       21 0.18188814E+00 0.45350347E+03</pdfrwt>
<totfact> 0.30097198E+04</totfact>
</mgrwt>
</event>
<event>
 7    0  0.4709932E-002  0.4545415E+03  0.7546771E-02  0.1026376E+00
         21   -1    0    0  502  501  0.00000000000E+00  0.00000000000E+00  0.15700549828E+04  0.15700549828E+04  0.00000000000E+00 0.  1.
         21   -1    0    0  501  502 -0.00000000000E+00 -0.00000000000E+00 -0.32898205911E+02  0.32898205911E+02  0.00000000000E+00 0.  1.
      99926    2    1    2    0    0  0.00000000000E+00  0.00000000000E+00  0.15371567769E+04  0.16029531887E+04  0.45454149257E+03 0.  0.
      99925    2    3    3    0    0 -0.72476096715E+02 -0.55034940009E+02  0.72816899707E+03  0.77930862628E+03  0.26231701716E+03 0.  0.
         25    1    3    3    0    0  0.72476096715E+02  0.55034940009E+02  0.80898777984E+03  0.82364456244E+03  0.12509000000E+03 0.  0.
         25    1    4    4    0    0 -0.10905248345E+02 -0.20984395238E+02  0.42908553955E+03  0.44757253897E+03  0.12509000000E+03 0.  0.
         25    1    4    4    0    0 -0.61570848370E+02 -0.34050544771E+02  0.29908345751E+03  0.33173608731E+03  0.12509000000E+03 0.  0.
<mgrwt>
<rscale>  2 0.45454149E+03</rscale>
<asrwt>0</asrwt>
<pdfrwt beam="1">  1       21 0.23089039E+00 0.45454149E+03</pdfrwt>
<pdfrwt beam="2">  1       21 0.48379725E-02 0.45454149E+03</pdfrwt>
<totfact> 0.21439370E+04</totfact>
</mgrwt>
</event>
<event>
 7    0  0.4709932E-002  0.4542123E+03  0.7546771E-02  0.1026473E+00
         21   -1    0    0  502  501  0.00000000000E+00  0.00000000000E+00  0.68703075212E+03  0.68703075212E+03  0.00000000000E+00 0. -1.
         21   -1    0    0  501  502 -0.00000000000E+00 -0.00000000000E+00 -0.75072621187E+02  0.75072621187E+02  0.00000000000E+00 0. -1.
      99926    2    1    2    0    0  0.00000000000E+00  0.00000000000E+00  0.61195813093E+03  0.76210337331E+03  0.45421228252E+03 0.  0.
      99925    2    3    3    0    0 -0.33267260106E+02 -0.92730024853E+02  0.47647578604E+03  0.55303749378E+03  0.26289870053E+03 0.  0.
         25    1    4    4    0    0 -0.26758824731E+02 -0.71128172849E+02  0.31656091692E+03  0.34876005203E+03  0.12509000000E+03 0.  0.
         25    1    4    4    0    0 -0.65084353749E+01 -0.21601852003E+02  0.15991486913E+03  0.20427744175E+03  0.12509000000E+03 0.  0.
         25    1    3    3    0    0  0.33267260106E+02  0.92730024853E+02  0.13548234489E+03  0.20906587952E+03  0.12509000000E+03 0.  0.
<mgrwt>
<rscale>  2 0.45421228E+03</rscale>
<asrwt>0</asrwt>
<pdfrwt beam="1">  1       21 0.10103393E+00 0.45421228E+03</pdfrwt>
<pdfrwt beam="2">  1       21 0.11040092E-01 0.45421228E+03</pdfrwt>
<totfact> 0.49960374E+04</totfact>
</mgrwt>
</event>
<event>
 7    0  0.4709932E-002  0.4534984E+03  0.7546771E-02  0.1026684E+00
         21   -1    0    0  502  501  0.00000000000E+00  0.00000000000E+00  0.39868670281E+03  0.39868670281E+03  0.00000000000E+00 0.  1.
         21   -1    0    0  501  502 -0.00000000000E+00 -0.00000000000E+00 -0.12896139248E+03  0.12896139248E+03  0.00000000000E+00 0.  1.
      99926    2    1    2    0    0 -0.14210854715E-13  0.00000000000E+00  0.26972531034E+03  0.52764809529E+03  0.45349836762E+03 0.  0.
      99925    2    3    3    0    0  0.86396846121E+02 -0.41954703562E+01  0.25198917437E+03  0.37453344671E+03  0.26323894414E+03 0.  0.
         25    1    4    4    0    0  0.18210824850E+02  0.15727629529E+01  0.16368673352E+03  0.20682108827E+03  0.12509000000E+03 0.  0.
         25    1    3    3    0    0 -0.86396846121E+02  0.41954703562E+01  0.17736135964E+02  0.15311464858E+03  0.12509000000E+03 0.  0.
         25    1    4    4    0    0  0.68186021271E+02 -0.57682333091E+01  0.88302440856E+02  0.16771235844E+03  0.12509000000E+03 0.  0.
<mgrwt>
<rscale>  2 0.45349837E+03</rscale>
<asrwt>0</asrwt>
<pdfrwt beam="1">  1       21 0.58630397E-01 0.45349837E+03</pdfrwt>
<pdfrwt beam="2">  1       21 0.18964911E-01 0.45349837E+03</pdfrwt>
<totfact> 0.64125894E+04</totfact>
</mgrwt>
</event>
<event>
 7    0  0.4709932E-002  0.4551512E+03  0.7546771E-02  0.1026197E+00
         21   -1    0    0  502  501  0.00000000000E+00  0.00000000000E+00  0.17963030028E+03  0.17963030028E+03  0.00000000000E+00 0. -1.
         21   -1    0    0  501  502 -0.00000000000E+00 -0.00000000000E+00 -0.28831797481E+03  0.28831797481E+03  0.00000000000E+00 0. -1.
      99926    2    1    2    0    0  0.71054273576E-14  0.00000000000E+00 -0.10868767453E+03  0.46794827508E+03  0.45515115902E+03 0.  0.
      99925    2    3    3    0    0 -0.52289735193E+02 -0.94535739716E+02 -0.33315176620E+02  0.28628995837E+03  0.26302246440E+03 0.  0.
         25    1    3    3    0    0  0.52289735193E+02  0.94535739716E+02 -0.75372497909E+02  0.18165831671E+03  0.12509000000E+03 0.  0.
         25    1    4    4    0    0 -0.34117513453E+02 -0.66967676481E+02  0.18146826922E+02  0.14705607721E+03  0.12509000000E+03 0.  0.
         25    1    4    4    0    0 -0.18172221740E+02 -0.27568063234E+02 -0.51462003542E+02  0.13923388116E+03  0.12509000000E+03 0.  0.
<mgrwt>
<rscale>  2 0.45515116E+03</rscale>
<asrwt>0</asrwt>
<pdfrwt beam="1">  1       21 0.26416221E-01 0.45515116E+03</pdfrwt>
<pdfrwt beam="2">  1       21 0.42399702E-01 0.45515116E+03</pdfrwt>
<totfact> 0.67507776E+04</totfact>
</mgrwt>
</event>
<event>
 7    0  0.4709932E-002  0.4472918E+03  0.7546771E-02  0.1028533E+00
         21   -1    0    0  502  501  0.00000000000E+00  0.00000000000E+00  0.12664021226E+03  0.12664021226E+03  0.00000000000E+00 0. -1.
         21   -1    0    0  501  502 -0.00000000000E+00 -0.00000000000E+00 -0.39495732762E+03  0.39495732762E+03  0.00000000000E+00 0. -1.
      99926    2    1    2    0    0  0.00000000000E+00  0.00000000000E+00 -0.26831711536E+03  0.52159753987E+03  0.44729176072E+03 0.  0.
      99925    2    3    3    0    0  0.78052001131E+02  0.55998359214E+02 -0.22172286948E+03  0.35713945110E+03  0.26298217727E+03 0.  0.
         25    1    3    3    0    0 -0.78052001131E+02 -0.55998359214E+02 -0.46594245879E+02  0.16445808878E+03  0.12509000000E+03 0.  0.
         25    1    4    4    0    0 -0.19205745715E+01  0.17450903824E+02 -0.92346512011E+02  0.15647239064E+03  0.12509000000E+03 0.  0.
         25    1    4    4    0    0  0.79972575703E+02  0.38547455390E+02 -0.12937635747E+03  0.20066706046E+03  0.12509000000E+03 0.  0.
<mgrwt>
<rscale>  2 0.44729176E+03</rscale>
<asrwt>0</asrwt>
<pdfrwt beam="1">  1       21 0.18623561E-01 0.44729176E+03</pdfrwt>
<pdfrwt beam="2">  1       21 0.58081960E-01 0.44729176E+03</pdfrwt>
<totfact> 0.67829088E+04</totfact>
</mgrwt>
</event>
<event>
 7    0  0.4709932E-002  0.4530835E+03  0.7546771E-02  0.1026806E+00
         21   -1    0    0  502  501  0.00000000000E+00  0.00000000000E+00  0.19880723282E+03  0.19880723282E+03  0.00000000000E+00 0. -1.
         21   -1    0    0  501  502 -0.00000000000E+00 -0.00000000000E+00 -0.25814540024E+03  0.25814540024E+03  0.00000000000E+00 0. -1.
      99926    2    1    2    0    0  0.00000000000E+00 -0.14210854715E-13 -0.59338167424E+02  0.45695263306E+03  0.45308353617E+03 0.  0.
      99925    2    3    3    0    0 -0.70357974487E+02 -0.68305640772E+02 -0.89283314112E+02  0.29521171355E+03  0.26374711468E+03 0.  0.
         25    1    3    3    0    0  0.70357974487E+02  0.68305640772E+02  0.29945146689E+02  0.16174091951E+03  0.12509000000E+03 0.  0.
         25    1    4    4    0    0 -0.49188419716E+01 -0.56223981250E+02 -0.24448700048E+02  0.13939360856E+03  0.12509000000E+03 0.  0.
         25    1    4    4    0    0 -0.65439132516E+02 -0.12081659522E+02 -0.64834614064E+02  0.15581810499E+03  0.12509000000E+03 0.  0.
<mgrwt>
<rscale>  2 0.45308354E+03</rscale>
<asrwt>0</asrwt>
<pdfrwt beam="1">  1       21 0.29236358E-01 0.45308354E+03</pdfrwt>
<pdfrwt beam="2">  1       21 0.37962558E-01 0.45308354E+03</pdfrwt>
<totfact> 0.69458730E+04</totfact>
</mgrwt>
</event>
<event>
 7    0  0.4709932E-002  0.4496163E+03  0.7546771E-02  0.1027837E+00
         21   -1    0    0  502  501  0.00000000000E+00  0.00000000000E+00  0.11876995953E+03  0.11876995953E+03  0.00000000000E+00 0.  1.
         21   -1    0    0  501  502 -0.00000000000E+00 -0.00000000000E+00 -0.42551758878E+03  0.42551758878E+03  0.00000000000E+00 0.  1.
      99926    2    1    2    0    0 -0.35527136788E-14  0.00000000000E+00 -0.30674762925E+03  0.54428754831E+03  0.44961631108E+03 0.  0.
      99925    2    3    3    0    0 -0.28011617992E+02  0.97801474217E+02 -0.14989096319E+03  0.31934021916E+03  0.26298497225E+03 0.  0.
         25    1    3    3    0    0  0.28011617992E+02 -0.97801474217E+02 -0.15685666606E+03  0.22494732914E+03  0.12509000000E+03 0.  0.
         25    1    4    4    0    0 -0.58612755592E+01  0.88609586063E+02 -0.96502225230E+02  0.18123520869E+03  0.12509000000E+03 0.  0.
         25    1    4    4    0    0 -0.22150342432E+02  0.91918881543E+01 -0.53388737958E+02  0.13810501048E+03  0.12509000000E+03 0.  0.
<mgrwt>
<rscale>  2 0.44961631E+03</rscale>
<asrwt>0</asrwt>
<pdfrwt beam="1">  1       21 0.17466170E-01 0.44961631E+03</pdfrwt>
<pdfrwt beam="2">  1       21 0.62576116E-01 0.44961631E+03</pdfrwt>
<totfact> 0.64969422E+04</totfact>
</mgrwt>
</event>
<event>
 6    0  0.4709932E-002  0.4524433E+03  0.7546771E-02  0.1026996E+00
         21   -1    0    0  502  501  0.00000000000E+00  0.00000000000E+00  0.22617157829E+02  0.22617157829E+02  0.00000000000E+00 0.  1.
         21   -1    0    0  501  502 -0.00000000000E+00 -0.00000000000E+00 -0.22627174133E+04  0.22627174133E+04  0.00000000000E+00 0.  1.
      99926    2    1    2    0    0  0.48849813084E-14 -0.14210854715E-13 -0.22401002555E+04  0.22853345712E+04  0.45244330854E+03 0.  0.
         25    1    3    3    0    0  0.42685932317E+02 -0.84744344028E+02 -0.79119187849E+03  0.80661997827E+03  0.12509000000E+03 0.  0.
         25    1    3    3    0    0 -0.39412525097E+02  0.54656100149E-01 -0.46006824790E+03  0.47839695960E+03  0.12509000000E+03 0.  0.
         25    1    3    3    0    0 -0.32734072200E+01  0.84689687928E+02 -0.98884012913E+03  0.10003176333E+04  0.12509000000E+03 0.  0.
<mgrwt>
<rscale>  2 0.45244331E+03</rscale>
<asrwt>0</asrwt>
<pdfrwt beam="1">  1       21 0.33260538E-02 0.45244331E+03</pdfrwt>
<pdfrwt beam="2">  1       21 0.33275244E+00 0.45244331E+03</pdfrwt>
<totfact> 0.97782467E+03</totfact>
</mgrwt>
</event>
<event>
 7    0  0.4709932E-002  0.4366959E+03  0.7546771E-02  0.1031765E+00
         21   -1    0    0  502  501  0.00000000000E+00  0.00000000000E+00  0.81081670348E+03  0.81081670348E+03  0.00000000000E+00 0. -1.
         21   -1    0    0  501  502 -0.00000000000E+00 -0.00000000000E+00 -0.58799750497E+02  0.58799750497E+02  0.00000000000E+00 0. -1.
      99926    2    1    2    0    0  0.00000000000E+00  0.00000000000E+00  0.75201695299E+03  0.86961645398E+03  0.43669586608E+03 0.  0.
      99925    2    3    3    0    0 -0.16069173808E+02 -0.50560154394E+02  0.63768107986E+03  0.69203619735E+03  0.26355718788E+03 0.  0.
         25    1    3    3    0    0  0.16069173808E+02  0.50560154394E+02  0.11433587313E+03  0.17758025663E+03  0.12509000000E+03 0.  0.
         25    1    4    4    0    0 -0.46592063885E+01 -0.67260882946E+02  0.34190213646E+03  0.37025709122E+03  0.12509000000E+03 0.  0.
         25    1    4    4    0    0 -0.11409967419E+02  0.16700728552E+02  0.29577894340E+03  0.32177910614E+03  0.12509000000E+03 0.  0.
<mgrwt>
<rscale>  2 0.43669587E+03</rscale>
<asrwt>0</asrwt>
<pdfrwt beam="1">  1       21 0.11923774E+00 0.43669587E+03</pdfrwt>
<pdfrwt beam="2">  1       21 0.86470227E-02 0.43669587E+03</pdfrwt>
<totfact> 0.51579423E+04</totfact>
</mgrwt>
</event>
<event>
 7    0  0.4709932E-002  0.4547886E+03  0.7546771E-02  0.1026304E+00
         21   -1    0    0  502  501  0.00000000000E+00  0.00000000000E+00  0.10592187857E+04  0.10592187857E+04  0.00000000000E+00 0. -1.
         21   -1    0    0  501  502 -0.00000000000E+00 -0.00000000000E+00 -0.48817273515E+02  0.48817273515E+02  0.00000000000E+00 0. -1.
      99926    2    1    2    0    0  0.00000000000E+00  0.00000000000E+00  0.10104015122E+04  0.11080360592E+04  0.45478862419E+03 0.  0.
      99925    2    3    3    0    0 -0.40646026319E+02  0.10008736581E+03  0.71591567786E+03  0.77033945727E+03  0.26309321802E+03 0.  0.
         25    1    4    4    0    0 -0.32805470452E+02  0.51450498027E+02  0.25863795127E+03  0.29370810438E+03  0.12509000000E+03 0.  0.
         25    1    4    4    0    0 -0.78405558673E+01  0.48636867779E+02  0.45727772659E+03  0.47663135289E+03  0.12509000000E+03 0.  0.
         25    1    3    3    0    0  0.40646026319E+02 -0.10008736581E+03  0.29448583432E+03  0.33769660194E+03  0.12509000000E+03 0.  0.
<mgrwt>
<rscale>  2 0.45478862E+03</rscale>
<asrwt>0</asrwt>
<pdfrwt beam="1">  1       21 0.15576745E+00 0.45478862E+03</pdfrwt>
<pdfrwt beam="2">  1       21 0.71790115E-02 0.45478862E+03</pdfrwt>
<totfact> 0.35272727E+04</totfact>
</mgrwt>
</event>
<event>
 7    0  0.4709932E-002  0.4576107E+03  0.7546771E-02  0.1025476E+00
         21   -1    0    0  502  501  0.00000000000E+00  0.00000000000E+00  0.12433173761E+03  0.12433173761E+03  0.00000000000E+00 0.  1.
         21   -1    0    0  501  502 -0.00000000000E+00 -0.00000000000E+00 -0.42106614521E+03  0.42106614521E+03  0.00000000000E+00 0.  1.
      99926    2    1    2    0    0  0.00000000000E+00 -0.14210854715E-13 -0.29673440760E+03  0.54539788282E+03  0.45761068817E+03 0.  0.
      99925    2    3    3    0    0  0.63863112739E+02  0.87614625332E+02 -0.23455316379E+03  0.36856792234E+03  0.26281610870E+03 0.  0.
         25    1    4    4    0    0  0.22995136973E+02  0.75308177805E+02 -0.15558783787E+03  0.21460470955E+03  0.12509000000E+03 0.  0.
         25    1    3    3    0    0 -0.63863112739E+02 -0.87614625332E+02 -0.62181243809E+02  0.17682996048E+03  0.12509000000E+03 0.  0.
         25    1    4    4    0    0  0.40867975766E+02  0.12306447527E+02 -0.78965325920E+02  0.15396321279E+03  0.12509000000E+03 0.  0.
<mgrwt>
<rscale>  2 0.45761069E+03</rscale>
<asrwt>0</asrwt>
<pdfrwt beam="1">  1       21 0.18284079E-01 0.45761069E+03</pdfrwt>
<pdfrwt beam="2">  1       21 0.61921492E-01 0.45761069E+03</pdfrwt>
<totfact> 0.60903714E+04</totfact>
</mgrwt>
</event>
<event>
 7    0  0.4709932E-002  0.4421358E+03  0.7546771E-02  0.1030093E+00
         21   -1    0    0  502  501  0.00000000000E+00  0.00000000000E+00  0.10052537577E+03  0.10052537577E+03  0.00000000000E+00 0.  1.
         21   -1    0    0  501  502 -0.00000000000E+00 -0.00000000000E+00 -0.48615611810E+03  0.48615611810E+03  0.00000000000E+00 0.  1.
      99926    2    1    2    0    0  0.71054273576E-14  0.00000000000E+00 -0.38563074233E+03  0.58668149388E+03  0.44213584544E+03 0.  0.
      99925    2    3    3    0    0  0.40209938908E+02 -0.85692358162E+02 -0.19908205136E+03  0.34294404981E+03  0.26271075101E+03 0.  0.
         25    1    3    3    0    0 -0.40209938908E+02  0.85692358162E+02 -0.18654869097E+03  0.24373744406E+03  0.12509000000E+03 0.  0.
         25    1    4    4    0    0  0.39096936118E+02 -0.10327949427E+02 -0.75307900811E+02  0.15150585790E+03  0.12509000000E+03 0.  0.
         25    1    4    4    0    0  0.11130027903E+01 -0.75364408735E+02 -0.12377415055E+03  0.19143819191E+03  0.12509000000E+03 0.  0.
<mgrwt>
<rscale>  2 0.44213585E+03</rscale>
<asrwt>0</asrwt>
<pdfrwt beam="1">  1       21 0.14783143E-01 0.44213585E+03</pdfrwt>
<pdfrwt beam="2">  1       21 0.71493548E-01 0.44213585E+03</pdfrwt>
<totfact> 0.65960804E+04</totfact>
</mgrwt>
</event>
<event>
 7    0  0.4709932E-002  0.4463586E+03  0.7546771E-02  0.1028814E+00
         21   -1    0    0  502  501  0.00000000000E+00  0.00000000000E+00  0.25323867936E+02  0.25323867936E+02  0.00000000000E+00 0. -1.
         21   -1    0    0  501  502 -0.00000000000E+00 -0.00000000000E+00 -0.19668798684E+04  0.19668798684E+04  0.00000000000E+00 0. -1.
      99926    2    1    2    0    0  0.00000000000E+00  0.00000000000E+00 -0.19415560004E+04  0.19922037363E+04  0.44635862726E+03 0.  0.
      99925    2    3    3    0    0  0.12767709513E+02 -0.96272558217E+02 -0.10546479310E+04  0.10912681939E+04  0.26296880566E+03 0.  0.
         25    1    3    3    0    0 -0.12767709513E+02  0.96272558217E+02 -0.88690806941E+03  0.90093554239E+03  0.12509000000E+03 0.  0.
         25    1    4    4    0    0  0.36787171775E+02 -0.76907695732E+02 -0.58498325188E+03  0.60425243297E+03  0.12509000000E+03 0.  0.
         25    1    4    4    0    0 -0.24019462262E+02 -0.19364862485E+02 -0.46966467915E+03  0.48701576095E+03  0.12509000000E+03 0.  0.
<mgrwt>
<rscale>  2 0.44635863E+03</rscale>
<asrwt>0</asrwt>
<pdfrwt beam="1">  1       21 0.37240968E-02 0.44635863E+03</pdfrwt>
<pdfrwt beam="2">  1       21 0.28924715E+00 0.44635863E+03</pdfrwt>
<totfact> 0.14805879E+04</totfact>
</mgrwt>
</event>
<event>
 7    0  0.4709932E-002  0.4478134E+03  0.7546771E-02  0.1028376E+00
         21   -1    0    0  502  501  0.00000000000E+00  0.00000000000E+00  0.66353834852E+02  0.66353834852E+02  0.00000000000E+00 0.  1.
         21   -1    0    0  501  502 -0.00000000000E+00 -0.00000000000E+00 -0.75555846079E+03  0.75555846079E+03  0.00000000000E+00 0.  1.
      99926    2    1    2    0    0 -0.17763568394E-14 -0.14210854715E-13 -0.68920462594E+03  0.82191229564E+03  0.44781335991E+03 0.  0.
      99925    2    3    3    0    0  0.13389863754E+02  0.96298467726E+02 -0.35716771809E+03  0.45401462018E+03  0.26288364946E+03 0.  0.
         25    1    3    3    0    0 -0.13389863754E+02 -0.96298467726E+02 -0.33203690785E+03  0.36789767546E+03  0.12509000000E+03 0.  0.
         25    1    4    4    0    0 -0.19538360640E+02  0.42950577949E+02 -0.22393513590E+03  0.26080826841E+03  0.12509000000E+03 0.  0.
         25    1    4    4    0    0  0.32928224394E+02  0.53347889776E+02 -0.13323258219E+03  0.19320635177E+03  0.12509000000E+03 0.  0.
<mgrwt>
<rscale>  2 0.44781336E+03</rscale>
<asrwt>0</asrwt>
<pdfrwt beam="1">  1       21 0.97579171E-02 0.44781336E+03</pdfrwt>
<pdfrwt beam="2">  1       21 0.11111154E+00 0.44781336E+03</pdfrwt>
<totfact> 0.49453409E+04</totfact>
</mgrwt>
</event>
<event>
 7    0  0.4709932E-002  0.4581150E+03  0.7546771E-02  0.1025329E+00
         21   -1    0    0  502  501  0.00000000000E+00  0.00000000000E+00  0.12820383956E+04  0.12820383956E+04  0.00000000000E+00 0. -1.
         21   -1    0    0  501  502 -0.00000000000E+00 -0.00000000000E+00 -0.40924939385E+02  0.40924939385E+02  0.00000000000E+00 0. -1.
      99926    2    1    2    0    0  0.00000000000E+00 -0.17763568394E-14  0.12411134562E+04  0.13229633349E+04  0.45811502323E+03 0.  0.
      99925    2    3    3    0    0 -0.94542882827E+02  0.47426352826E+01  0.58473057976E+03  0.64809531982E+03  0.26297688756E+03 0.  0.
         25    1    4    4    0    0 -0.41163794719E+02 -0.22478133887E+02  0.36023425067E+03  0.38420820912E+03  0.12509000000E+03 0.  0.
         25    1    4    4    0    0 -0.53379088108E+02  0.27220769170E+02  0.22449632909E+03  0.26388711070E+03  0.12509000000E+03 0.  0.
         25    1    3    3    0    0  0.94542882827E+02 -0.47426352826E+01  0.65638287642E+03  0.67486801512E+03  0.12509000000E+03 0.  0.
<mgrwt>
<rscale>  2 0.45811502E+03</rscale>
<asrwt>0</asrwt>
<pdfrwt beam="1">  1       21 0.18853503E+00 0.45811502E+03</pdfrwt>
<pdfrwt beam="2">  1       21 0.60183743E-02 0.45811502E+03</pdfrwt>
<totfact> 0.27776133E+04</totfact>
</mgrwt>
</event>
<event>
 7    0  0.4709932E-002  0.4573933E+03  0.7546771E-02  0.1025540E+00
         21   -1    0    0  502  501  0.00000000000E+00  0.00000000000E+00  0.50577914836E+02  0.50577914836E+02  0.00000000000E+00 0.  1.
         21   -1    0    0  501  502 -0.00000000000E+00 -0.00000000000E+00 -0.10340909412E+04  0.10340909412E+04  0.00000000000E+00 0.  1.
      99926    2    1    2    0    0  0.00000000000E+00  0.31086244690E-14 -0.98351302635E+03  0.10846688560E+04  0.45739332551E+03 0.  0.
      99925    2    3    3    0    0  0.52581803045E+02 -0.24405092971E+01 -0.86114137545E+03  0.90193098052E+03  0.26295289126E+03 0.  0.
         25    1    3    3    0    0 -0.52581803045E+02  0.24405092971E+01 -0.12237165090E+03  0.18273787550E+03  0.12509000000E+03 0.  0.
         25    1    4    4    0    0  0.24317374180E+02 -0.41547995766E+02 -0.44021161293E+03  0.46016447374E+03  0.12509000000E+03 0.  0.
         25    1    4    4    0    0  0.28264428866E+02  0.39107486469E+02 -0.42092976252E+03  0.44176650678E+03  0.12509000000E+03 0.  0.
<mgrwt>
<rscale>  2 0.45739333E+03</rscale>
<asrwt>0</asrwt>
<pdfrwt beam="1">  1       21 0.74379290E-02 0.45739333E+03</pdfrwt>
<pdfrwt beam="2">  1       21 0.15207219E+00 0.45739333E+03</pdfrwt>
<totfact> 0.35365373E+04</totfact>
</mgrwt>
</event>
<event>
 7    0  0.4709932E-002  0.4487317E+03  0.7546771E-02  0.1028101E+00
         21   -1    0    0  502  501  0.00000000000E+00  0.00000000000E+00  0.91677945300E+03  0.91677945300E+03  0.00000000000E+00 0.  1.
         21   -1    0    0  501  502 -0.00000000000E+00 -0.00000000000E+00 -0.54909636481E+02  0.54909636481E+02  0.00000000000E+00 0.  1.
      99926    2    1    2    0    0  0.00000000000E+00  0.00000000000E+00  0.86186981652E+03  0.97168908948E+03  0.44873166368E+03 0.  0.
      99925    2    3    3    0    0  0.73479611190E+02  0.47225896494E+02  0.41163996903E+03  0.49631138467E+03  0.26315012425E+03 0.  0.
         25    1    4    4    0    0  0.63814387541E+02  0.28112666493E+02  0.27348239423E+03  0.30871139618E+03  0.12509000000E+03 0.  0.
         25    1    3    3    0    0 -0.73479611190E+02 -0.47225896494E+02  0.45022984749E+03  0.47537770481E+03  0.12509000000E+03 0.  0.
         25    1    4    4    0    0  0.96652236489E+01  0.19113230000E+02  0.13815757480E+03  0.18759998849E+03  0.12509000000E+03 0.  0.
<mgrwt>
<rscale>  2 0.44873166E+03</rscale>
<asrwt>0</asrwt>
<pdfrwt beam="1">  1       21 0.13482050E+00 0.44873166E+03</pdfrwt>
<pdfrwt beam="2">  1       21 0.80749471E-02 0.44873166E+03</pdfrwt>
<totfact> 0.42310450E+04</totfact>
</mgrwt>
</event>
<event>
 7    0  0.4709932E-002  0.4546818E+03  0.7546771E-02  0.1026335E+00
         21   -1    0    0  502  501  0.00000000000E+00  0.00000000000E+00  0.66657633634E+03  0.66657633634E+03  0.00000000000E+00 0.  1.
         21   -1    0    0  501  502 -0.00000000000E+00 -0.00000000000E+00 -0.77536343013E+02  0.77536343013E+02  0.00000000000E+00 0.  1.
      99926    2    1    2    0    0  0.88817841970E-15  0.00000000000E+00  0.58903999333E+03  0.74411267936E+03  0.45468182923E+03 0.  0.
      99925    2    3    3    0    0 -0.11528408693E+01  0.59937740912E+02  0.21421492523E+03  0.34444381441E+03  0.26298221474E+03 0.  0.
         25    1    3    3    0    0  0.11528408693E+01 -0.59937740912E+02  0.37482506810E+03  0.39966886494E+03  0.12509000000E+03 0.  0.
         25    1    4    4    0    0 -0.12598668809E+02  0.18493248085E+02  0.57814973460E+02  0.13960947653E+03  0.12509000000E+03 0.  0.
         25    1    4    4    0    0  0.11445827940E+02  0.41444492827E+02  0.15639995177E+03  0.20483433788E+03  0.12509000000E+03 0.  0.
<mgrwt>
<rscale>  2 0.45468183E+03</rscale>
<asrwt>0</asrwt>
<pdfrwt beam="1">  1       21 0.98025929E-01 0.45468183E+03</pdfrwt>
<pdfrwt beam="2">  1       21 0.11402404E-01 0.45468183E+03</pdfrwt>
<totfact> 0.50699176E+04</totfact>
</mgrwt>
</event>
<event>
 7    0  0.4709932E-002  0.4553052E+03  0.7546771E-02  0.1026152E+00
         21   -1    0    0  502  501  0.00000000000E+00  0.00000000000E+00  0.12566218063E+03  0.12566218063E+03  0.00000000000E+00 0. -1.
         21   -1    0    0  501  502 -0.00000000000E+00 -0.00000000000E+00 -0.41242080423E+03  0.41242080423E+03  0.00000000000E+00 0. -1.
      99926    2    1    2    0    0  0.00000000000E+00  0.71054273576E-14 -0.28675862360E+03  0.53808298486E+03  0.45530516182E+03 0.  0.
      99925    2    3    3    0    0 -0.50650474349E+02 -0.52665115500E+02 -0.78038481523E+02  0.28401470516E+03  0.26312594552E+03 0.  0.
         25    1    3    3    0    0  0.50650474349E+02  0.52665115500E+02 -0.20872014207E+03  0.25406827970E+03  0.12509000000E+03 0.  0.
         25    1    4    4    0    0 -0.32140263110E+02 -0.65925559295E+02 -0.29866800941E+02  0.14804968686E+03  0.12509000000E+03 0.  0.
         25    1    4    4    0    0 -0.18510211238E+02  0.13260443795E+02 -0.48171680582E+02  0.13596501829E+03  0.12509000000E+03 0.  0.
<mgrwt>
<rscale>  2 0.45530516E+03</rscale>
<asrwt>0</asrwt>
<pdfrwt beam="1">  1       21 0.18479732E-01 0.45530516E+03</pdfrwt>
<pdfrwt beam="2">  1       21 0.60650120E-01 0.45530516E+03</pdfrwt>
<totfact> 0.62509826E+04</totfact>
</mgrwt>
</event>
<event>
 7    0  0.4709932E-002  0.4538620E+03  0.7546771E-02  0.1026577E+00
         21   -1    0    0  502  501  0.00000000000E+00  0.00000000000E+00  0.62994137150E+02  0.62994137150E+02  0.00000000000E+00 0.  1.
         21   -1    0    0  501  502 -0.00000000000E+00 -0.00000000000E+00 -0.81749948910E+03  0.81749948910E+03  0.00000000000E+00 0.  1.
      99926    2    1    2    0    0 -0.71054273576E-14  0.00000000000E+00 -0.75450535195E+03  0.88049362625E+03  0.45386198315E+03 0.  0.
      99925    2    3    3    0    0 -0.55994676125E+02 -0.93887511965E+02 -0.42638192322E+03  0.51271276590E+03  0.26291170992E+03 0.  0.
         25    1    4    4    0    0  0.81392021622E+01 -0.57244248313E+02 -0.23523613204E+03  0.27262922898E+03  0.12509000000E+03 0.  0.
         25    1    4    4    0    0 -0.64133878287E+02 -0.36643263652E+02 -0.19114579118E+03  0.24008353692E+03  0.12509000000E+03 0.  0.
         25    1    3    3    0    0  0.55994676125E+02  0.93887511965E+02 -0.32812342873E+03  0.36778086035E+03  0.12509000000E+03 0.  0.
<mgrwt>
<rscale>  2 0.45386198E+03</rscale>
<asrwt>0</asrwt>
<pdfrwt beam="1">  1       21 0.92638439E-02 0.45386198E+03</pdfrwt>
<pdfrwt beam="2">  1       21 0.12022051E+00 0.45386198E+03</pdfrwt>
<totfact> 0.44482994E+04</totfact>
</mgrwt>
</event>
<event>
 7    0  0.4709932E-002  0.4584908E+03  0.7546771E-02  0.1025220E+00
         21   -1    0    0  502  501  0.00000000000E+00  0.00000000000E+00  0.30176883381E+03  0.30176883381E+03  0.00000000000E+00 0.  1.
         21   -1    0    0  501  502 -0.00000000000E+00 -0.00000000000E+00 -0.17415137199E+03  0.17415137199E+03  0.00000000000E+00 0.  1.
      99926    2    1    2    0    0  0.35527136788E-14  0.00000000000E+00  0.12761746182E+03  0.47592020581E+03  0.45849081314E+03 0.  0.
      99925    2    3    3    0    0 -0.23528268848E+02  0.53421924375E+02  0.18466831294E+03  0.32655558766E+03  0.26292334356E+03 0.  0.
         25    1    3    3    0    0  0.23528268848E+02 -0.53421924375E+02 -0.57050851125E+02  0.14936461814E+03  0.12509000000E+03 0.  0.
         25    1    4    4    0    0 -0.40195252561E+02  0.39330908422E+02  0.63859167251E+02  0.15128806968E+03  0.12509000000E+03 0.  0.
         25    1    4    4    0    0  0.16666983713E+02  0.14091015954E+02  0.12080914569E+03  0.17526751798E+03  0.12509000000E+03 0.  0.
<mgrwt>
<rscale>  2 0.45849081E+03</rscale>
<asrwt>0</asrwt>
<pdfrwt beam="1">  1       21 0.44377770E-01 0.45849081E+03</pdfrwt>
<pdfrwt beam="2">  1       21 0.25610496E-01 0.45849081E+03</pdfrwt>
<totfact> 0.65174152E+04</totfact>
</mgrwt>
</event>
<event>
 7    0  0.4709932E-002  0.4659721E+03  0.7546771E-02  0.1023063E+00
         21   -1    0    0  502  501  0.00000000000E+00  0.00000000000E+00  0.13959142077E+03  0.13959142077E+03  0.00000000000E+00 0. -1.
         21   -1    0    0  501  502 -0.00000000000E+00 -0.00000000000E+00 -0.38886708417E+03  0.38886708417E+03  0.00000000000E+00 0. -1.
      99926    2    1    2    0    0 -0.14210854715E-13 -0.14210854715E-13 -0.24927566340E+03  0.52845850494E+03  0.46597213981E+03 0.  0.
      99925    2    3    3    0    0 -0.66286360211E+02 -0.83265369823E+02 -0.85018165688E+02  0.29617626925E+03  0.26299294783E+03 0.  0.
         25    1    4    4    0    0 -0.39802164993E+02 -0.21616093545E+02 -0.77639980618E+02  0.15403552359E+03  0.12509000000E+03 0.  0.
         25    1    3    3    0    0  0.66286360211E+02  0.83265369823E+02 -0.16425749771E+03  0.23228223569E+03  0.12509000000E+03 0.  0.
         25    1    4    4    0    0 -0.26484195218E+02 -0.61649276279E+02 -0.73781850707E+01  0.14214074566E+03  0.12509000000E+03 0.  0.
<mgrwt>
<rscale>  2 0.46597214E+03</rscale>
<asrwt>0</asrwt>
<pdfrwt beam="1">  1       21 0.20528150E-01 0.46597214E+03</pdfrwt>
<pdfrwt beam="2">  1       21 0.57186335E-01 0.46597214E+03</pdfrwt>
<totfact> 0.58090889E+04</totfact>
</mgrwt>
</event>
<event>
 7    0  0.4709932E-002  0.4636472E+03  0.7546771E-02  0.1023729E+00
         21   -1    0    0  502  501  0.00000000000E+00  0.00000000000E+00  0.93631654935E+02  0.93631654935E+02  0.00000000000E+00 0.  1.
         21   -1    0    0  501  502 -0.00000000000E+00 -0.00000000000E+00 -0.57397454871E+03  0.57397454871E+03  0.00000000000E+00 0.  1.
      99926    2    1    2    0    0  0.00000000000E+00  0.00000000000E+00 -0.48034289378E+03  0.66760620365E+03  0.46364722316E+03 0.  0.
      99925    2    3    3    0    0 -0.57954589610E+02 -0.88313567549E+02 -0.38535175416E+03  0.47832111344E+03  0.26293933227E+03 0.  0.
         25    1    3    3    0    0  0.57954589610E+02  0.88313567549E+02 -0.94991139616E+02  0.18928509021E+03  0.12509000000E+03 0.  0.
         25    1    4    4    0    0 -0.46335533931E+01 -0.36597748332E+02 -0.12824346232E+03  0.18290642068E+03  0.12509000000E+03 0.  0.
         25    1    4    4    0    0 -0.53321036217E+02 -0.51715819218E+02 -0.25710829184E+03  0.29541469275E+03  0.12509000000E+03 0.  0.
<mgrwt>
<rscale>  2 0.46364722E+03</rscale>
<asrwt>0</asrwt>
<pdfrwt beam="1">  1       21 0.13769361E-01 0.46364722E+03</pdfrwt>
<pdfrwt beam="2">  1       21 0.84408021E-01 0.46364722E+03</pdfrwt>
<totfact> 0.51121725E+04</totfact>
</mgrwt>
</event>
<event>
 7    0  0.4709932E-002  0.4606597E+03  0.7546771E-02  0.1024590E+00
         21   -1    0    0  502  501  0.00000000000E+00  0.00000000000E+00  0.56694866915E+03  0.56694866915E+03  0.00000000000E+00 0.  1.
         21   -1    0    0  501  502 -0.00000000000E+00 -0.00000000000E+00 -0.93574333490E+02  0.93574333490E+02  0.00000000000E+00 0.  1.
      99926    2    1    2    0    0  0.14210854715E-13 -0.14210854715E-13  0.47337433566E+03  0.66052300264E+03  0.46065971753E+03 0.  0.
      99925    2    3    3    0    0 -0.78501964005E+02  0.79854047104E+02  0.24029338711E+03  0.37327143368E+03  0.26277637664E+03 0.  0.
         25    1    4    4    0    0 -0.12638721073E+01  0.19867412486E+02  0.99797357413E+02  0.16125548703E+03  0.12509000000E+03 0.  0.
         25    1    3    3    0    0  0.78501964005E+02 -0.79854047104E+02  0.23308094855E+03  0.28725156896E+03  0.12509000000E+03 0.  0.
         25    1    4    4    0    0 -0.77238091898E+02  0.59986634619E+02  0.14049602970E+03  0.21201594665E+03  0.12509000000E+03 0.  0.
<mgrwt>
<rscale>  2 0.46065972E+03</rscale>
<asrwt>0</asrwt>
<pdfrwt beam="1">  1       21 0.83374803E-01 0.46065972E+03</pdfrwt>
<pdfrwt beam="2">  1       21 0.13760932E-01 0.46065972E+03</pdfrwt>
<totfact> 0.52706761E+04</totfact>
</mgrwt>
</event>
<event>
 7    0  0.4709932E-002  0.4529553E+03  0.7546771E-02  0.1026844E+00
         21   -1    0    0  502  501  0.00000000000E+00  0.00000000000E+00  0.81464016084E+03  0.81464016084E+03  0.00000000000E+00 0. -1.
         21   -1    0    0  501  502 -0.00000000000E+00 -0.00000000000E+00 -0.62962911518E+02  0.62962911518E+02  0.00000000000E+00 0. -1.
      99926    2    1    2    0    0  0.14210854715E-13  0.14210854715E-13  0.75167724932E+03  0.87760307236E+03  0.45295525768E+03 0.  0.
      99925    2    3    3    0    0 -0.66153710592E+02 -0.73048263169E+02  0.57384924811E+03  0.63889264466E+03  0.26299902978E+03 0.  0.
         25    1    4    4    0    0 -0.49095671242E+02 -0.53061032123E+02  0.22528887542E+03  0.26763490720E+03  0.12509000000E+03 0.  0.
         25    1    3    3    0    0  0.66153710592E+02  0.73048263169E+02  0.17782800121E+03  0.23871042770E+03  0.12509000000E+03 0.  0.
         25    1    4    4    0    0 -0.17058039350E+02 -0.19987231046E+02  0.34856037269E+03  0.37125773746E+03  0.12509000000E+03 0.  0.
<mgrwt>
<rscale>  2 0.45295526E+03</rscale>
<asrwt>0</asrwt>
<pdfrwt beam="1">  1       21 0.11980002E+00 0.45295526E+03</pdfrwt>
<pdfrwt beam="2">  1       21 0.92592521E-02 0.45295526E+03</pdfrwt>
<totfact> 0.44931516E+04</totfact>
</mgrwt>
</event>
<event>
 7    0  0.4709932E-002  0.4403685E+03  0.7546771E-02  0.1030634E+00
         21   -1    0    0  502  501  0.00000000000E+00  0.00000000000E+00  0.10621656105E+03  0.10621656105E+03  0.00000000000E+00 0.  1.
         21   -1    0    0  501  502 -0.00000000000E+00 -0.00000000000E+00 -0.45643632801E+03  0.45643632801E+03  0.00000000000E+00 0.  1.
      99926    2    1    2    0    0  0.00000000000E+00  0.00000000000E+00 -0.35021976696E+03  0.56265288905E+03  0.44036846889E+03 0.  0.
      99925    2    3    3    0    0  0.34233036970E+02  0.58840014930E+02 -0.13164571977E+03  0.30177711328E+03  0.26287788494E+03 0.  0.
         25    1    4    4    0    0 -0.38431884638E+01  0.64237603663E+02 -0.67010970151E+02  0.15581790026E+03  0.12509000000E+03 0.  0.
         25    1    3    3    0    0 -0.34233036970E+02 -0.58840014930E+02 -0.21857404719E+03  0.26087577577E+03  0.12509000000E+03 0.  0.
         25    1    4    4    0    0  0.38076225434E+02 -0.53975887334E+01 -0.64634749619E+02  0.14595921302E+03  0.12509000000E+03 0.  0.
<mgrwt>
<rscale>  2 0.44036847E+03</rscale>
<asrwt>0</asrwt>
<pdfrwt beam="1">  1       21 0.15620083E-01 0.44036847E+03</pdfrwt>
<pdfrwt beam="2">  1       21 0.67122989E-01 0.44036847E+03</pdfrwt>
<totfact> 0.68643419E+04</totfact>
</mgrwt>
</event>
<event>
 7    0  0.4709932E-002  0.4153810E+03  0.7546771E-02  0.1038580E+00
         21   -1    0    0  502  501  0.00000000000E+00  0.00000000000E+00  0.48189126573E+03  0.48189126573E+03  0.00000000000E+00 0. -1.
         21   -1    0    0  501  502 -0.00000000000E+00 -0.00000000000E+00 -0.89512605232E+02  0.89512605232E+02  0.00000000000E+00 0. -1.
      99926    2    1    2    0    0  0.00000000000E+00  0.00000000000E+00  0.39237866049E+03  0.57140387096E+03  0.41538099443E+03 0.  0.
      99925    2    3    3    0    0  0.53978832481E+02 -0.27571145683E+02  0.30486349569E+03  0.40714707627E+03  0.26296978587E+03 0.  0.
         25    1    4    4    0    0  0.23021780165E+02  0.26285216158E+02  0.15683194733E+03  0.20362878665E+03  0.12509000000E+03 0.  0.
         25    1    4    4    0    0  0.30957052316E+02 -0.53856361841E+02  0.14803154836E+03  0.20351828962E+03  0.12509000000E+03 0.  0.
         25    1    3    3    0    0 -0.53978832481E+02  0.27571145683E+02  0.87515164803E+02  0.16425679469E+03  0.12509000000E+03 0.  0.
<mgrwt>
<rscale>  2 0.41538099E+03</rscale>
<asrwt>0</asrwt>
<pdfrwt beam="1">  1       21 0.70866361E-01 0.41538099E+03</pdfrwt>
<pdfrwt beam="2">  1       21 0.13163619E-01 0.41538099E+03</pdfrwt>
<totfact> 0.83797862E+04</totfact>
</mgrwt>
</event>
<event>
 6    0  0.4709932E-002  0.4524553E+03  0.7546771E-02  0.1026992E+00
         21   -1    0    0  502  501  0.00000000000E+00  0.00000000000E+00  0.13424655834E+03  0.13424655834E+03  0.00000000000E+00 0.  1.
         21   -1    0    0  501  502 -0.00000000000E+00 -0.00000000000E+00 -0.38123107500E+03  0.38123107500E+03  0.00000000000E+00 0.  1.
      99926    2    1    2    0    0 -0.71054273576E-14  0.00000000000E+00 -0.24698451666E+03  0.51547763334E+03  0.45245534477E+03 0.  0.
         25    1    3    3    0    0 -0.50630862822E+02 -0.86326513545E+02 -0.56100451919E+02  0.16973661955E+03  0.12509000000E+03 0.  0.
         25    1    3    3    0    0  0.70000759486E+02  0.59209529431E+02 -0.76224153034E+02  0.17281060242E+03  0.12509000000E+03 0.  0.
         25    1    3    3    0    0 -0.19369896664E+02  0.27116984114E+02 -0.11465991170E+03  0.17293041137E+03  0.12509000000E+03 0.  0.
<mgrwt>
<rscale>  2 0.45245534E+03</rscale>
<asrwt>0</asrwt>
<pdfrwt beam="1">  1       21 0.19742141E-01 0.45245534E+03</pdfrwt>
<pdfrwt beam="2">  1       21 0.56063393E-01 0.45245534E+03</pdfrwt>
<totfact> 0.65509151E+04</totfact>
</mgrwt>
</event>
<event>
 7    0  0.4709932E-002  0.4510500E+03  0.7546771E-02  0.1027409E+00
         21   -1    0    0  502  501  0.00000000000E+00  0.00000000000E+00  0.17546116326E+03  0.17546116326E+03  0.00000000000E+00 0.  1.
         21   -1    0    0  501  502 -0.00000000000E+00 -0.00000000000E+00 -0.28987345544E+03  0.28987345544E+03  0.00000000000E+00 0.  1.
      99926    2    1    2    0    0  0.14210854715E-13  0.00000000000E+00 -0.11441229219E+03  0.46533461870E+03  0.45105003576E+03 0.  0.
      99925    2    3    3    0    0 -0.10090169957E+03 -0.39022252318E+02 -0.74245627948E+02  0.29514426008E+03  0.26437441600E+03 0.  0.
         25    1    3    3    0    0  0.10090169957E+03  0.39022252318E+02 -0.40166664238E+02  0.17019035862E+03  0.12509000000E+03 0.  0.
         25    1    4    4    0    0 -0.84150814487E+01 -0.13158031949E+02 -0.16199752298E+02  0.12709794442E+03  0.12509000000E+03 0.  0.
         25    1    4    4    0    0 -0.92486618122E+02 -0.25864220370E+02 -0.58045875650E+02  0.16804631566E+03  0.12509000000E+03 0.  0.
<mgrwt>
<rscale>  2 0.45105004E+03</rscale>
<asrwt>0</asrwt>
<pdfrwt beam="1">  1       21 0.25803113E-01 0.45105004E+03</pdfrwt>
<pdfrwt beam="2">  1       21 0.42628449E-01 0.45105004E+03</pdfrwt>
<totfact> 0.69950558E+04</totfact>
</mgrwt>
</event>
<event>
 7    0  0.4709932E-002  0.4549356E+03  0.7546771E-02  0.1026260E+00
         21   -1    0    0  502  501  0.00000000000E+00  0.00000000000E+00  0.14470098672E+03  0.14470098672E+03  0.00000000000E+00 0. -1.
         21   -1    0    0  501  502 -0.00000000000E+00 -0.00000000000E+00 -0.35757605863E+03  0.35757605863E+03  0.00000000000E+00 0. -1.
      99926    2    1    2    0    0 -0.71054273576E-14  0.00000000000E+00 -0.21287507191E+03  0.50227704534E+03  0.45493563725E+03 0.  0.
      99925    2    3    3    0    0 -0.33402890211E+02 -0.10551164242E+03 -0.16106955217E+03  0.32740629382E+03  0.26268426073E+03 0.  0.
         25    1    3    3    0    0  0.33402890211E+02  0.10551164242E+03 -0.51805519741E+02  0.17487075152E+03  0.12509000000E+03 0.  0.
         25    1    4    4    0    0 -0.53932738081E+02 -0.63451783561E+02 -0.10029812449E+03  0.18067122336E+03  0.12509000000E+03 0.  0.
         25    1    4    4    0    0  0.20529847870E+02 -0.42059858863E+02 -0.60771427677E+02  0.14673507046E+03  0.12509000000E+03 0.  0.
<mgrwt>
<rscale>  2 0.45493564E+03</rscale>
<asrwt>0</asrwt>
<pdfrwt beam="1">  1       21 0.21279557E-01 0.45493564E+03</pdfrwt>
<pdfrwt beam="2">  1       21 0.52584715E-01 0.45493564E+03</pdfrwt>
<totfact> 0.65144263E+04</totfact>
</mgrwt>
</event>
<event>
 7    0  0.4709932E-002  0.4581365E+03  0.7546771E-02  0.1025323E+00
         21   -1    0    0  502  501  0.00000000000E+00  0.00000000000E+00  0.24379819619E+03  0.24379819619E+03  0.00000000000E+00 0.  1.
         21   -1    0    0  501  502 -0.00000000000E+00 -0.00000000000E+00 -0.21522825654E+03  0.21522825654E+03  0.00000000000E+00 0.  1.
      99926    2    1    2    0    0  0.00000000000E+00  0.00000000000E+00  0.28569939646E+02  0.45902645273E+03  0.45813648933E+03 0.  0.
      99925    2    3    3    0    0  0.71882870749E+02 -0.65756837051E+02  0.81102332272E+02  0.29199870324E+03  0.26304856142E+03 0.  0.
         25    1    4    4    0    0  0.44097980212E+02 -0.49984360931E+02  0.80266278731E+02  0.16289030603E+03  0.12509000000E+03 0.  0.
         25    1    3    3    0    0 -0.71882870749E+02  0.65756837051E+02 -0.52532392626E+02  0.16702774949E+03  0.12509000000E+03 0.  0.
         25    1    4    4    0    0  0.27784890537E+02 -0.15772476120E+02  0.83605354094E+00  0.12910839721E+03  0.12509000000E+03 0.  0.
<mgrwt>
<rscale>  2 0.45813649E+03</rscale>
<asrwt>0</asrwt>
<pdfrwt beam="1">  1       21 0.35852676E-01 0.45813649E+03</pdfrwt>
<pdfrwt beam="2">  1       21 0.31651214E-01 0.45813649E+03</pdfrwt>
<totfact> 0.66570242E+04</totfact>
</mgrwt>
</event>
<event>
 7    0  0.4709932E-002  0.4591306E+03  0.7546771E-02  0.1025034E+00
         21   -1    0    0  502  501  0.00000000000E+00  0.00000000000E+00  0.40394651649E+02  0.40394651649E+02  0.00000000000E+00 0.  1.
         21   -1    0    0  501  502 -0.00000000000E+00 -0.00000000000E+00 -0.13046335522E+04  0.13046335522E+04  0.00000000000E+00 0.  1.
      99926    2    1    2    0    0  0.00000000000E+00 -0.35527136788E-14 -0.12642389005E+04  0.13450282038E+04  0.45913056038E+03 0.  0.
      99925    2    3    3    0    0  0.82718415060E+02  0.26463767725E+02 -0.10224140063E+04  0.10592495224E+04  0.26293817375E+03 0.  0.
         25    1    3    3    0    0 -0.82718415060E+02 -0.26463767725E+02 -0.24182489420E+03  0.28577868141E+03  0.12509000000E+03 0.  0.
         25    1    4    4    0    0  0.35079417461E+02 -0.21414815454E+02 -0.41331765009E+03  0.43378352646E+03  0.12509000000E+03 0.  0.
         25    1    4    4    0    0  0.47638997600E+02  0.47878583180E+02 -0.60909635622E+03  0.62546599594E+03  0.12509000000E+03 0.  0.
<mgrwt>
<rscale>  2 0.45913056E+03</rscale>
<asrwt>0</asrwt>
<pdfrwt beam="1">  1       21 0.59403907E-02 0.45913056E+03</pdfrwt>
<pdfrwt beam="2">  1       21 0.19185785E+00 0.45913056E+03</pdfrwt>
<totfact> 0.26958336E+04</totfact>
</mgrwt>
</event>
<event>
 7    0  0.4709932E-002  0.4571054E+03  0.7546771E-02  0.1025624E+00
         21   -1    0    0  502  501  0.00000000000E+00  0.00000000000E+00  0.17187253006E+04  0.17187253006E+04  0.00000000000E+00 0.  1.
         21   -1    0    0  501  502 -0.00000000000E+00 -0.00000000000E+00 -0.30392485976E+02  0.30392485976E+02  0.00000000000E+00 0.  1.
      99926    2    1    2    0    0  0.00000000000E+00  0.00000000000E+00  0.16883328147E+04  0.17491177866E+04  0.45710539089E+03 0.  0.
      99925    2    3    3    0    0 -0.10960404077E+03  0.34055062526E+02  0.11081678623E+04  0.11446248808E+04  0.26259724647E+03 0.  0.
         25    1    4    4    0    0 -0.65880179694E+02  0.56371717133E+02  0.59152517765E+03  0.61079252817E+03  0.12509000000E+03 0.  0.
         25    1    3    3    0    0  0.10960404077E+03 -0.34055062526E+02  0.58016495239E+03  0.60449290576E+03  0.12509000000E+03 0.  0.
         25    1    4    4    0    0 -0.43723861074E+02 -0.22316654607E+02  0.51664268461E+03  0.53383235267E+03  0.12509000000E+03 0.  0.
<mgrwt>
<rscale>  2 0.45710539E+03</rscale>
<asrwt>0</asrwt>
<pdfrwt beam="1">  1       21 0.25275366E+00 0.45710539E+03</pdfrwt>
<pdfrwt beam="2">  1       21 0.44694844E-02 0.45710539E+03</pdfrwt>
<totfact> 0.17962571E+04</totfact>
</mgrwt>
</event>
<event>
 7    0  0.4709932E-002  0.4660737E+03  0.7546771E-02  0.1023034E+00
         21   -1    0    0  502  501  0.00000000000E+00  0.00000000000E+00  0.29751684062E+02  0.29751684062E+02  0.00000000000E+00 0. -1.
         21   -1    0    0  501  502 -0.00000000000E+00 -0.00000000000E+00 -0.18253144064E+04  0.18253144064E+04  0.00000000000E+00 0. -1.
      99926    2    1    2    0    0  0.00000000000E+00  0.00000000000E+00 -0.17955627223E+04  0.18550660904E+04  0.46607371748E+03 0.  0.
      99925    2    3    3    0    0  0.39257029023E+02 -0.10796216505E+03 -0.94136224778E+03  0.98414536947E+03  0.26302525221E+03 0.  0.
         25    1    3    3    0    0 -0.39257029023E+02  0.10796216505E+03 -0.85420047452E+03  0.87092072095E+03  0.12509000000E+03 0.  0.
         25    1    4    4    0    0  0.33590996999E+02 -0.80802002820E+02 -0.61161801961E+03  0.63038197051E+03  0.12509000000E+03 0.  0.
         25    1    4    4    0    0  0.56660320240E+01 -0.27160162233E+02 -0.32974422817E+03  0.35376339896E+03  0.12509000000E+03 0.  0.
<mgrwt>
<rscale>  2 0.46607372E+03</rscale>
<asrwt>0</asrwt>
<pdfrwt beam="1">  1       21 0.43752454E-02 0.46607372E+03</pdfrwt>
<pdfrwt beam="2">  1       21 0.26842873E+00 0.46607372E+03</pdfrwt>
<totfact> 0.14901282E+04</totfact>
</mgrwt>
</event>
<event>
 7    0  0.4709932E-002  0.4561103E+03  0.7546771E-02  0.1025915E+00
         21   -1    0    0  502  501  0.00000000000E+00  0.00000000000E+00  0.13091216918E+04  0.13091216918E+04  0.00000000000E+00 0. -1.
         21   -1    0    0  501  502 -0.00000000000E+00 -0.00000000000E+00 -0.39728272053E+02  0.39728272053E+02  0.00000000000E+00 0. -1.
      99926    2    1    2    0    0  0.00000000000E+00  0.00000000000E+00  0.12693934198E+04  0.13488499639E+04  0.45611026177E+03 0.  0.
      99925    2    3    3    0    0  0.94486454456E+02 -0.64117408802E+02  0.79248571097E+03  0.84275985036E+03  0.26300538226E+03 0.  0.
         25    1    4    4    0    0  0.32865347003E+02 -0.26061283889E+02  0.26791381111E+03  0.29863797454E+03  0.12509000000E+03 0.  0.
         25    1    4    4    0    0  0.61621107453E+02 -0.38056124913E+02  0.52457189986E+03  0.54412187582E+03  0.12509000000E+03 0.  0.
         25    1    3    3    0    0 -0.94486454456E+02  0.64117408802E+02  0.47690770882E+03  0.50609011353E+03  0.12509000000E+03 0.  0.
<mgrwt>
<rscale>  2 0.45611026E+03</rscale>
<asrwt>0</asrwt>
<pdfrwt beam="1">  1       21 0.19251787E+00 0.45611026E+03</pdfrwt>
<pdfrwt beam="2">  1       21 0.58423938E-02 0.45611026E+03</pdfrwt>
<totfact> 0.27489480E+04</totfact>
</mgrwt>
</event>
<event>
 7    0  0.4709932E-002  0.4611114E+03  0.7546771E-02  0.1024459E+00
         21   -1    0    0  502  501  0.00000000000E+00  0.00000000000E+00  0.23800362947E+03  0.23800362947E+03  0.00000000000E+00 0.  1.
         21   -1    0    0  501  502 -0.00000000000E+00 -0.00000000000E+00 -0.22334081153E+03  0.22334081153E+03  0.00000000000E+00 0.  1.
      99926    2    1    2    0    0 -0.14210854715E-13  0.00000000000E+00  0.14662817946E+02  0.46134444100E+03  0.46111136942E+03 0.  0.
      99925    2    3    3    0    0 -0.10185041898E+03 -0.19504514529E+02  0.67190197014E+02  0.29057978545E+03  0.26299839391E+03 0.  0.
         25    1    3    3    0    0  0.10185041898E+03  0.19504514529E+02 -0.52527379068E+02  0.17076465555E+03  0.12509000000E+03 0.  0.
         25    1    4    4    0    0 -0.48303039004E+02 -0.16712993960E+02  0.74462749764E+02  0.15428777316E+03  0.12509000000E+03 0.  0.
         25    1    4    4    0    0 -0.53547379980E+02 -0.27915205690E+01 -0.72725527505E+01  0.13629201229E+03  0.12509000000E+03 0.  0.
<mgrwt>
<rscale>  2 0.46111137E+03</rscale>
<asrwt>0</asrwt>
<pdfrwt beam="1">  1       21 0.35000534E-01 0.46111137E+03</pdfrwt>
<pdfrwt beam="2">  1       21 0.32844237E-01 0.46111137E+03</pdfrwt>
<totfact> 0.64862489E+04</totfact>
</mgrwt>
</event>
<event>
 7    0  0.4709932E-002  0.4538854E+03  0.7546771E-02  0.1026570E+00
         21   -1    0    0  502  501  0.00000000000E+00  0.00000000000E+00  0.47569953165E+02  0.47569953165E+02  0.00000000000E+00 0.  1.
         21   -1    0    0  501  502 -0.00000000000E+00 -0.00000000000E+00 -0.10826790537E+04  0.10826790537E+04  0.00000000000E+00 0.  1.
      99926    2    1    2    0    0  0.00000000000E+00  0.71054273576E-14 -0.10351091005E+04  0.11302490069E+04  0.45388541231E+03 0.  0.
      99925    2    3    3    0    0  0.86154576358E+02  0.57331544075E+02 -0.54533924923E+03  0.61427271640E+03  0.26310940004E+03 0.  0.
         25    1    3    3    0    0 -0.86154576358E+02 -0.57331544075E+02 -0.48976985131E+03  0.51597629047E+03  0.12509000000E+03 0.  0.
         25    1    4    4    0    0  0.58167451716E+02  0.53403181358E+02 -0.22560487175E+03  0.26977846185E+03  0.12509000000E+03 0.  0.
         25    1    4    4    0    0  0.27987124642E+02  0.39283627175E+01 -0.31973437748E+03  0.34449425456E+03  0.12509000000E+03 0.  0.
<mgrwt>
<rscale>  2 0.45388541E+03</rscale>
<asrwt>0</asrwt>
<pdfrwt beam="1">  1       21 0.69955815E-02 0.45388541E+03</pdfrwt>
<pdfrwt beam="2">  1       21 0.15921750E+00 0.45388541E+03</pdfrwt>
<totfact> 0.34749640E+04</totfact>
</mgrwt>
</event>
<event>
 7    0  0.4709932E-002  0.4612162E+03  0.7546771E-02  0.1024429E+00
         21   -1    0    0  502  501  0.00000000000E+00  0.00000000000E+00  0.64590020177E+02  0.64590020177E+02  0.00000000000E+00 0. -1.
         21   -1    0    0  501  502 -0.00000000000E+00 -0.00000000000E+00 -0.82334851037E+03  0.82334851037E+03  0.00000000000E+00 0. -1.
      99926    2    1    2    0    0 -0.88817841970E-15  0.00000000000E+00 -0.75875849019E+03  0.88793853055E+03  0.46121620482E+03 0.  0.
      99925    2    3    3    0    0  0.47331434234E+01  0.99198999664E+02 -0.60094243975E+03  0.66340288069E+03  0.26288537812E+03 0.  0.
         25    1    4    4    0    0  0.13683403683E+02  0.21003868233E+02 -0.21327871693E+03  0.24852307179E+03  0.12509000000E+03 0.  0.
         25    1    3    3    0    0 -0.47331434234E+01 -0.99198999664E+02 -0.15781605044E+03  0.22453564986E+03  0.12509000000E+03 0.  0.
         25    1    4    4    0    0 -0.89502602592E+01  0.78195131431E+02 -0.38766372282E+03  0.41487980890E+03  0.12509000000E+03 0.  0.
<mgrwt>
<rscale>  2 0.46121620E+03</rscale>
<asrwt>0</asrwt>
<pdfrwt beam="1">  1       21 0.94985325E-02 0.46121620E+03</pdfrwt>
<pdfrwt beam="2">  1       21 0.12108066E+00 0.46121620E+03</pdfrwt>
<totfact> 0.41692410E+04</totfact>
</mgrwt>
</event>
<event>
 7    0  0.4709932E-002  0.4511135E+03  0.7546771E-02  0.1027390E+00
         21   -1    0    0  502  501  0.00000000000E+00  0.00000000000E+00  0.14405631579E+03  0.14405631579E+03  0.00000000000E+00 0.  1.
         21   -1    0    0  501  502 -0.00000000000E+00 -0.00000000000E+00 -0.35316642574E+03  0.35316642574E+03  0.00000000000E+00 0.  1.
      99926    2    1    2    0    0 -0.71054273576E-14 -0.14210854715E-13 -0.20911010996E+03  0.49722274153E+03  0.45111352962E+03 0.  0.
      99925    2    3    3    0    0  0.53941223866E+02 -0.94426807420E+02 -0.14568502097E+03  0.31975069414E+03  0.26304049779E+03 0.  0.
         25    1    3    3    0    0 -0.53941223866E+02  0.94426807420E+02 -0.63425088981E+02  0.17747204739E+03  0.12509000000E+03 0.  0.
         25    1    4    4    0    0 -0.12806514086E+02 -0.48377269795E+02 -0.56997173842E+02  0.14628927836E+03  0.12509000000E+03 0.  0.
         25    1    4    4    0    0  0.66747737952E+02 -0.46049537625E+02 -0.88687847132E+02  0.17346141578E+03  0.12509000000E+03 0.  0.
<mgrwt>
<rscale>  2 0.45111353E+03</rscale>
<asrwt>0</asrwt>
<pdfrwt beam="1">  1       21 0.21184753E-01 0.45111353E+03</pdfrwt>
<pdfrwt beam="2">  1       21 0.51936238E-01 0.45111353E+03</pdfrwt>
<totfact> 0.67525539E+04</totfact>
</mgrwt>
</event>
<event>
 7    0  0.4709932E-002  0.4551500E+03  0.7546771E-02  0.1026197E+00
         21   -1    0    0  502  501  0.00000000000E+00  0.00000000000E+00  0.10202307045E+03  0.10202307045E+03  0.00000000000E+00 0. -1.
         21   -1    0    0  501  502 -0.00000000000E+00 -0.00000000000E+00 -0.50763394514E+03  0.50763394514E+03  0.00000000000E+00 0. -1.
      99926    2    1    2    0    0  0.71054273576E-14  0.14210854715E-13 -0.40561087469E+03  0.60965701559E+03  0.45514996977E+03 0.  0.
      99925    2    3    3    0    0 -0.60733833497E+02 -0.94274033795E+02 -0.23376187038E+03  0.36933269230E+03  0.26303200106E+03 0.  0.
         25    1    4    4    0    0 -0.80419290393E+01 -0.45351981269E+02 -0.15681303731E+03  0.20581377893E+03  0.12509000000E+03 0.  0.
         25    1    3    3    0    0  0.60733833497E+02  0.94274033795E+02 -0.17184900431E+03  0.24032432329E+03  0.12509000000E+03 0.  0.
         25    1    4    4    0    0 -0.52691904457E+02 -0.48922052527E+02 -0.76948833072E+02  0.16351891337E+03  0.12509000000E+03 0.  0.
<mgrwt>
<rscale>  2 0.45514997E+03</rscale>
<asrwt>0</asrwt>
<pdfrwt beam="1">  1       21 0.15003393E-01 0.45514997E+03</pdfrwt>
<pdfrwt beam="2">  1       21 0.74652051E-01 0.45514997E+03</pdfrwt>
<totfact> 0.58018998E+04</totfact>
</mgrwt>
</event>
<event>
 7    0  0.4709932E-002  0.4562013E+03  0.7546771E-02  0.1025889E+00
         21   -1    0    0  502  501  0.00000000000E+00  0.00000000000E+00  0.40402808231E+03  0.40402808231E+03  0.00000000000E+00 0. -1.
         21   -1    0    0  501  502 -0.00000000000E+00 -0.00000000000E+00 -0.12877794073E+03  0.12877794073E+03  0.00000000000E+00 0. -1.
      99926    2    1    2    0    0 -0.14210854715E-13  0.35527136788E-14  0.27525014158E+03  0.53280602304E+03  0.45620129082E+03 0.  0.
      99925    2    3    3    0    0 -0.10723426247E+03 -0.34004861711E+01  0.21907789134E+03  0.35869806759E+03  0.26297990583E+03 0.  0.
         25    1    4    4    0    0 -0.71539487493E+02 -0.38660435889E+02  0.11180512738E+03  0.18644147120E+03  0.12509000000E+03 0.  0.
         25    1    4    4    0    0 -0.35694774973E+02  0.35259949718E+02  0.10727276396E+03  0.17225659640E+03  0.12509000000E+03 0.  0.
         25    1    3    3    0    0  0.10723426247E+03  0.34004861711E+01  0.56172250238E+02  0.17410795545E+03  0.12509000000E+03 0.  0.
<mgrwt>
<rscale>  2 0.45620129E+03</rscale>
<asrwt>0</asrwt>
<pdfrwt beam="1">  1       21 0.59415894E-01 0.45620129E+03</pdfrwt>
<pdfrwt beam="2">  1       21 0.18937933E-01 0.45620129E+03</pdfrwt>
<totfact> 0.62420529E+04</totfact>
</mgrwt>
</event>
<event>
 7    0  0.4709932E-002  0.4556318E+03  0.7546771E-02  0.1026056E+00
         21   -1    0    0  502  501  0.00000000000E+00  0.00000000000E+00  0.55099491506E+03  0.55099491506E+03  0.00000000000E+00 0. -1.
         21   -1    0    0  501  502 -0.00000000000E+00 -0.00000000000E+00 -0.94193419028E+02  0.94193419028E+02  0.00000000000E+00 0. -1.
      99926    2    1    2    0    0  0.00000000000E+00  0.00000000000E+00  0.45680149603E+03  0.64518833409E+03  0.45563184663E+03 0.  0.
      99925    2    3    3    0    0 -0.39915927451E+02  0.97256574855E+02  0.22711044258E+03  0.36330607009E+03  0.26336291467E+03 0.  0.
         25    1    4    4    0    0 -0.12625371017E+02  0.62652812338E+01  0.89192536696E+02  0.15427725187E+03  0.12509000000E+03 0.  0.
         25    1    3    3    0    0  0.39915927451E+02 -0.97256574855E+02  0.22969105346E+03  0.28188226399E+03  0.12509000000E+03 0.  0.
         25    1    4    4    0    0 -0.27290556434E+02  0.90991293621E+02  0.13791790588E+03  0.20902881822E+03  0.12509000000E+03 0.  0.
<mgrwt>
<rscale>  2 0.45563185E+03</rscale>
<asrwt>0</asrwt>
<pdfrwt beam="1">  1       21 0.81028662E-01 0.45563185E+03</pdfrwt>
<pdfrwt beam="2">  1       21 0.13851974E-01 0.45563185E+03</pdfrwt>
<totfact> 0.55701328E+04</totfact>
</mgrwt>
</event>
<event>
 7    0  0.4709932E-002  0.4469476E+03  0.7546771E-02  0.1028636E+00
         21   -1    0    0  502  501  0.00000000000E+00  0.00000000000E+00  0.11833105357E+03  0.11833105357E+03  0.00000000000E+00 0. -1.
         21   -1    0    0  501  502 -0.00000000000E+00 -0.00000000000E+00 -0.42204077881E+03  0.42204077881E+03  0.00000000000E+00 0. -1.
      99926    2    1    2    0    0  0.00000000000E+00  0.00000000000E+00 -0.30370972525E+03  0.54037183238E+03  0.44694755847E+03 0.  0.
      99925    2    3    3    0    0  0.47299344609E+02 -0.93505930151E+02 -0.17814626807E+03  0.33447312706E+03  0.26297451003E+03 0.  0.
         25    1    3    3    0    0 -0.47299344609E+02  0.93505930151E+02 -0.12556345718E+03  0.20589870532E+03  0.12509000000E+03 0.  0.
         25    1    4    4    0    0  0.96341985381E+01 -0.78852627196E+02 -0.12023384829E+03  0.19082515812E+03  0.12509000000E+03 0.  0.
         25    1    4    4    0    0  0.37665146071E+02 -0.14653302955E+02 -0.57912419777E+02  0.14364796894E+03  0.12509000000E+03 0.  0.
<mgrwt>
<rscale>  2 0.44694756E+03</rscale>
<asrwt>0</asrwt>
<pdfrwt beam="1">  1       21 0.17401626E-01 0.44694756E+03</pdfrwt>
<pdfrwt beam="2">  1       21 0.62064818E-01 0.44694756E+03</pdfrwt>
<totfact> 0.66654342E+04</totfact>
</mgrwt>
</event>
<event>
 7    0  0.4709932E-002  0.4467545E+03  0.7546771E-02  0.1028694E+00
         21   -1    0    0  502  501  0.00000000000E+00  0.00000000000E+00  0.11662935978E+04  0.11662935978E+04  0.00000000000E+00 0. -1.
         21   -1    0    0  501  502 -0.00000000000E+00 -0.00000000000E+00 -0.42782883581E+02  0.42782883581E+02  0.00000000000E+00 0. -1.
      99926    2    1    2    0    0  0.00000000000E+00  0.00000000000E+00  0.11235107142E+04  0.12090764814E+04  0.44675453313E+03 0.  0.
      99925    2    3    3    0    0 -0.89409947778E+02  0.54714859734E+02  0.73809313299E+03  0.79052890386E+03  0.26299547567E+03 0.  0.
         25    1    3    3    0    0  0.89409947778E+02 -0.54714859734E+02  0.38541758125E+03  0.41854757755E+03  0.12509000000E+03 0.  0.
         25    1    4    4    0    0 -0.38756146564E+02  0.39353114856E+02  0.47706878718E+03  0.49627899648E+03  0.12509000000E+03 0.  0.
         25    1    4    4    0    0 -0.50653801214E+02  0.15361744878E+02  0.26102434581E+03  0.29424990738E+03  0.12509000000E+03 0.  0.
<mgrwt>
<rscale>  2 0.44675453E+03</rscale>
<asrwt>0</asrwt>
<pdfrwt beam="1">  1       21 0.17151374E+00 0.44675453E+03</pdfrwt>
<pdfrwt beam="2">  1       21 0.62916013E-02 0.44675453E+03</pdfrwt>
<totfact> 0.34001430E+04</totfact>
</mgrwt>
</event>
<event>
 7    0  0.4709932E-002  0.4578432E+03  0.7546771E-02  0.1025409E+00
         21   -1    0    0  502  501  0.00000000000E+00  0.00000000000E+00  0.30927777558E+03  0.30927777558E+03  0.00000000000E+00 0. -1.
         21   -1    0    0  501  502 -0.00000000000E+00 -0.00000000000E+00 -0.16944345004E+03  0.16944345004E+03  0.00000000000E+00 0. -1.
      99926    2    1    2    0    0  0.00000000000E+00  0.00000000000E+00  0.13983432554E+03  0.47872122562E+03  0.45784317540E+03 0.  0.
      99925    2    3    3    0    0 -0.28359278013E+02 -0.65123050206E+02  0.18340951204E+03  0.32841631787E+03  0.26300754441E+03 0.  0.
         25    1    4    4    0    0 -0.12576888456E+02 -0.76018139765E+00  0.54758178712E+02  0.13713031115E+03  0.12509000000E+03 0.  0.
         25    1    3    3    0    0  0.28359278013E+02  0.65123050206E+02 -0.43575186499E+02  0.15030490776E+03  0.12509000000E+03 0.  0.
         25    1    4    4    0    0 -0.15782389557E+02 -0.64362868808E+02  0.12865133332E+03  0.19128600672E+03  0.12509000000E+03 0.  0.
<mgrwt>
<rscale>  2 0.45784318E+03</rscale>
<asrwt>0</asrwt>
<pdfrwt beam="1">  1       21 0.45482026E-01 0.45784318E+03</pdfrwt>
<pdfrwt beam="2">  1       21 0.24918154E-01 0.45784318E+03</pdfrwt>
<totfact> 0.65307150E+04</totfact>
</mgrwt>
</event>
<event>
 7    0  0.4709932E-002  0.4428328E+03  0.7546771E-02  0.1029881E+00
         21   -1    0    0  502  501  0.00000000000E+00  0.00000000000E+00  0.10558668316E+03  0.10558668316E+03  0.00000000000E+00 0.  1.
         21   -1    0    0  501  502 -0.00000000000E+00 -0.00000000000E+00 -0.46431259150E+03  0.46431259150E+03  0.00000000000E+00 0.  1.
      99926    2    1    2    0    0 -0.17763568394E-14  0.00000000000E+00 -0.35872590834E+03  0.56989927466E+03  0.44283281940E+03 0.  0.
      99925    2    3    3    0    0  0.10184774834E+02 -0.83275373386E+02 -0.15505615655E+03  0.31658643774E+03  0.26295635270E+03 0.  0.
         25    1    4    4    0    0  0.15229781537E+02 -0.36941630381E+02 -0.12159048296E+03  0.17896475616E+03  0.12509000000E+03 0.  0.
         25    1    3    3    0    0 -0.10184774834E+02  0.83275373386E+02 -0.20366975179E+03  0.25331283691E+03  0.12509000000E+03 0.  0.
         25    1    4    4    0    0 -0.50450067031E+01 -0.46333743004E+02 -0.33465673595E+02  0.13762168159E+03  0.12509000000E+03 0.  0.
<mgrwt>
<rscale>  2 0.44283282E+03</rscale>
<asrwt>0</asrwt>
<pdfrwt beam="1">  1       21 0.15527453E-01 0.44283282E+03</pdfrwt>
<pdfrwt beam="2">  1       21 0.68281264E-01 0.44283282E+03</pdfrwt>
<totfact> 0.66766009E+04</totfact>
</mgrwt>
</event>
<event>
 7    0  0.4709932E-002  0.4359236E+03  0.7546771E-02  0.1032005E+00
         21   -1    0    0  502  501  0.00000000000E+00  0.00000000000E+00  0.67890881564E+03  0.67890881564E+03  0.00000000000E+00 0. -1.
         21   -1    0    0  501  502 -0.00000000000E+00 -0.00000000000E+00 -0.69976036644E+02  0.69976036644E+02  0.00000000000E+00 0. -1.
      99926    2    1    2    0    0  0.17763568394E-14  0.00000000000E+00  0.60893277900E+03  0.74888485229E+03  0.43592360873E+03 0.  0.
      99925    2    3    3    0    0 -0.12868665313E+02 -0.59844185791E+02  0.51312720477E+03  0.57984892335E+03  0.26301771140E+03 0.  0.
         25    1    4    4    0    0  0.10281260165E+02 -0.31074685130E+02  0.33491343124E+03  0.35900676163E+03  0.12509000000E+03 0.  0.
         25    1    4    4    0    0 -0.23149925479E+02 -0.28769500661E+02  0.17821377353E+03  0.22084216172E+03  0.12509000000E+03 0.  0.
         25    1    3    3    0    0  0.12868665313E+02  0.59844185791E+02  0.95805574230E+02  0.16903592894E+03  0.12509000000E+03 0.  0.
<mgrwt>
<rscale>  2 0.43592361E+03</rscale>
<asrwt>0</asrwt>
<pdfrwt beam="1">  1       21 0.99839528E-01 0.43592361E+03</pdfrwt>
<pdfrwt beam="2">  1       21 0.10290594E-01 0.43592361E+03</pdfrwt>
<totfact> 0.58637340E+04</totfact>
</mgrwt>
</event>
<event>
 7    0  0.4709932E-002  0.4574718E+03  0.7546771E-02  0.1025517E+00
         21   -1    0    0  502  501  0.00000000000E+00  0.00000000000E+00  0.64308980360E+02  0.64308980360E+02  0.00000000000E+00 0. -1.
         21   -1    0    0  501  502 -0.00000000000E+00 -0.00000000000E+00 -0.81357410423E+03  0.81357410423E+03  0.00000000000E+00 0. -1.
      99926    2    1    2    0    0 -0.26645352591E-14  0.00000000000E+00 -0.74926512387E+03  0.87788308459E+03  0.45747183997E+03 0.  0.
      99925    2    3    3    0    0 -0.76594275736E+01  0.98842851201E+02 -0.35732992679E+03  0.45469366734E+03  0.26312179399E+03 0.  0.
         25    1    3    3    0    0  0.76594275736E+01 -0.98842851201E+02 -0.39193519708E+03  0.42318941726E+03  0.12509000000E+03 0.  0.
         25    1    4    4    0    0  0.26494301800E+02  0.50427403206E+02 -0.13406215024E+03  0.19200270636E+03  0.12509000000E+03 0.  0.
         25    1    4    4    0    0 -0.34153729374E+02  0.48415447995E+02 -0.22326777655E+03  0.26269096098E+03  0.12509000000E+03 0.  0.
<mgrwt>
<rscale>  2 0.45747184E+03</rscale>
<asrwt>0</asrwt>
<pdfrwt beam="1">  1       21 0.94572037E-02 0.45747184E+03</pdfrwt>
<pdfrwt beam="2">  1       21 0.11964324E+00 0.45747184E+03</pdfrwt>
<totfact> 0.43358269E+04</totfact>
</mgrwt>
</event>
<event>
 7    0  0.4709932E-002  0.4563859E+03  0.7546771E-02  0.1025835E+00
         21   -1    0    0  502  501  0.00000000000E+00  0.00000000000E+00  0.69115538479E+02  0.69115538479E+02  0.00000000000E+00 0.  1.
         21   -1    0    0  501  502 -0.00000000000E+00 -0.00000000000E+00 -0.75340548620E+03  0.75340548620E+03  0.00000000000E+00 0.  1.
      99926    2    1    2    0    0  0.00000000000E+00 -0.71054273576E-14 -0.68428994772E+03  0.82252102468E+03  0.45638591508E+03 0.  0.
      99925    2    3    3    0    0  0.10176444587E+03  0.48282090165E+02 -0.39327929461E+03  0.48633376883E+03  0.26299195512E+03 0.  0.
         25    1    4    4    0    0  0.16056257995E+02  0.83647615829E+01 -0.21030628773E+03  0.24536506560E+03  0.12509000000E+03 0.  0.
         25    1    4    4    0    0  0.85708187870E+02  0.39917328582E+02 -0.18297300688E+03  0.24096870323E+03  0.12509000000E+03 0.  0.
         25    1    3    3    0    0 -0.10176444587E+03 -0.48282090165E+02 -0.29101065311E+03  0.33618725585E+03  0.12509000000E+03 0.  0.
<mgrwt>
<rscale>  2 0.45638592E+03</rscale>
<asrwt>0</asrwt>
<pdfrwt beam="1">  1       21 0.10164050E-01 0.45638592E+03</pdfrwt>
<pdfrwt beam="2">  1       21 0.11079492E+00 0.45638592E+03</pdfrwt>
<totfact> 0.46190361E+04</totfact>
</mgrwt>
</event>
<event>
 7    0  0.4709932E-002  0.4628505E+03  0.7546771E-02  0.1023958E+00
         21   -1    0    0  502  501  0.00000000000E+00  0.00000000000E+00  0.19070891591E+03  0.19070891591E+03  0.00000000000E+00 0.  1.
         21   -1    0    0  501  502 -0.00000000000E+00 -0.00000000000E+00 -0.28083456589E+03  0.28083456589E+03  0.00000000000E+00 0.  1.
      99926    2    1    2    0    0  0.00000000000E+00  0.00000000000E+00 -0.90125649986E+02  0.47154348180E+03  0.46285054007E+03 0.  0.
      99925    2    3    3    0    0 -0.85632192359E+02  0.19648717459E+02 -0.14027058243E+03  0.31066785650E+03  0.26290632610E+03 0.  0.
         25    1    4    4    0    0 -0.20740026600E+01  0.14312314337E+02 -0.52560267904E+02  0.13645231288E+03  0.12509000000E+03 0.  0.
         25    1    3    3    0    0  0.85632192359E+02 -0.19648717459E+02  0.50144932446E+02  0.16087562530E+03  0.12509000000E+03 0.  0.
         25    1    4    4    0    0 -0.83558189699E+02  0.53364031216E+01 -0.87710314528E+02  0.17421554362E+03  0.12509000000E+03 0.  0.
<mgrwt>
<rscale>  2 0.46285054E+03</rscale>
<asrwt>0</asrwt>
<pdfrwt beam="1">  1       21 0.28045429E-01 0.46285054E+03</pdfrwt>
<pdfrwt beam="2">  1       21 0.41299200E-01 0.46285054E+03</pdfrwt>
<totfact> 0.63284726E+04</totfact>
</mgrwt>
</event>
<event>
 7    0  0.4709932E-002  0.4520072E+03  0.7546771E-02  0.1027125E+00
         21   -1    0    0  502  501  0.00000000000E+00  0.00000000000E+00  0.31574812377E+03  0.31574812377E+03  0.00000000000E+00 0.  1.
         21   -1    0    0  501  502 -0.00000000000E+00 -0.00000000000E+00 -0.16176699405E+03  0.16176699405E+03  0.00000000000E+00 0.  1.
      99926    2    1    2    0    0 -0.71054273576E-14  0.00000000000E+00  0.15398112972E+03  0.47751511782E+03  0.45200718958E+03 0.  0.
      99925    2    3    3    0    0 -0.42701833735E+02 -0.10056278144E+03  0.80682956662E+02  0.29597600388E+03  0.26297478161E+03 0.  0.
         25    1    4    4    0    0 -0.33723806174E+02 -0.76259522417E+02  0.11682968405E+02  0.15078729957E+03  0.12509000000E+03 0.  0.
         25    1    3    3    0    0  0.42701833735E+02  0.10056278144E+03  0.73298173060E+02  0.18153911394E+03  0.12509000000E+03 0.  0.
         25    1    4    4    0    0 -0.89780275612E+01 -0.24303259025E+02  0.68999988257E+02  0.14518870430E+03  0.12509000000E+03 0.  0.
<mgrwt>
<rscale>  2 0.45200719E+03</rscale>
<asrwt>0</asrwt>
<pdfrwt beam="1">  1       21 0.46433548E-01 0.45200719E+03</pdfrwt>
<pdfrwt beam="2">  1       21 0.23789264E-01 0.45200719E+03</pdfrwt>
<totfact> 0.68494075E+04</totfact>
</mgrwt>
</event>
<event>
 7    0  0.4709932E-002  0.4550430E+03  0.7546771E-02  0.1026229E+00
         21   -1    0    0  502  501  0.00000000000E+00  0.00000000000E+00  0.21800485520E+02  0.21800485520E+02  0.00000000000E+00 0.  1.
         21   -1    0    0  501  502 -0.00000000000E+00 -0.00000000000E+00 -0.23745360288E+04  0.23745360288E+04  0.00000000000E+00 0.  1.
      99926    2    1    2    0    0  0.00000000000E+00  0.00000000000E+00 -0.23527355433E+04  0.23963365143E+04  0.45504302351E+03 0.  0.
      99925    2    3    3    0    0 -0.81047555733E+02 -0.79092913742E+02 -0.14733277314E+04  0.15008869050E+04  0.26294961861E+03 0.  0.
         25    1    3    3    0    0  0.81047555733E+02  0.79092913742E+02 -0.87940781183E+03  0.89544960936E+03  0.12509000000E+03 0.  0.
         25    1    4    4    0    0 -0.65783036752E+01 -0.26586652363E+02 -0.55252505251E+03  0.56716978579E+03  0.12509000000E+03 0.  0.
         25    1    4    4    0    0 -0.74469252058E+02 -0.52506261379E+02 -0.92080267894E+03  0.93371711917E+03  0.12509000000E+03 0.  0.
<mgrwt>
<rscale>  2 0.45504302E+03</rscale>
<asrwt>0</asrwt>
<pdfrwt beam="1">  1       21 0.32059545E-02 0.45504302E+03</pdfrwt>
<pdfrwt beam="2">  1       21 0.34919639E+00 0.45504302E+03</pdfrwt>
<totfact> 0.82485872E+03</totfact>
</mgrwt>
</event>
<event>
 7    0  0.4709932E-002  0.4749858E+03  0.7546771E-02  0.1020522E+00
         21   -1    0    0  502  501  0.00000000000E+00  0.00000000000E+00  0.88298288100E+02  0.88298288100E+02  0.00000000000E+00 0.  1.
         21   -1    0    0  501  502 -0.00000000000E+00 -0.00000000000E+00 -0.63877651807E+03  0.63877651807E+03  0.00000000000E+00 0.  1.
      99926    2    1    2    0    0  0.00000000000E+00 -0.17763568394E-14 -0.55047822997E+03  0.72707480617E+03  0.47498578094E+03 0.  0.
      99925    2    3    3    0    0  0.10298484852E+03  0.13199271489E+02 -0.46254621584E+03  0.54225152030E+03  0.26326338462E+03 0.  0.
         25    1    3    3    0    0 -0.10298484852E+03 -0.13199271489E+02 -0.87932014128E+02  0.18482328587E+03  0.12509000000E+03 0.  0.
         25    1    4    4    0    0  0.27971299720E+02  0.27947287884E+02 -0.16722400378E+03  0.21254368974E+03  0.12509000000E+03 0.  0.
         25    1    4    4    0    0  0.75013548802E+02 -0.14748016396E+02 -0.29532221207E+03  0.32970783056E+03  0.12509000000E+03 0.  0.
<mgrwt>
<rscale>  2 0.47498578E+03</rscale>
<asrwt>0</asrwt>
<pdfrwt beam="1">  1       21 0.12985043E-01 0.47498578E+03</pdfrwt>
<pdfrwt beam="2">  1       21 0.93937722E-01 0.47498578E+03</pdfrwt>
<totfact> 0.44104988E+04</totfact>
</mgrwt>
</event>
<event>
 7    0  0.4709932E-002  0.4544899E+03  0.7546771E-02  0.1026392E+00
         21   -1    0    0  502  501  0.00000000000E+00  0.00000000000E+00  0.44454422206E+03  0.44454422206E+03  0.00000000000E+00 0. -1.
         21   -1    0    0  501  502 -0.00000000000E+00 -0.00000000000E+00 -0.11616454315E+03  0.11616454315E+03  0.00000000000E+00 0. -1.
      99926    2    1    2    0    0 -0.14210854715E-13  0.00000000000E+00  0.32837967891E+03  0.56070876521E+03  0.45448994033E+03 0.  0.
      99925    2    3    3    0    0  0.90048416855E+02  0.63243604101E+02  0.17667770755E+03  0.33538795603E+03  0.26298592712E+03 0.  0.
         25    1    4    4    0    0  0.63224015116E+02 -0.15379136993E+01  0.10458005913E+03  0.17488321284E+03  0.12509000000E+03 0.  0.
         25    1    4    4    0    0  0.26824401739E+02  0.64781517801E+02  0.72097648420E+02  0.16050474318E+03  0.12509000000E+03 0.  0.
         25    1    3    3    0    0 -0.90048416855E+02 -0.63243604101E+02  0.15170197136E+03  0.22532080919E+03  0.12509000000E+03 0.  0.
<mgrwt>
<rscale>  2 0.45448994E+03</rscale>
<asrwt>0</asrwt>
<pdfrwt beam="1">  1       21 0.65374150E-01 0.45448994E+03</pdfrwt>
<pdfrwt beam="2">  1       21 0.17083021E-01 0.45448994E+03</pdfrwt>
<totfact> 0.61411753E+04</totfact>
</mgrwt>
</event>
<event>
 7    0  0.4709932E-002  0.4552613E+03  0.7546771E-02  0.1026165E+00
         21   -1    0    0  502  501  0.00000000000E+00  0.00000000000E+00  0.19031503339E+03  0.19031503339E+03  0.00000000000E+00 0.  1.
         21   -1    0    0  501  502 -0.00000000000E+00 -0.00000000000E+00 -0.27226283480E+03  0.27226283480E+03  0.00000000000E+00 0.  1.
      99926    2    1    2    0    0  0.00000000000E+00  0.00000000000E+00 -0.81947801406E+02  0.46257786819E+03  0.45526128979E+03 0.  0.
      99925    2    3    3    0    0  0.99757044810E+02 -0.53966347681E+02 -0.53427286009E+02  0.29133312354E+03  0.26297657559E+03 0.  0.
         25    1    3    3    0    0 -0.99757044810E+02  0.53966347681E+02 -0.28520515397E+02  0.17124474465E+03  0.12509000000E+03 0.  0.
         25    1    4    4    0    0  0.49462842846E+02 -0.62497658159E+02 -0.70113444735E+01  0.14848972068E+03  0.12509000000E+03 0.  0.
         25    1    4    4    0    0  0.50294201965E+02  0.85313104785E+01 -0.46415941536E+02  0.14284340285E+03  0.12509000000E+03 0.  0.
<mgrwt>
<rscale>  2 0.45526129E+03</rscale>
<asrwt>0</asrwt>
<pdfrwt beam="1">  1       21 0.27987505E-01 0.45526129E+03</pdfrwt>
<pdfrwt beam="2">  1       21 0.40038652E-01 0.45526129E+03</pdfrwt>
<totfact> 0.67849262E+04</totfact>
</mgrwt>
</event>
<event>
 7    0  0.4709932E-002  0.4477619E+03  0.7546771E-02  0.1028392E+00
         21   -1    0    0  502  501  0.00000000000E+00  0.00000000000E+00  0.16696798047E+04  0.16696798047E+04  0.00000000000E+00 0.  1.
         21   -1    0    0  501  502 -0.00000000000E+00 -0.00000000000E+00 -0.30019340257E+02  0.30019340257E+02  0.00000000000E+00 0.  1.
      99926    2    1    2    0    0  0.00000000000E+00  0.00000000000E+00  0.16396604644E+04  0.16996991449E+04  0.44776192860E+03 0.  0.
      99925    2    3    3    0    0  0.83202279924E+02 -0.24768586482E+02  0.80638717766E+03  0.85262891125E+03  0.26302029912E+03 0.  0.
         25    1    3    3    0    0 -0.83202279924E+02  0.24768586482E+02  0.83327328674E+03  0.84707023366E+03  0.12509000000E+03 0.  0.
         25    1    4    4    0    0  0.40812544207E+01 -0.92868611017E+01  0.42825829468E+03  0.44626850380E+03  0.12509000000E+03 0.  0.
         25    1    4    4    0    0  0.79121025503E+02 -0.15481725380E+02  0.37812888298E+03  0.40636040745E+03  0.12509000000E+03 0.  0.
<mgrwt>
<rscale>  2 0.44776193E+03</rscale>
<asrwt>0</asrwt>
<pdfrwt beam="1">  1       21 0.24554109E+00 0.44776193E+03</pdfrwt>
<pdfrwt beam="2">  1       21 0.44146100E-02 0.44776193E+03</pdfrwt>
<totfact> 0.20389939E+04</totfact>
</mgrwt>
</event>
<event>
 7    0  0.4709932E-002  0.4553947E+03  0.7546771E-02  0.1026125E+00
         21   -1    0    0  502  501  0.00000000000E+00  0.00000000000E+00  0.20413033411E+03  0.20413033411E+03  0.00000000000E+00 0.  1.
         21   -1    0    0  501  502 -0.00000000000E+00 -0.00000000000E+00 -0.25398519111E+03  0.25398519111E+03  0.00000000000E+00 0.  1.
      99926    2    1    2    0    0  0.00000000000E+00  0.00000000000E+00 -0.49854857001E+02  0.45811552522E+03  0.45539469439E+03 0.  0.
      99925    2    3    3    0    0 -0.73533686744E+02 -0.62579340023E+02 -0.91494720722E+02  0.29469960423E+03  0.26296995252E+03 0.  0.
         25    1    4    4    0    0 -0.14931396012E+02 -0.52705863597E+02 -0.17481044477E+02  0.13767334404E+03  0.12509000000E+03 0.  0.
         25    1    3    3    0    0  0.73533686744E+02  0.62579340023E+02  0.41639863721E+02  0.16341592099E+03  0.12509000000E+03 0.  0.
         25    1    4    4    0    0 -0.58602290732E+02 -0.98734764260E+01 -0.74013676244E+02  0.15702626018E+03  0.12509000000E+03 0.  0.
<mgrwt>
<rscale>  2 0.45539469E+03</rscale>
<asrwt>0</asrwt>
<pdfrwt beam="1">  1       21 0.30019167E-01 0.45539469E+03</pdfrwt>
<pdfrwt beam="2">  1       21 0.37350763E-01 0.45539469E+03</pdfrwt>
<totfact> 0.68103386E+04</totfact>
</mgrwt>
</event>
<event>
 7    0  0.4709932E-002  0.4470530E+03  0.7546771E-02  0.1028605E+00
         21   -1    0    0  502  501  0.00000000000E+00  0.00000000000E+00  0.96656529024E+03  0.96656529024E+03  0.00000000000E+00 0.  1.
         21   -1    0    0  501  502 -0.00000000000E+00 -0.00000000000E+00 -0.51692412552E+02  0.51692412552E+02  0.00000000000E+00 0.  1.
      99926    2    1    2    0    0  0.00000000000E+00 -0.14210854715E-13  0.91487287768E+03  0.10182577028E+04  0.44705298004E+03 0.  0.
      99925    2    3    3    0    0  0.44463180472E+02 -0.88760864864E+02  0.66198831817E+03  0.71916979917E+03  0.26290911186E+03 0.  0.
         25    1    4    4    0    0  0.35119541641E+01 -0.35063922106E+02  0.40685173255E+03  0.42710379632E+03  0.12509000000E+03 0.  0.
         25    1    3    3    0    0 -0.44463180472E+02  0.88760864864E+02  0.25288455952E+03  0.29908790362E+03  0.12509000000E+03 0.  0.
         25    1    4    4    0    0  0.40951226308E+02 -0.53696942758E+02  0.25513658562E+03  0.29206600285E+03  0.12509000000E+03 0.  0.
<mgrwt>
<rscale>  2 0.44705298E+03</rscale>
<asrwt>0</asrwt>
<pdfrwt beam="1">  1       21 0.14214194E+00 0.44705298E+03</pdfrwt>
<pdfrwt beam="2">  1       21 0.76018260E-02 0.44705298E+03</pdfrwt>
<totfact> 0.40946383E+04</totfact>
</mgrwt>
</event>
<event>
 7    0  0.4709932E-002  0.4555677E+03  0.7546771E-02  0.1026075E+00
         21   -1    0    0  502  501  0.00000000000E+00  0.00000000000E+00  0.40943108329E+03  0.40943108329E+03  0.00000000000E+00 0.  1.
         21   -1    0    0  501  502 -0.00000000000E+00 -0.00000000000E+00 -0.12672582084E+03  0.12672582084E+03  0.00000000000E+00 0.  1.
      99926    2    1    2    0    0  0.00000000000E+00  0.71054273576E-14  0.28270526245E+03  0.53615690412E+03  0.45556773418E+03 0.  0.
      99925    2    3    3    0    0  0.48833816097E+02 -0.47968413420E+02  0.71420456703E+02  0.28125596744E+03  0.26328373916E+03 0.  0.
         25    1    4    4    0    0 -0.17137315665E+01 -0.26620838058E+02  0.67461047388E+02  0.14460327420E+03  0.12509000000E+03 0.  0.
         25    1    3    3    0    0 -0.48833816097E+02  0.47968413420E+02  0.21128480575E+03  0.25490093668E+03  0.12509000000E+03 0.  0.
         25    1    4    4    0    0  0.50547547663E+02 -0.21347575362E+02  0.39594093151E+01  0.13665269324E+03  0.12509000000E+03 0.  0.
<mgrwt>
<rscale>  2 0.45556773E+03</rscale>
<asrwt>0</asrwt>
<pdfrwt beam="1">  1       21 0.60210453E-01 0.45556773E+03</pdfrwt>
<pdfrwt beam="2">  1       21 0.18636150E-01 0.45556773E+03</pdfrwt>
<totfact> 0.62509291E+04</totfact>
</mgrwt>
</event>
<event>
 6    0  0.1611978E-001  0.5071829E+03  0.7546771E-02  0.1011921E+00
         21   -1    0    0  502  501  0.00000000000E+00  0.00000000000E+00  0.87090310905E+03  0.87090310905E+03  0.00000000000E+00 0. -1.
         21   -1    0    0  501  502 -0.00000000000E+00 -0.00000000000E+00 -0.73841302755E+02  0.73841302755E+02  0.00000000000E+00 0. -1.
      99926    2    1    2    0    0  0.00000000000E+00 -0.88817841970E-15  0.79706180629E+03  0.94474441180E+03  0.50718288672E+03 0.  0.
         25    1    3    3    0    0 -0.11382362718E+03  0.24575381501E+01  0.40284570647E+03  0.43691421232E+03  0.12509000000E+03 0.  0.
         25    1    3    3    0    0  0.10352816342E+03 -0.50103371385E+02  0.13932085249E+03  0.21974129445E+03  0.12509000000E+03 0.  0.
         25    1    3    3    0    0  0.10295463761E+02  0.47645833235E+02  0.25489524732E+03  0.28808890504E+03  0.12509000000E+03 0.  0.
<mgrwt>
<rscale>  2 0.50718289E+03</rscale>
<asrwt>0</asrwt>
<pdfrwt beam="1">  1       21 0.12807398E+00 0.50718289E+03</pdfrwt>
<pdfrwt beam="2">  1       21 0.10859016E-01 0.50718289E+03</pdfrwt>
<totfact> 0.28033376E+04</totfact>
</mgrwt>
</event>
<event>
 7    0  0.4709932E-002  0.4530443E+03  0.7546771E-02  0.1026818E+00
         21   -1    0    0  502  501  0.00000000000E+00  0.00000000000E+00  0.40186614794E+02  0.40186614794E+02  0.00000000000E+00 0. -1.
         21   -1    0    0  501  502 -0.00000000000E+00 -0.00000000000E+00 -0.12768498555E+04  0.12768498555E+04  0.00000000000E+00 0. -1.
      99926    2    1    2    0    0  0.00000000000E+00  0.00000000000E+00 -0.12366632407E+04  0.13170364703E+04  0.45304425079E+03 0.  0.
      99925    2    3    3    0    0  0.89389048725E+02 -0.92092257152E+01 -0.58838383158E+03  0.65071154035E+03  0.26297293322E+03 0.  0.
         25    1    4    4    0    0  0.84492711613E+02 -0.19610048202E+02 -0.32936318983E+03  0.36283769267E+03  0.12509000000E+03 0.  0.
         25    1    4    4    0    0  0.48963371122E+01  0.10400822487E+02 -0.25902064174E+03  0.28787384767E+03  0.12509000000E+03 0.  0.
         25    1    3    3    0    0 -0.89389048725E+02  0.92092257152E+01 -0.64827940915E+03  0.66632492996E+03  0.12509000000E+03 0.  0.
<mgrwt>
<rscale>  2 0.45304425E+03</rscale>
<asrwt>0</asrwt>
<pdfrwt beam="1">  1       21 0.59097965E-02 0.45304425E+03</pdfrwt>
<pdfrwt beam="2">  1       21 0.18777203E+00 0.45304425E+03</pdfrwt>
<totfact> 0.29063408E+04</totfact>
</mgrwt>
</event>
<event>
 7    0  0.4709932E-002  0.4623591E+03  0.7546771E-02  0.1024099E+00
         21   -1    0    0  502  501  0.00000000000E+00  0.00000000000E+00  0.89581417403E+03  0.89581417403E+03  0.00000000000E+00 0. -1.
         21   -1    0    0  501  502 -0.00000000000E+00 -0.00000000000E+00 -0.59659668641E+02  0.59659668641E+02  0.00000000000E+00 0. -1.
      99926    2    1    2    0    0  0.00000000000E+00  0.00000000000E+00  0.83615450539E+03  0.95547384268E+03  0.46235906734E+03 0.  0.
      99925    2    3    3    0    0  0.10436289241E+03  0.16175145925E+02  0.40497715433E+03  0.49426384188E+03  0.26293915876E+03 0.  0.
         25    1    3    3    0    0 -0.10436289241E+03 -0.16175145925E+02  0.43117735107E+03  0.46121000079E+03  0.12509000000E+03 0.  0.
         25    1    4    4    0    0  0.85356904715E+02  0.20095808084E+02  0.26215308864E+03  0.30341620370E+03  0.12509000000E+03 0.  0.
         25    1    4    4    0    0  0.19005987698E+02 -0.39206621586E+01  0.14282406569E+03  0.19084763818E+03  0.12509000000E+03 0.  0.
<mgrwt>
<rscale>  2 0.46235907E+03</rscale>
<asrwt>0</asrwt>
<pdfrwt beam="1">  1       21 0.13173737E+00 0.46235907E+03</pdfrwt>
<pdfrwt beam="2">  1       21 0.87734812E-02 0.46235907E+03</pdfrwt>
<totfact> 0.38647637E+04</totfact>
</mgrwt>
</event>
<event>
 7    0  0.4709932E-002  0.4339502E+03  0.7546771E-02  0.1032619E+00
         21   -1    0    0  502  501  0.00000000000E+00  0.00000000000E+00  0.12636851362E+03  0.12636851362E+03  0.00000000000E+00 0. -1.
         21   -1    0    0  501  502 -0.00000000000E+00 -0.00000000000E+00 -0.37254679710E+03  0.37254679710E+03  0.00000000000E+00 0. -1.
      99926    2    1    2    0    0  0.00000000000E+00 -0.17763568394E-14 -0.24617828348E+03  0.49891531072E+03  0.43395015844E+03 0.  0.
      99925    2    3    3    0    0 -0.90927229326E+02  0.89449546503E+01 -0.17123062998E+03  0.32683267908E+03  0.26296748511E+03 0.  0.
         25    1    4    4    0    0 -0.40611902904E+02 -0.20264552286E+02 -0.46828436593E+02  0.14106873966E+03  0.12509000000E+03 0.  0.
         25    1    4    4    0    0 -0.50315326422E+02  0.29209506936E+02 -0.12440219339E+03  0.18576393942E+03  0.12509000000E+03 0.  0.
         25    1    3    3    0    0  0.90927229326E+02 -0.89449546503E+01 -0.74947653502E+02  0.17208263164E+03  0.12509000000E+03 0.  0.
<mgrwt>
<rscale>  2 0.43395016E+03</rscale>
<asrwt>0</asrwt>
<pdfrwt beam="1">  1       21 0.18583605E-01 0.43395016E+03</pdfrwt>
<pdfrwt beam="2">  1       21 0.54786293E-01 0.43395016E+03</pdfrwt>
<totfact> 0.77506593E+04</totfact>
</mgrwt>
</event>
<event>
 7    0  0.4709932E-002  0.4614452E+03  0.7546771E-02  0.1024363E+00
         21   -1    0    0  502  501  0.00000000000E+00  0.00000000000E+00  0.33857859355E+02  0.33857859355E+02  0.00000000000E+00 0.  1.
         21   -1    0    0  501  502 -0.00000000000E+00 -0.00000000000E+00 -0.15722468562E+04  0.15722468562E+04  0.00000000000E+00 0.  1.
      99926    2    1    2    0    0  0.00000000000E+00  0.00000000000E+00 -0.15383889968E+04  0.16061047155E+04  0.46144517736E+03 0.  0.
      99925    2    3    3    0    0 -0.10636504888E+03  0.49250392453E+02 -0.10363759725E+04  0.10756297307E+04  0.26299246479E+03 0.  0.
         25    1    3    3    0    0  0.10636504888E+03 -0.49250392453E+02 -0.50201302432E+03  0.53047498477E+03  0.12509000000E+03 0.  0.
         25    1    4    4    0    0 -0.52123762398E+02  0.58724808756E+02 -0.45345482138E+03  0.47690069501E+03  0.12509000000E+03 0.  0.
         25    1    4    4    0    0 -0.54241286486E+02 -0.94744163030E+01 -0.58292115110E+03  0.59872903573E+03  0.12509000000E+03 0.  0.
<mgrwt>
<rscale>  2 0.46144518E+03</rscale>
<asrwt>0</asrwt>
<pdfrwt beam="1">  1       21 0.49790971E-02 0.46144518E+03</pdfrwt>
<pdfrwt beam="2">  1       21 0.23121276E+00 0.46144518E+03</pdfrwt>
<totfact> 0.20259192E+04</totfact>
</mgrwt>
</event>
<event>
 7    0  0.4709932E-002  0.4098991E+03  0.7546771E-02  0.1040405E+00
         21   -1    0    0  502  501  0.00000000000E+00  0.00000000000E+00  0.16257519653E+03  0.16257519653E+03  0.00000000000E+00 0. -1.
         21   -1    0    0  501  502 -0.00000000000E+00 -0.00000000000E+00 -0.25836854661E+03  0.25836854661E+03  0.00000000000E+00 0. -1.
      99926    2    1    2    0    0  0.00000000000E+00  0.00000000000E+00 -0.95793350076E+02  0.42094374314E+03  0.40989909608E+03 0.  0.
      99925    2    3    3    0    0  0.34119133092E+02 -0.40213639689E+02 -0.29508877164E+02  0.26987292693E+03  0.26301971561E+03 0.  0.
         25    1    4    4    0    0  0.30522713107E+02 -0.57093873677E+02 -0.27902809089E+02  0.14358767803E+03  0.12509000000E+03 0.  0.
         25    1    3    3    0    0 -0.34119133092E+02  0.40213639689E+02 -0.66284472912E+02  0.15107081621E+03  0.12509000000E+03 0.  0.
         25    1    4    4    0    0  0.35964199854E+01  0.16880233988E+02 -0.16060680750E+01  0.12628524890E+03  0.12509000000E+03 0.  0.
<mgrwt>
<rscale>  2 0.40989910E+03</rscale>
<asrwt>0</asrwt>
<pdfrwt beam="1">  1       21 0.23908118E-01 0.40989910E+03</pdfrwt>
<pdfrwt beam="2">  1       21 0.37995374E-01 0.40989910E+03</pdfrwt>
<totfact> 0.10367022E+05</totfact>
</mgrwt>
</event>
<event>
 7    0  0.4709932E-002  0.4477061E+03  0.7546771E-02  0.1028408E+00
         21   -1    0    0  502  501  0.00000000000E+00  0.00000000000E+00  0.38592413709E+02  0.38592413709E+02  0.00000000000E+00 0. -1.
         21   -1    0    0  501  502 -0.00000000000E+00 -0.00000000000E+00 -0.12984467946E+04  0.12984467946E+04  0.00000000000E+00 0. -1.
      99926    2    1    2    0    0  0.14210854715E-13  0.71054273576E-14 -0.12598543809E+04  0.13370392083E+04  0.44770613521E+03 0.  0.
      99925    2    3    3    0    0 -0.93693336004E+02 -0.50061496343E+02 -0.79658907156E+03  0.84556504871E+03  0.26294772872E+03 0.  0.
         25    1    3    3    0    0  0.93693336004E+02  0.50061496343E+02 -0.46326530933E+03  0.49147415960E+03  0.12509000000E+03 0.  0.
         25    1    4    4    0    0 -0.66207221529E+02 -0.48616351694E+02 -0.51324521069E+03  0.53461677885E+03  0.12509000000E+03 0.  0.
         25    1    4    4    0    0 -0.27486114475E+02 -0.14451446490E+01 -0.28334386087E+03  0.31094826985E+03  0.12509000000E+03 0.  0.
<mgrwt>
<rscale>  2 0.44770614E+03</rscale>
<asrwt>0</asrwt>
<pdfrwt beam="1">  1       21 0.56753547E-02 0.44770614E+03</pdfrwt>
<pdfrwt beam="2">  1       21 0.19094807E+00 0.44770614E+03</pdfrwt>
<totfact> 0.29707072E+04</totfact>
</mgrwt>
</event>
<event>
 7    0  0.4709932E-002  0.4578457E+03  0.7546771E-02  0.1025408E+00
         21   -1    0    0  502  501  0.00000000000E+00  0.00000000000E+00  0.18279766175E+03  0.18279766175E+03  0.00000000000E+00 0.  1.
         21   -1    0    0  501  502 -0.00000000000E+00 -0.00000000000E+00 -0.28668674949E+03  0.28668674949E+03  0.00000000000E+00 0.  1.
      99926    2    1    2    0    0 -0.35527136788E-14  0.00000000000E+00 -0.10388908774E+03  0.46948441123E+03  0.45784568343E+03 0.  0.
      99925    2    3    3    0    0 -0.21727077780E+02 -0.14642140541E+02  0.50304099784E+02  0.26921083492E+03  0.26316822186E+03 0.  0.
         25    1    4    4    0    0 -0.38948339194E+02 -0.62607710967E+01 -0.46519856482E+01  0.13124526449E+03  0.12509000000E+03 0.  0.
         25    1    3    3    0    0  0.21727077780E+02  0.14642140541E+02 -0.15419318752E+03  0.20027357631E+03  0.12509000000E+03 0.  0.
         25    1    4    4    0    0  0.17221261414E+02 -0.83813694438E+01  0.54956085433E+02  0.13796557043E+03  0.12509000000E+03 0.  0.
<mgrwt>
<rscale>  2 0.45784568E+03</rscale>
<asrwt>0</asrwt>
<pdfrwt beam="1">  1       21 0.26882009E-01 0.45784568E+03</pdfrwt>
<pdfrwt beam="2">  1       21 0.42159816E-01 0.45784568E+03</pdfrwt>
<totfact> 0.65972537E+04</totfact>
</mgrwt>
</event>
<event>
 7    0  0.4709932E-002  0.4660933E+03  0.7546771E-02  0.1023029E+00
         21   -1    0    0  502  501  0.00000000000E+00  0.00000000000E+00  0.17949975431E+03  0.17949975431E+03  0.00000000000E+00 0.  1.
         21   -1    0    0  501  502 -0.00000000000E+00 -0.00000000000E+00 -0.30256722068E+03  0.30256722068E+03  0.00000000000E+00 0.  1.
      99926    2    1    2    0    0 -0.71054273576E-14  0.00000000000E+00 -0.12306746637E+03  0.48206697499E+03  0.46609330300E+03 0.  0.
      99925    2    3    3    0    0 -0.45116975685E+02 -0.92315432443E+02 -0.62883168445E+01  0.28246096700E+03  0.26303416962E+03 0.  0.
         25    1    4    4    0    0 -0.46136359909E+02 -0.18237555317E+02 -0.21536593316E+02  0.13628097843E+03  0.12509000000E+03 0.  0.
         25    1    3    3    0    0  0.45116975685E+02  0.92315432443E+02 -0.11677914952E+03  0.19960600799E+03  0.12509000000E+03 0.  0.
         25    1    4    4    0    0  0.10193842247E+01 -0.74077877126E+02  0.15248276471E+02  0.14617998857E+03  0.12509000000E+03 0.  0.
<mgrwt>
<rscale>  2 0.46609330E+03</rscale>
<asrwt>0</asrwt>
<pdfrwt beam="1">  1       21 0.26397023E-01 0.46609330E+03</pdfrwt>
<pdfrwt beam="2">  1       21 0.44495179E-01 0.46609330E+03</pdfrwt>
<totfact> 0.61000266E+04</totfact>
</mgrwt>
</event>
<event>
 7    0  0.4709932E-002  0.4606235E+03  0.7546771E-02  0.1024601E+00
         21   -1    0    0  502  501  0.00000000000E+00  0.00000000000E+00  0.71497852880E+03  0.71497852880E+03  0.00000000000E+00 0.  1.
         21   -1    0    0  501  502 -0.00000000000E+00 -0.00000000000E+00 -0.74188943078E+02  0.74188943078E+02  0.00000000000E+00 0.  1.
      99926    2    1    2    0    0  0.14210854715E-13  0.00000000000E+00  0.64078958572E+03  0.78916747188E+03  0.46062349647E+03 0.  0.
      99925    2    3    3    0    0  0.78267449895E+02 -0.34472530262E+02  0.26126071697E+03  0.38050646399E+03  0.26308526726E+03 0.  0.
         25    1    3    3    0    0 -0.78267449895E+02  0.34472530262E+02  0.37952886875E+03  0.40866100789E+03  0.12509000000E+03 0.  0.
         25    1    4    4    0    0  0.36014164506E+02  0.22874501866E+02  0.11341021246E+03  0.17415409060E+03  0.12509000000E+03 0.  0.
         25    1    4    4    0    0  0.42253285388E+02 -0.57347032128E+02  0.14785050451E+03  0.20635237339E+03  0.12509000000E+03 0.  0.
<mgrwt>
<rscale>  2 0.46062350E+03</rscale>
<asrwt>0</asrwt>
<pdfrwt beam="1">  1       21 0.10514390E+00 0.46062350E+03</pdfrwt>
<pdfrwt beam="2">  1       21 0.10910139E-01 0.46062350E+03</pdfrwt>
<totfact> 0.46219318E+04</totfact>
</mgrwt>
</event>
<event>
 7    0  0.4709932E-002  0.4577752E+03  0.7546771E-02  0.1025428E+00
         21   -1    0    0  502  501  0.00000000000E+00  0.00000000000E+00  0.12493313381E+04  0.12493313381E+04  0.00000000000E+00 0.  1.
         21   -1    0    0  501  502 -0.00000000000E+00 -0.00000000000E+00 -0.41934057008E+02  0.41934057008E+02  0.00000000000E+00 0.  1.
      99926    2    1    2    0    0 -0.14210854715E-13  0.00000000000E+00  0.12073972811E+04  0.12912653951E+04  0.45777519179E+03 0.  0.
      99925    2    3    3    0    0 -0.10752492945E+03  0.18659393177E+02  0.86687885776E+03  0.91243814143E+03  0.26297266870E+03 0.  0.
         25    1    4    4    0    0 -0.82463961779E+02  0.34486314715E+02  0.41232902927E+03  0.44005948163E+03  0.12509000000E+03 0.  0.
         25    1    4    4    0    0 -0.25060967675E+02 -0.15826921537E+02  0.45454982850E+03  0.47237865980E+03  0.12509000000E+03 0.  0.
         25    1    3    3    0    0  0.10752492945E+03 -0.18659393177E+02  0.34051842335E+03  0.37882725370E+03  0.12509000000E+03 0.  0.
<mgrwt>
<rscale>  2 0.45777519E+03</rscale>
<asrwt>0</asrwt>
<pdfrwt beam="1">  1       21 0.18372517E+00 0.45777519E+03</pdfrwt>
<pdfrwt beam="2">  1       21 0.61667739E-02 0.45777519E+03</pdfrwt>
<totfact> 0.28743885E+04</totfact>
</mgrwt>
</event>
<event>
 7    0  0.4709932E-002  0.4542005E+03  0.7546771E-02  0.1026477E+00
         21   -1    0    0  502  501  0.00000000000E+00  0.00000000000E+00  0.10745219890E+03  0.10745219890E+03  0.00000000000E+00 0. -1.
         21   -1    0    0  501  502 -0.00000000000E+00 -0.00000000000E+00 -0.47997650255E+03  0.47997650255E+03  0.00000000000E+00 0. -1.
      99926    2    1    2    0    0  0.00000000000E+00  0.00000000000E+00 -0.37252430365E+03  0.58742870145E+03  0.45420053113E+03 0.  0.
      99925    2    3    3    0    0 -0.60721285017E+02  0.60068358267E+02 -0.14004853452E+03  0.30996199452E+03  0.26299726977E+03 0.  0.
         25    1    3    3    0    0  0.60721285017E+02 -0.60068358267E+02 -0.23247576913E+03  0.27746670693E+03  0.12509000000E+03 0.  0.
         25    1    4    4    0    0 -0.12092699343E+02  0.66044768812E+02 -0.65977941885E+02  0.15655268053E+03  0.12509000000E+03 0.  0.
         25    1    4    4    0    0 -0.48628585674E+02 -0.59764105454E+01 -0.74070592635E+02  0.15340931400E+03  0.12509000000E+03 0.  0.
<mgrwt>
<rscale>  2 0.45420053E+03</rscale>
<asrwt>0</asrwt>
<pdfrwt beam="1">  1       21 0.15801794E-01 0.45420053E+03</pdfrwt>
<pdfrwt beam="2">  1       21 0.70584780E-01 0.45420053E+03</pdfrwt>
<totfact> 0.59836023E+04</totfact>
</mgrwt>
</event>
<event>
 7    0  0.4709932E-002  0.4533359E+03  0.7546771E-02  0.1026732E+00
         21   -1    0    0  502  501  0.00000000000E+00  0.00000000000E+00  0.89158828749E+03  0.89158828749E+03  0.00000000000E+00 0.  1.
         21   -1    0    0  501  502 -0.00000000000E+00 -0.00000000000E+00 -0.57625659822E+02  0.57625659822E+02  0.00000000000E+00 0.  1.
      99926    2    1    2    0    0  0.00000000000E+00  0.00000000000E+00  0.83396262767E+03  0.94921394731E+03  0.45333591676E+03 0.  0.
      99925    2    3    3    0    0 -0.13650075423E+02  0.11041791364E+03  0.50529341342E+03  0.58036519687E+03  0.26291422152E+03 0.  0.
         25    1    4    4    0    0  0.29816871865E+02  0.42221435617E+02  0.21430078964E+03  0.25346406454E+03  0.12509000000E+03 0.  0.
         25    1    3    3    0    0  0.13650075423E+02 -0.11041791364E+03  0.32866921424E+03  0.36884875044E+03  0.12509000000E+03 0.  0.
         25    1    4    4    0    0 -0.43466947288E+02  0.68196478022E+02  0.29099262379E+03  0.32690113233E+03  0.12509000000E+03 0.  0.
<mgrwt>
<rscale>  2 0.45333592E+03</rscale>
<asrwt>0</asrwt>
<pdfrwt beam="1">  1       21 0.13111592E+00 0.45333592E+03</pdfrwt>
<pdfrwt beam="2">  1       21 0.84743623E-02 0.45333592E+03</pdfrwt>
<totfact> 0.41712816E+04</totfact>
</mgrwt>
</event>
<event>
 7    0  0.4709932E-002  0.4589665E+03  0.7546771E-02  0.1025081E+00
         21   -1    0    0  502  501  0.00000000000E+00  0.00000000000E+00  0.91114480373E+03  0.91114480373E+03  0.00000000000E+00 0. -1.
         21   -1    0    0  501  502 -0.00000000000E+00 -0.00000000000E+00 -0.57798241502E+02  0.57798241502E+02  0.00000000000E+00 0. -1.
      99926    2    1    2    0    0  0.00000000000E+00  0.00000000000E+00  0.85334656223E+03  0.96894304524E+03  0.45896652344E+03 0.  0.
      99925    2    3    3    0    0 -0.80672780330E+02 -0.55208855010E+02  0.40053295153E+03  0.48910579231E+03  0.26313820637E+03 0.  0.
         25    1    4    4    0    0 -0.25516137950E+02  0.10228762091E+02  0.20482803256E+03  0.24157345030E+03  0.12509000000E+03 0.  0.
         25    1    4    4    0    0 -0.55156642380E+02 -0.65437617100E+02  0.19570491897E+03  0.24753234201E+03  0.12509000000E+03 0.  0.
         25    1    3    3    0    0  0.80672780330E+02  0.55208855010E+02  0.45281361070E+03  0.47983725292E+03  0.12509000000E+03 0.  0.
<mgrwt>
<rscale>  2 0.45896652E+03</rscale>
<asrwt>0</asrwt>
<pdfrwt beam="1">  1       21 0.13399187E+00 0.45896652E+03</pdfrwt>
<pdfrwt beam="2">  1       21 0.84997419E-02 0.45896652E+03</pdfrwt>
<totfact> 0.39154745E+04</totfact>
</mgrwt>
</event>
<event>
 7    0  0.4709932E-002  0.4540360E+03  0.7546771E-02  0.1026525E+00
         21   -1    0    0  502  501  0.00000000000E+00  0.00000000000E+00  0.21430149361E+03  0.21430149361E+03  0.00000000000E+00 0.  1.
         21   -1    0    0  501  502 -0.00000000000E+00 -0.00000000000E+00 -0.24048908836E+03  0.24048908836E+03  0.00000000000E+00 0.  1.
      99926    2    1    2    0    0  0.00000000000E+00  0.00000000000E+00 -0.26187594748E+02  0.45479058196E+03  0.45403599342E+03 0.  0.
      99925    2    3    3    0    0 -0.78287097012E+02 -0.80030163308E+02 -0.25632299562E+02  0.28691707884E+03  0.26292717386E+03 0.  0.
         25    1    3    3    0    0  0.78287097012E+02  0.80030163308E+02 -0.55529518607E+00  0.16787350312E+03  0.12509000000E+03 0.  0.
         25    1    4    4    0    0 -0.33445575584E+02 -0.61678839605E+02 -0.47322619209E+02  0.15102921628E+03  0.12509000000E+03 0.  0.
         25    1    4    4    0    0 -0.44841521428E+02 -0.18351323703E+02  0.21690319647E+02  0.13588786256E+03  0.12509000000E+03 0.  0.
<mgrwt>
<rscale>  2 0.45403599E+03</rscale>
<asrwt>0</asrwt>
<pdfrwt beam="1">  1       21 0.31514925E-01 0.45403599E+03</pdfrwt>
<pdfrwt beam="2">  1       21 0.35366042E-01 0.45403599E+03</pdfrwt>
<totfact> 0.69091066E+04</totfact>
</mgrwt>
</event>
<event>
 7    0  0.4709932E-002  0.4523588E+03  0.7546771E-02  0.1027021E+00
         21   -1    0    0  502  501  0.00000000000E+00  0.00000000000E+00  0.23403455144E+04  0.23403455144E+04  0.00000000000E+00 0.  1.
         21   -1    0    0  501  502 -0.00000000000E+00 -0.00000000000E+00 -0.21858789620E+02  0.21858789620E+02  0.00000000000E+00 0.  1.
      99926    2    1    2    0    0  0.00000000000E+00  0.00000000000E+00  0.23184867247E+04  0.23622043040E+04  0.45235879669E+03 0.  0.
      99925    2    3    3    0    0 -0.85347298167E+02  0.64014546596E+02  0.16165044278E+04  0.16412267199E+04  0.26297634384E+03 0.  0.
         25    1    4    4    0    0 -0.78008990832E+02  0.49313069397E+02  0.99196420061E+03  0.10040705478E+04  0.12509000000E+03 0.  0.
         25    1    3    3    0    0  0.85347298167E+02 -0.64014546596E+02  0.70198229693E+03  0.72097758411E+03  0.12509000000E+03 0.  0.
         25    1    4    4    0    0 -0.73383073356E+01  0.14701477200E+02  0.62454022720E+03  0.63715617213E+03  0.12509000000E+03 0.  0.
<mgrwt>
<rscale>  2 0.45235880E+03</rscale>
<asrwt>0</asrwt>
<pdfrwt beam="1">  1       21 0.34416828E+00 0.45235880E+03</pdfrwt>
<pdfrwt beam="2">  1       21 0.32145295E-02 0.45235880E+03</pdfrwt>
<totfact> 0.88261937E+03</totfact>
</mgrwt>
</event>
<event>
 7    0  0.4709932E-002  0.4648736E+03  0.7546771E-02  0.1023377E+00
         21   -1    0    0  502  501  0.00000000000E+00  0.00000000000E+00  0.31062181119E+02  0.31062181119E+02  0.00000000000E+00 0. -1.
         21   -1    0    0  501  502 -0.00000000000E+00 -0.00000000000E+00 -0.17393135940E+04  0.17393135940E+04  0.00000000000E+00 0. -1.
      99926    2    1    2    0    0  0.00000000000E+00  0.00000000000E+00 -0.17082514129E+04  0.17703757751E+04  0.46487363393E+03 0.  0.
      99925    2    3    3    0    0  0.71370479968E+02  0.47729816689E+02 -0.73094190341E+03  0.78135946271E+03  0.26243982737E+03 0.  0.
         25    1    3    3    0    0 -0.71370479968E+02 -0.47729816689E+02 -0.97730950947E+03  0.98901631241E+03  0.12509000000E+03 0.  0.
         25    1    4    4    0    0  0.63991021106E+02 -0.17869126349E+01 -0.34207263041E+03  0.36980973001E+03  0.12509000000E+03 0.  0.
         25    1    4    4    0    0  0.73794588620E+01  0.49516729323E+02 -0.38886927300E+03  0.41154973270E+03  0.12509000000E+03 0.  0.
<mgrwt>
<rscale>  2 0.46487363E+03</rscale>
<asrwt>0</asrwt>
<pdfrwt beam="1">  1       21 0.45679671E-02 0.46487363E+03</pdfrwt>
<pdfrwt beam="2">  1       21 0.25578145E+00 0.46487363E+03</pdfrwt>
<totfact> 0.16531696E+04</totfact>
</mgrwt>
</event>
<event>
 7    0  0.4709932E-002  0.4601351E+03  0.7546771E-02  0.1024742E+00
         21   -1    0    0  502  501  0.00000000000E+00  0.00000000000E+00  0.28008045507E+03  0.28008045507E+03  0.00000000000E+00 0. -1.
         21   -1    0    0  501  502 -0.00000000000E+00 -0.00000000000E+00 -0.18898525949E+03  0.18898525949E+03  0.00000000000E+00 0. -1.
      99926    2    1    2    0    0  0.00000000000E+00  0.00000000000E+00  0.91095195587E+02  0.46906571456E+03  0.46013509963E+03 0.  0.
      99925    2    3    3    0    0  0.63159638541E+01  0.95361555094E+02  0.12744188685E+03  0.30750362849E+03  0.26302724084E+03 0.  0.
         25    1    4    4    0    0 -0.27017238827E+02  0.76134746461E+02  0.71198684175E+02  0.16505511668E+03  0.12509000000E+03 0.  0.
         25    1    4    4    0    0  0.33333202682E+02  0.19226808632E+02  0.56243202671E+02  0.14244851181E+03  0.12509000000E+03 0.  0.
         25    1    3    3    0    0 -0.63159638541E+01 -0.95361555094E+02 -0.36346691259E+02  0.16156208607E+03  0.12509000000E+03 0.  0.
<mgrwt>
<rscale>  2 0.46013510E+03</rscale>
<asrwt>0</asrwt>
<pdfrwt beam="1">  1       21 0.41188302E-01 0.46013510E+03</pdfrwt>
<pdfrwt beam="2">  1       21 0.27791950E-01 0.46013510E+03</pdfrwt>
<totfact> 0.64822738E+04</totfact>
</mgrwt>
</event>
<event>
 7    0  0.4709932E-002  0.4580541E+03  0.7546771E-02  0.1025347E+00
         21   -1    0    0  502  501  0.00000000000E+00  0.00000000000E+00  0.42144398252E+02  0.42144398252E+02  0.00000000000E+00 0.  1.
         21   -1    0    0  501  502 -0.00000000000E+00 -0.00000000000E+00 -0.12446110566E+04  0.12446110566E+04  0.00000000000E+00 0.  1.
      99926    2    1    2    0    0  0.35527136788E-14  0.00000000000E+00 -0.12024666583E+04  0.12867554548E+04  0.45805407557E+03 0.  0.
      99925    2    3    3    0    0  0.17438074977E+02 -0.11118972807E+03 -0.83326393753E+03  0.88101489827E+03  0.26304223865E+03 0.  0.
         25    1    4    4    0    0  0.32553361667E+02 -0.45503744896E+02 -0.31272551430E+03  0.34143091182E+03  0.12509000000E+03 0.  0.
         25    1    3    3    0    0 -0.17438074977E+02  0.11118972807E+03 -0.36920272078E+03  0.40574055653E+03  0.12509000000E+03 0.  0.
         25    1    4    4    0    0 -0.15115286690E+02 -0.65685983173E+02 -0.52053842323E+03  0.53958398645E+03  0.12509000000E+03 0.  0.
<mgrwt>
<rscale>  2 0.45805408E+03</rscale>
<asrwt>0</asrwt>
<pdfrwt beam="1">  1       21 0.61977054E-02 0.45805408E+03</pdfrwt>
<pdfrwt beam="2">  1       21 0.18303104E+00 0.45805408E+03</pdfrwt>
<totfact> 0.28811093E+04</totfact>
</mgrwt>
</event>
<event>
 7    0  0.4709932E-002  0.4663808E+03  0.7546771E-02  0.1022947E+00
         21   -1    0    0  502  501  0.00000000000E+00  0.00000000000E+00  0.68716994075E+03  0.68716994075E+03  0.00000000000E+00 0.  1.
         21   -1    0    0  501  502 -0.00000000000E+00 -0.00000000000E+00 -0.79132920494E+02  0.79132920494E+02  0.00000000000E+00 0.  1.
      99926    2    1    2    0    0 -0.17763568394E-14  0.27755575616E-16  0.60803702026E+03  0.76630286125E+03  0.46638080701E+03 0.  0.
      99925    2    3    3    0    0 -0.12157612153E+02 -0.14703869629E+00  0.17690616473E+03  0.31722697473E+03  0.26303865349E+03 0.  0.
         25    1    4    4    0    0 -0.31245571629E+02 -0.25034082173E+01  0.50911804041E+02  0.13864368969E+03  0.12509000000E+03 0.  0.
         25    1    4    4    0    0  0.19087959475E+02  0.23563695210E+01  0.12599436069E+03  0.17858328505E+03  0.12509000000E+03 0.  0.
         25    1    3    3    0    0  0.12157612153E+02  0.14703869629E+00  0.43113085553E+03  0.44907588651E+03  0.12509000000E+03 0.  0.
<mgrwt>
<rscale>  2 0.46638081E+03</rscale>
<asrwt>0</asrwt>
<pdfrwt beam="1">  1       21 0.10105440E+00 0.46638081E+03</pdfrwt>
<pdfrwt beam="2">  1       21 0.11637195E-01 0.46638081E+03</pdfrwt>
<totfact> 0.45256777E+04</totfact>
</mgrwt>
</event>
<event>
 7    0  0.4709932E-002  0.4523242E+03  0.7546771E-02  0.1027031E+00
         21   -1    0    0  502  501  0.00000000000E+00  0.00000000000E+00  0.18735871856E+03  0.18735871856E+03  0.00000000000E+00 0. -1.
         21   -1    0    0  501  502 -0.00000000000E+00 -0.00000000000E+00 -0.27300194535E+03  0.27300194535E+03  0.00000000000E+00 0. -1.
      99926    2    1    2    0    0  0.00000000000E+00  0.00000000000E+00 -0.85643226793E+02  0.46036066391E+03  0.45232419633E+03 0.  0.
      99925    2    3    3    0    0  0.77086234902E+02  0.74778291109E+02 -0.83374878614E+02  0.29547666246E+03  0.26233758259E+03 0.  0.
         25    1    4    4    0    0  0.57755218050E+02  0.14587141488E+02 -0.68422210601E+02  0.15452364516E+03  0.12509000000E+03 0.  0.
         25    1    4    4    0    0  0.19331016852E+02  0.60191149622E+02 -0.14952668013E+02  0.14095301730E+03  0.12509000000E+03 0.  0.
         25    1    3    3    0    0 -0.77086234902E+02 -0.74778291109E+02 -0.22683481794E+01  0.16488400146E+03  0.12509000000E+03 0.  0.
<mgrwt>
<rscale>  2 0.45232420E+03</rscale>
<asrwt>0</asrwt>
<pdfrwt beam="1">  1       21 0.27552753E-01 0.45232420E+03</pdfrwt>
<pdfrwt beam="2">  1       21 0.40147345E-01 0.45232420E+03</pdfrwt>
<totfact> 0.69625182E+04</totfact>
</mgrwt>
</event>
<event>
 7    0  0.4709932E-002  0.4543050E+03  0.7546771E-02  0.1026446E+00
         21   -1    0    0  502  501  0.00000000000E+00  0.00000000000E+00  0.75523781143E+02  0.75523781143E+02  0.00000000000E+00 0.  1.
         21   -1    0    0  501  502 -0.00000000000E+00 -0.00000000000E+00 -0.68320553840E+03  0.68320553840E+03  0.00000000000E+00 0.  1.
      99926    2    1    2    0    0  0.00000000000E+00 -0.71054273576E-14 -0.60768175725E+03  0.75872931954E+03  0.45430503214E+03 0.  0.
      99925    2    3    3    0    0 -0.59597034097E+02 -0.44183192300E+02 -0.24143668251E+03  0.36466470069E+03  0.26302986772E+03 0.  0.
         25    1    4    4    0    0  0.21283762392E+01 -0.39434717728E+02 -0.14185945040E+03  0.19321293620E+03  0.12509000000E+03 0.  0.
         25    1    3    3    0    0  0.59597034097E+02  0.44183192300E+02 -0.36624507475E+03  0.39406461885E+03  0.12509000000E+03 0.  0.
         25    1    4    4    0    0 -0.61725410336E+02 -0.47484745727E+01 -0.99577232111E+02  0.17145176449E+03  0.12509000000E+03 0.  0.
<mgrwt>
<rscale>  2 0.45430503E+03</rscale>
<asrwt>0</asrwt>
<pdfrwt beam="1">  1       21 0.11106438E-01 0.45430503E+03</pdfrwt>
<pdfrwt beam="2">  1       21 0.10047141E+00 0.45430503E+03</pdfrwt>
<totfact> 0.50098063E+04</totfact>
</mgrwt>
</event>
<event>
 7    0  0.4709932E-002  0.4534780E+03  0.7546771E-02  0.1026690E+00
         21   -1    0    0  502  501  0.00000000000E+00  0.00000000000E+00  0.23036172336E+03  0.23036172336E+03  0.00000000000E+00 0.  1.
         21   -1    0    0  501  502 -0.00000000000E+00 -0.00000000000E+00 -0.22317326733E+03  0.22317326733E+03  0.00000000000E+00 0.  1.
      99926    2    1    2    0    0  0.00000000000E+00  0.00000000000E+00  0.71884560297E+01  0.45353499069E+03  0.45347801918E+03 0.  0.
      99925    2    3    3    0    0  0.13101570530E+02  0.44421529082E+02  0.10594382126E+03  0.28756796488E+03  0.26329891334E+03 0.  0.
         25    1    4    4    0    0 -0.21519694180E+02  0.36111436896E+02  0.24806403875E+02  0.13427583135E+03  0.12509000000E+03 0.  0.
         25    1    4    4    0    0  0.34621264710E+02  0.83100921854E+01  0.81137417381E+02  0.15329213353E+03  0.12509000000E+03 0.  0.
         25    1    3    3    0    0 -0.13101570530E+02 -0.44421529082E+02 -0.98755365225E+02  0.16596702581E+03  0.12509000000E+03 0.  0.
<mgrwt>
<rscale>  2 0.45347802E+03</rscale>
<asrwt>0</asrwt>
<pdfrwt beam="1">  1       21 0.33876724E-01 0.45347802E+03</pdfrwt>
<pdfrwt beam="2">  1       21 0.32819598E-01 0.45347802E+03</pdfrwt>
<totfact> 0.69493339E+04</totfact>
</mgrwt>
</event>
<event>
 7    0  0.4709932E-002  0.4509092E+03  0.7546771E-02  0.1027451E+00
         21   -1    0    0  502  501  0.00000000000E+00  0.00000000000E+00  0.10969761614E+04  0.10969761614E+04  0.00000000000E+00 0. -1.
         21   -1    0    0  501  502 -0.00000000000E+00 -0.00000000000E+00 -0.46336269732E+02  0.46336269732E+02  0.00000000000E+00 0. -1.
      99926    2    1    2    0    0  0.00000000000E+00  0.00000000000E+00  0.10506398917E+04  0.11433124312E+04  0.45090922947E+03 0.  0.
      99925    2    3    3    0    0 -0.62075712006E+01 -0.43373294185E+01  0.38764344233E+03  0.46857607796E+03  0.26313258271E+03 0.  0.
         25    1    4    4    0    0 -0.89957230660E+01 -0.40962744673E+02  0.17521888083E+03  0.21933543668E+03  0.12509000000E+03 0.  0.
         25    1    4    4    0    0  0.27881518654E+01  0.36625415254E+02  0.21242456151E+03  0.24924064128E+03  0.12509000000E+03 0.  0.
         25    1    3    3    0    0  0.62075712006E+01  0.43373294185E+01  0.66299644937E+03  0.67473635321E+03  0.12509000000E+03 0.  0.
<mgrwt>
<rscale>  2 0.45090923E+03</rscale>
<asrwt>0</asrwt>
<pdfrwt beam="1">  1       21 0.16132001E+00 0.45090923E+03</pdfrwt>
<pdfrwt beam="2">  1       21 0.68141580E-02 0.45090923E+03</pdfrwt>
<totfact> 0.35112694E+04</totfact>
</mgrwt>
</event>
<event>
 7    0  0.4709932E-002  0.4324105E+03  0.7546771E-02  0.1033101E+00
         21   -1    0    0  502  501  0.00000000000E+00  0.00000000000E+00  0.83064520234E+02  0.83064520234E+02  0.00000000000E+00 0.  1.
         21   -1    0    0  501  502 -0.00000000000E+00 -0.00000000000E+00 -0.56275183929E+03  0.56275183929E+03  0.00000000000E+00 0.  1.
      99926    2    1    2    0    0  0.00000000000E+00  0.00000000000E+00 -0.47968731905E+03  0.64581635952E+03  0.43241050654E+03 0.  0.
      99925    2    3    3    0    0  0.51088468102E+02  0.72532584963E+02 -0.28231143180E+03  0.39586485138E+03  0.26294149269E+03 0.  0.
         25    1    4    4    0    0  0.43789083535E+02  0.32406858761E+02 -0.19487723045E+03  0.23789142771E+03  0.12509000000E+03 0.  0.
         25    1    4    4    0    0  0.72993845667E+01  0.40125726202E+02 -0.87434201350E+02  0.15797342366E+03  0.12509000000E+03 0.  0.
         25    1    3    3    0    0 -0.51088468102E+02 -0.72532584963E+02 -0.19737588725E+03  0.24995150814E+03  0.12509000000E+03 0.  0.
<mgrwt>
<rscale>  2 0.43241051E+03</rscale>
<asrwt>0</asrwt>
<pdfrwt beam="1">  1       21 0.12215371E-01 0.43241051E+03</pdfrwt>
<pdfrwt beam="2">  1       21 0.82757621E-01 0.43241051E+03</pdfrwt>
<totfact> 0.67125028E+04</totfact>
</mgrwt>
</event>
<event>
 7    0  0.4709932E-002  0.4616218E+03  0.7546771E-02  0.1024312E+00
         21   -1    0    0  502  501  0.00000000000E+00  0.00000000000E+00  0.14928364892E+04  0.14928364892E+04  0.00000000000E+00 0. -1.
         21   -1    0    0  501  502 -0.00000000000E+00 -0.00000000000E+00 -0.35686203440E+02  0.35686203440E+02  0.00000000000E+00 0. -1.
      99926    2    1    2    0    0 -0.88817841970E-15  0.00000000000E+00  0.14571502857E+04  0.15285226926E+04  0.46162177876E+03 0.  0.
      99925    2    3    3    0    0  0.69968890409E+01 -0.10067680066E+03  0.11220401445E+04  0.11568627815E+04  0.26300691013E+03 0.  0.
         25    1    4    4    0    0  0.25496639888E+00 -0.19581396641E+02  0.63392024168E+03  0.64644093080E+03  0.12509000000E+03 0.  0.
         25    1    4    4    0    0  0.67419226420E+01 -0.81095404022E+02  0.48811990280E+03  0.51042185072E+03  0.12509000000E+03 0.  0.
         25    1    3    3    0    0 -0.69968890409E+01  0.10067680066E+03  0.33511014123E+03  0.37165991108E+03  0.12509000000E+03 0.  0.
<mgrwt>
<rscale>  2 0.46162178E+03</rscale>
<asrwt>0</asrwt>
<pdfrwt beam="1">  1       21 0.21953474E+00 0.46162178E+03</pdfrwt>
<pdfrwt beam="2">  1       21 0.52479721E-02 0.46162178E+03</pdfrwt>
<totfact> 0.21938512E+04</totfact>
</mgrwt>
</event>
<event>
 7    0  0.4709932E-002  0.4642513E+03  0.7546771E-02  0.1023555E+00
         21   -1    0    0  502  501  0.00000000000E+00  0.00000000000E+00  0.33845299583E+03  0.33845299583E+03  0.00000000000E+00 0.  1.
         21   -1    0    0  501  502 -0.00000000000E+00 -0.00000000000E+00 -0.15920177722E+03  0.15920177722E+03  0.00000000000E+00 0.  1.
      99926    2    1    2    0    0 -0.17763568394E-14  0.00000000000E+00  0.17925121861E+03  0.49765477306E+03  0.46425130455E+03 0.  0.
      99925    2    3    3    0    0 -0.15385464759E+02  0.83946292983E+02  0.20476576654E+03  0.34408982625E+03  0.26303060041E+03 0.  0.
         25    1    4    4    0    0 -0.36017197020E+02  0.54260581225E+02  0.72838630151E+02  0.15872751273E+03  0.12509000000E+03 0.  0.
         25    1    4    4    0    0  0.20631732261E+02  0.29685711758E+02  0.13192713639E+03  0.18536231352E+03  0.12509000000E+03 0.  0.
         25    1    3    3    0    0  0.15385464759E+02 -0.83946292983E+02 -0.25514547928E+02  0.15356494681E+03  0.12509000000E+03 0.  0.
<mgrwt>
<rscale>  2 0.46425130E+03</rscale>
<asrwt>0</asrwt>
<pdfrwt beam="1">  1       21 0.49772499E-01 0.46425130E+03</pdfrwt>
<pdfrwt beam="2">  1       21 0.23412026E-01 0.46425130E+03</pdfrwt>
<totfact> 0.60842993E+04</totfact>
</mgrwt>
</event>
<event>
 7    0  0.4709932E-002  0.4516544E+03  0.7546771E-02  0.1027230E+00
         21   -1    0    0  502  501  0.00000000000E+00  0.00000000000E+00  0.16019744346E+03  0.16019744346E+03  0.00000000000E+00 0. -1.
         21   -1    0    0  501  502 -0.00000000000E+00 -0.00000000000E+00 -0.31834411840E+03  0.31834411840E+03  0.00000000000E+00 0. -1.
      99926    2    1    2    0    0  0.00000000000E+00  0.00000000000E+00 -0.15814667494E+03  0.47854156186E+03  0.45165435416E+03 0.  0.
      99925    2    3    3    0    0  0.78631499998E+02 -0.67928111926E+02 -0.61388090875E+02  0.28931452132E+03  0.26293963825E+03 0.  0.
         25    1    4    4    0    0  0.12616902941E+02 -0.74351296701E+01 -0.69620591141E+01  0.12613661546E+03  0.12509000000E+03 0.  0.
         25    1    4    4    0    0  0.66014597056E+02 -0.60492982255E+02 -0.54426031761E+02  0.16317790586E+03  0.12509000000E+03 0.  0.
         25    1    3    3    0    0 -0.78631499998E+02  0.67928111926E+02 -0.96758584063E+02  0.18922704054E+03  0.12509000000E+03 0.  0.
<mgrwt>
<rscale>  2 0.45165435E+03</rscale>
<asrwt>0</asrwt>
<pdfrwt beam="1">  1       21 0.23558448E-01 0.45165435E+03</pdfrwt>
<pdfrwt beam="2">  1       21 0.46815311E-01 0.45165435E+03</pdfrwt>
<totfact> 0.68610426E+04</totfact>
</mgrwt>
</event>
<event>
 7    0  0.4709932E-002  0.4703608E+03  0.7546771E-02  0.1021818E+00
         21   -1    0    0  502  501  0.00000000000E+00  0.00000000000E+00  0.42495655468E+03  0.42495655468E+03  0.00000000000E+00 0. -1.
         21   -1    0    0  501  502 -0.00000000000E+00 -0.00000000000E+00 -0.13015403655E+03  0.13015403655E+03  0.00000000000E+00 0. -1.
      99926    2    1    2    0    0 -0.35527136788E-14  0.00000000000E+00  0.29480251813E+03  0.55511059124E+03  0.47036075921E+03 0.  0.
      99925    2    3    3    0    0 -0.24310085269E+02  0.16427214080E+02  0.37121271285E+02  0.26717315587E+03  0.26294994358E+03 0.  0.
         25    1    4    4    0    0 -0.41147404893E+01 -0.18330616282E+00 -0.20785158523E+02  0.12687196540E+03  0.12509000000E+03 0.  0.
         25    1    4    4    0    0 -0.20195344780E+02  0.16610520243E+02  0.57906429807E+02  0.14030119047E+03  0.12509000000E+03 0.  0.
         25    1    3    3    0    0  0.24310085269E+02 -0.16427214080E+02  0.25768124685E+03  0.28793743536E+03  0.12509000000E+03 0.  0.
<mgrwt>
<rscale>  2 0.47036076E+03</rscale>
<asrwt>0</asrwt>
<pdfrwt beam="1">  1       21 0.62493610E-01 0.47036076E+03</pdfrwt>
<pdfrwt beam="2">  1       21 0.19140300E-01 0.47036076E+03</pdfrwt>
<totfact> 0.54585936E+04</totfact>
</mgrwt>
</event>
<event>
 7    0  0.4709932E-002  0.4521223E+03  0.7546771E-02  0.1027091E+00
         21   -1    0    0  502  501  0.00000000000E+00  0.00000000000E+00  0.30611495404E+03  0.30611495404E+03  0.00000000000E+00 0.  1.
         21   -1    0    0  501  502 -0.00000000000E+00 -0.00000000000E+00 -0.16694266719E+03  0.16694266719E+03  0.00000000000E+00 0.  1.
      99926    2    1    2    0    0 -0.71054273576E-14  0.00000000000E+00  0.13917228685E+03  0.47305762123E+03  0.45212231484E+03 0.  0.
      99925    2    3    3    0    0 -0.50239261674E+02  0.68156109984E+02  0.13691073974E+02  0.27668480838E+03  0.26305474513E+03 0.  0.
         25    1    3    3    0    0  0.50239261674E+02 -0.68156109984E+02  0.12548121288E+03  0.19637281285E+03  0.12509000000E+03 0.  0.
         25    1    4    4    0    0 -0.60274125684E+02  0.25318580082E+02 -0.11869716864E+02  0.14164179822E+03  0.12509000000E+03 0.  0.
         25    1    4    4    0    0  0.10034864010E+02  0.42837529903E+02  0.25560790838E+02  0.13504301016E+03  0.12509000000E+03 0.  0.
<mgrwt>
<rscale>  2 0.45212231E+03</rscale>
<asrwt>0</asrwt>
<pdfrwt beam="1">  1       21 0.45016905E-01 0.45212231E+03</pdfrwt>
<pdfrwt beam="2">  1       21 0.24550392E-01 0.45212231E+03</pdfrwt>
<totfact> 0.68766051E+04</totfact>
</mgrwt>
</event>
<event>
 7    0  0.4709932E-002  0.4911038E+03  0.7546771E-02  0.1016127E+00
         21   -1    0    0  502  501  0.00000000000E+00  0.00000000000E+00  0.13581209897E+03  0.13581209897E+03  0.00000000000E+00 0.  1.
         21   -1    0    0  501  502 -0.00000000000E+00 -0.00000000000E+00 -0.44396433113E+03  0.44396433113E+03  0.00000000000E+00 0.  1.
      99926    2    1    2    0    0 -0.35527136788E-14  0.00000000000E+00 -0.30815223217E+03  0.57977643010E+03  0.49110376776E+03 0.  0.
      99925    2    3    3    0    0 -0.16222632034E+02  0.81933498022E+02 -0.49017542724E+02  0.28015238690E+03  0.26288090175E+03 0.  0.
         25    1    3    3    0    0  0.16222632034E+02 -0.81933498022E+02 -0.25913468944E+03  0.29962404320E+03  0.12509000000E+03 0.  0.
         25    1    4    4    0    0  0.23150528316E+02  0.61745872954E+02 -0.95839712960E+01  0.14173164923E+03  0.12509000000E+03 0.  0.
         25    1    4    4    0    0 -0.39373160350E+02  0.20187625068E+02 -0.39433571428E+02  0.13842073767E+03  0.12509000000E+03 0.  0.
<mgrwt>
<rscale>  2 0.49110377E+03</rscale>
<asrwt>0</asrwt>
<pdfrwt beam="1">  1       21 0.19972368E-01 0.49110377E+03</pdfrwt>
<pdfrwt beam="2">  1       21 0.65288871E-01 0.49110377E+03</pdfrwt>
<totfact> 0.45489550E+04</totfact>
</mgrwt>
</event>
<event>
 7    0  0.4709932E-002  0.4493627E+03  0.7546771E-02  0.1027912E+00
         21   -1    0    0  502  501  0.00000000000E+00  0.00000000000E+00  0.83726220267E+02  0.83726220267E+02  0.00000000000E+00 0. -1.
         21   -1    0    0  501  502 -0.00000000000E+00 -0.00000000000E+00 -0.60293795507E+03  0.60293795507E+03  0.00000000000E+00 0. -1.
      99926    2    1    2    0    0  0.71054273576E-14 -0.17763568394E-14 -0.51921173480E+03  0.68666417533E+03  0.44936273113E+03 0.  0.
      99925    2    3    3    0    0 -0.60213065475E+02  0.14034522172E+02 -0.46335690145E+03  0.53636496850E+03  0.26299273801E+03 0.  0.
         25    1    4    4    0    0 -0.23941586573E+02  0.61553059225E+01 -0.30883352100E+03  0.33412084513E+03  0.12509000000E+03 0.  0.
         25    1    4    4    0    0 -0.36271478901E+02  0.78792162490E+01 -0.15452338045E+03  0.20224412337E+03  0.12509000000E+03 0.  0.
         25    1    3    3    0    0  0.60213065475E+02 -0.14034522172E+02 -0.55854833349E+02  0.15029920683E+03  0.12509000000E+03 0.  0.
<mgrwt>
<rscale>  2 0.44936273E+03</rscale>
<asrwt>0</asrwt>
<pdfrwt beam="1">  1       21 0.12312679E-01 0.44936273E+03</pdfrwt>
<pdfrwt beam="2">  1       21 0.88667347E-01 0.44936273E+03</pdfrwt>
<totfact> 0.56080907E+04</totfact>
</mgrwt>
</event>
<event>
 7    0  0.4709932E-002  0.4508986E+03  0.7546771E-02  0.1027454E+00
         21   -1    0    0  502  501  0.00000000000E+00  0.00000000000E+00  0.34913002861E+02  0.34913002861E+02  0.00000000000E+00 0.  1.
         21   -1    0    0  501  502 -0.00000000000E+00 -0.00000000000E+00 -0.14558296001E+04  0.14558296001E+04  0.00000000000E+00 0.  1.
      99926    2    1    2    0    0  0.00000000000E+00  0.00000000000E+00 -0.14209165972E+04  0.14907426030E+04  0.45089858280E+03 0.  0.
      99925    2    3    3    0    0 -0.31397222608E+02 -0.66328142126E+02 -0.11654081639E+04  0.11969445845E+04  0.26289720791E+03 0.  0.
         25    1    4    4    0    0 -0.47428499083E+02 -0.21340929802E+02 -0.48941969133E+03  0.50782284329E+03  0.12509000000E+03 0.  0.
         25    1    3    3    0    0  0.31397222608E+02  0.66328142126E+02 -0.25550843334E+03  0.29379801843E+03  0.12509000000E+03 0.  0.
         25    1    4    4    0    0  0.16031276475E+02 -0.44987212324E+02 -0.67598847257E+03  0.68912174124E+03  0.12509000000E+03 0.  0.
<mgrwt>
<rscale>  2 0.45089858E+03</rscale>
<asrwt>0</asrwt>
<pdfrwt beam="1">  1       21 0.51342655E-02 0.45089858E+03</pdfrwt>
<pdfrwt beam="2">  1       21 0.21409257E+00 0.45089858E+03</pdfrwt>
<totfact> 0.24787248E+04</totfact>
</mgrwt>
</event>
<event>
 7    0  0.4709932E-002  0.4655118E+03  0.7546771E-02  0.1023195E+00
         21   -1    0    0  502  501  0.00000000000E+00  0.00000000000E+00  0.68435262532E+03  0.68435262532E+03  0.00000000000E+00 0. -1.
         21   -1    0    0  501  502 -0.00000000000E+00 -0.00000000000E+00 -0.79162843498E+02  0.79162843498E+02  0.00000000000E+00 0. -1.
      99926    2    1    2    0    0  0.00000000000E+00  0.00000000000E+00  0.60518978182E+03  0.76351546881E+03  0.46551176043E+03 0.  0.
      99925    2    3    3    0    0  0.38482699707E+02  0.69838175189E+02  0.22457390823E+03  0.35501303281E+03  0.26313974295E+03 0.  0.
         25    1    3    3    0    0 -0.38482699707E+02 -0.69838175189E+02  0.38061587359E+03  0.40850243600E+03  0.12509000000E+03 0.  0.
         25    1    4    4    0    0 -0.35520059722E+01  0.29234805635E+02  0.15195792454E+03  0.19901258638E+03  0.12509000000E+03 0.  0.
         25    1    4    4    0    0  0.42034705679E+02  0.40603369554E+02  0.72615983692E+02  0.15600044644E+03  0.12509000000E+03 0.  0.
<mgrwt>
<rscale>  2 0.46551176E+03</rscale>
<asrwt>0</asrwt>
<pdfrwt beam="1">  1       21 0.10064009E+00 0.46551176E+03</pdfrwt>
<pdfrwt beam="2">  1       21 0.11641595E-01 0.46551176E+03</pdfrwt>
<totfact> 0.45690899E+04</totfact>
</mgrwt>
</event>
<event>
 7    0  0.4709932E-002  0.4655023E+03  0.7546771E-02  0.1023197E+00
         21   -1    0    0  502  501  0.00000000000E+00  0.00000000000E+00  0.10949723003E+03  0.10949723003E+03  0.00000000000E+00 0. -1.
         21   -1    0    0  501  502 -0.00000000000E+00 -0.00000000000E+00 -0.49474391779E+03  0.49474391779E+03  0.00000000000E+00 0. -1.
      99926    2    1    2    0    0  0.00000000000E+00 -0.53290705182E-14 -0.38524668776E+03  0.60424114781E+03  0.46550226023E+03 0.  0.
      99925    2    3    3    0    0  0.16074253268E+02  0.13336488112E+02 -0.39720640791E+03  0.47685674320E+03  0.26302695586E+03 0.  0.
         25    1    3    3    0    0 -0.16074253268E+02 -0.13336488112E+02  0.11959720153E+02  0.12738440462E+03  0.12509000000E+03 0.  0.
         25    1    4    4    0    0  0.48925377383E+01 -0.33778958129E+02 -0.20016069885E+03  0.23848850790E+03  0.12509000000E+03 0.  0.
         25    1    4    4    0    0  0.11181715530E+02  0.47115446241E+02 -0.19704570907E+03  0.23836823530E+03  0.12509000000E+03 0.  0.
<mgrwt>
<rscale>  2 0.46550226E+03</rscale>
<asrwt>0</asrwt>
<pdfrwt beam="1">  1       21 0.16102534E-01 0.46550226E+03</pdfrwt>
<pdfrwt beam="2">  1       21 0.72756459E-01 0.46550226E+03</pdfrwt>
<totfact> 0.53811961E+04</totfact>
</mgrwt>
</event>
<event>
 7    0  0.4709932E-002  0.4559027E+03  0.7546771E-02  0.1025976E+00
         21   -1    0    0  502  501  0.00000000000E+00  0.00000000000E+00  0.97971758713E+03  0.97971758713E+03  0.00000000000E+00 0. -1.
         21   -1    0    0  501  502 -0.00000000000E+00 -0.00000000000E+00 -0.53037546894E+02  0.53037546894E+02  0.00000000000E+00 0. -1.
      99926    2    1    2    0    0  0.00000000000E+00  0.00000000000E+00  0.92668004024E+03  0.10327551340E+04  0.45590269782E+03 0.  0.
      99925    2    3    3    0    0  0.10901555450E+03 -0.11246654531E+02  0.65411283176E+03  0.71345704509E+03  0.26295718312E+03 0.  0.
         25    1    4    4    0    0  0.18030581813E+02 -0.87719074617E+01  0.35072884256E+03  0.37290786710E+03  0.12509000000E+03 0.  0.
         25    1    3    3    0    0 -0.10901555450E+03  0.11246654531E+02  0.27256720847E+03  0.31929808893E+03  0.12509000000E+03 0.  0.
         25    1    4    4    0    0  0.90984972684E+02 -0.24747470691E+01  0.30338398920E+03  0.34054917799E+03  0.12509000000E+03 0.  0.
<mgrwt>
<rscale>  2 0.45590270E+03</rscale>
<asrwt>0</asrwt>
<pdfrwt beam="1">  1       21 0.14407610E+00 0.45590270E+03</pdfrwt>
<pdfrwt beam="2">  1       21 0.77996399E-02 0.45590270E+03</pdfrwt>
<totfact> 0.37650570E+04</totfact>
</mgrwt>
</event>
<event>
 7    0  0.4709932E-002  0.4428868E+03  0.7546771E-02  0.1029865E+00
         21   -1    0    0  502  501  0.00000000000E+00  0.00000000000E+00  0.54130161274E+03  0.54130161274E+03  0.00000000000E+00 0.  1.
         21   -1    0    0  501  502 -0.00000000000E+00 -0.00000000000E+00 -0.90591231740E+02  0.90591231740E+02  0.00000000000E+00 0.  1.
      99926    2    1    2    0    0  0.17763568394E-14  0.00000000000E+00  0.45071038100E+03  0.63189284448E+03  0.44288680197E+03 0.  0.
      99925    2    3    3    0    0 -0.13137153380E+02 -0.87235409436E+02  0.21545427364E+03  0.35122302848E+03  0.26297237545E+03 0.  0.
         25    1    3    3    0    0  0.13137153380E+02  0.87235409436E+02  0.23525610736E+03  0.28066981599E+03  0.12509000000E+03 0.  0.
         25    1    4    4    0    0  0.77342612321E+01 -0.88421542166E+01  0.74610543461E+02  0.14612406983E+03  0.12509000000E+03 0.  0.
         25    1    4    4    0    0 -0.20871414612E+02 -0.78393255219E+02  0.14084373017E+03  0.20509895865E+03  0.12509000000E+03 0.  0.
<mgrwt>
<rscale>  2 0.44288680E+03</rscale>
<asrwt>0</asrwt>
<pdfrwt beam="1">  1       21 0.79603177E-01 0.44288680E+03</pdfrwt>
<pdfrwt beam="2">  1       21 0.13322240E-01 0.44288680E+03</pdfrwt>
<totfact> 0.62523642E+04</totfact>
</mgrwt>
</event>
<event>
 7    0  0.4709932E-002  0.4274523E+03  0.7546771E-02  0.1034668E+00
         21   -1    0    0  502  501  0.00000000000E+00  0.00000000000E+00  0.13110591328E+03  0.13110591328E+03  0.00000000000E+00 0. -1.
         21   -1    0    0  501  502 -0.00000000000E+00 -0.00000000000E+00 -0.34841188934E+03  0.34841188934E+03  0.00000000000E+00 0. -1.
      99926    2    1    2    0    0  0.00000000000E+00  0.00000000000E+00 -0.21730597606E+03  0.47951780262E+03  0.42745226143E+03 0.  0.
      99925    2    3    3    0    0 -0.49855226073E+02  0.33214224052E+02 -0.72939788476E+02  0.27932331602E+03  0.26289270413E+03 0.  0.
         25    1    3    3    0    0  0.49855226073E+02 -0.33214224052E+02 -0.14436618758E+03  0.20019448659E+03  0.12509000000E+03 0.  0.
         25    1    4    4    0    0 -0.55446176273E+02 -0.81252136384E+01 -0.47232389349E+02  0.14497828894E+03  0.12509000000E+03 0.  0.
         25    1    4    4    0    0  0.55909501991E+01  0.41339437691E+02 -0.25707399127E+02  0.13434502709E+03  0.12509000000E+03 0.  0.
<mgrwt>
<rscale>  2 0.42745226E+03</rscale>
<asrwt>0</asrwt>
<pdfrwt beam="1">  1       21 0.19280282E-01 0.42745226E+03</pdfrwt>
<pdfrwt beam="2">  1       21 0.51237042E-01 0.42745226E+03</pdfrwt>
<totfact> 0.83568349E+04</totfact>
</mgrwt>
</event>
<event>
 7    0  0.4709932E-002  0.4556704E+03  0.7546771E-02  0.1026044E+00
         21   -1    0    0  502  501  0.00000000000E+00  0.00000000000E+00  0.20277865494E+03  0.20277865494E+03  0.00000000000E+00 0. -1.
         21   -1    0    0  501  502 -0.00000000000E+00 -0.00000000000E+00 -0.25598783978E+03  0.25598783978E+03  0.00000000000E+00 0. -1.
      99926    2    1    2    0    0 -0.17763568394E-14  0.14210854715E-13 -0.53209184840E+02  0.45876649473E+03  0.45567036258E+03 0.  0.
      99925    2    3    3    0    0  0.12088272582E+02  0.11127113190E+03 -0.54118184968E+02  0.29091023029E+03  0.26300683074E+03 0.  0.
         25    1    3    3    0    0 -0.12088272582E+02 -0.11127113190E+03  0.90900012827E+00  0.16785626444E+03  0.12509000000E+03 0.  0.
         25    1    4    4    0    0 -0.18237073860E+02  0.67899248727E+02 -0.58634030318E+02  0.15501082689E+03  0.12509000000E+03 0.  0.
         25    1    4    4    0    0  0.30325346442E+02  0.43371883177E+02  0.45158453499E+01  0.13589940341E+03  0.12509000000E+03 0.  0.
<mgrwt>
<rscale>  2 0.45567036E+03</rscale>
<asrwt>0</asrwt>
<pdfrwt beam="1">  1       21 0.29820390E-01 0.45567036E+03</pdfrwt>
<pdfrwt beam="2">  1       21 0.37645271E-01 0.45567036E+03</pdfrwt>
<totfact> 0.67906721E+04</totfact>
</mgrwt>
</event>
<event>
 7    0  0.4709932E-002  0.4546424E+03  0.7546771E-02  0.1026347E+00
         21   -1    0    0  502  501  0.00000000000E+00  0.00000000000E+00  0.73896174997E+03  0.73896174997E+03  0.00000000000E+00 0. -1.
         21   -1    0    0  501  502 -0.00000000000E+00 -0.00000000000E+00 -0.69929085254E+02  0.69929085254E+02  0.00000000000E+00 0. -1.
      99926    2    1    2    0    0  0.00000000000E+00 -0.71054273576E-14  0.66903266471E+03  0.80889083522E+03  0.45464236148E+03 0.  0.
      99925    2    3    3    0    0 -0.73474661227E+02  0.35596261181E+02  0.55963087730E+03  0.62373717244E+03  0.26305079700E+03 0.  0.
         25    1    4    4    0    0 -0.67250624428E+02  0.19255623092E+02  0.23318307500E+03  0.27370655833E+03  0.12509000000E+03 0.  0.
         25    1    3    3    0    0  0.73474661227E+02 -0.35596261181E+02  0.10940178742E+03  0.18515366278E+03  0.12509000000E+03 0.  0.
         25    1    4    4    0    0 -0.62240367996E+01  0.16340638089E+02  0.32644780229E+03  0.35003061410E+03  0.12509000000E+03 0.  0.
<mgrwt>
<rscale>  2 0.45464236E+03</rscale>
<asrwt>0</asrwt>
<pdfrwt beam="1">  1       21 0.10867084E+00 0.45464236E+03</pdfrwt>
<pdfrwt beam="2">  1       21 0.10283689E-01 0.45464236E+03</pdfrwt>
<totfact> 0.47470862E+04</totfact>
</mgrwt>
</event>
<event>
 7    0  0.4709932E-002  0.4493449E+03  0.7546771E-02  0.1027918E+00
         21   -1    0    0  502  501  0.00000000000E+00  0.00000000000E+00  0.31110737914E+03  0.31110737914E+03  0.00000000000E+00 0.  1.
         21   -1    0    0  501  502 -0.00000000000E+00 -0.00000000000E+00 -0.16225174513E+03  0.16225174513E+03  0.00000000000E+00 0.  1.
      99926    2    1    2    0    0  0.14210854715E-13  0.00000000000E+00  0.14885563401E+03  0.47335912426E+03  0.44934492402E+03 0.  0.
      99925    2    3    3    0    0 -0.10530544574E+03 -0.17020071433E+02  0.79054870081E+02  0.29475740401E+03  0.26316028386E+03 0.  0.
         25    1    4    4    0    0 -0.51206315644E+02 -0.45553535361E+02  0.57805314206E+02  0.15390313121E+03  0.12509000000E+03 0.  0.
         25    1    3    3    0    0  0.10530544574E+03  0.17020071433E+02  0.69800763930E+02  0.17860172026E+03  0.12509000000E+03 0.  0.
         25    1    4    4    0    0 -0.54099130092E+02  0.28533463928E+02  0.21249555875E+02  0.14085427280E+03  0.12509000000E+03 0.  0.
<mgrwt>
<rscale>  2 0.44934492E+03</rscale>
<asrwt>0</asrwt>
<pdfrwt beam="1">  1       21 0.45751085E-01 0.44934492E+03</pdfrwt>
<pdfrwt beam="2">  1       21 0.23860551E-01 0.44934492E+03</pdfrwt>
<totfact> 0.70288836E+04</totfact>
</mgrwt>
</event>
<event>
 7    0  0.4709932E-002  0.4448755E+03  0.7546771E-02  0.1029261E+00
         21   -1    0    0  502  501  0.00000000000E+00  0.00000000000E+00  0.15740613195E+03  0.15740613195E+03  0.00000000000E+00 0.  1.
         21   -1    0    0  501  502 -0.00000000000E+00 -0.00000000000E+00 -0.31433694969E+03  0.31433694969E+03  0.00000000000E+00 0.  1.
      99926    2    1    2    0    0  0.14210854715E-13  0.00000000000E+00 -0.15693081774E+03  0.47174308164E+03  0.44487554835E+03 0.  0.
      99925    2    3    3    0    0 -0.87133631656E+02 -0.55100061843E+02 -0.10763306910E+03  0.30231444563E+03  0.26302254635E+03 0.  0.
         25    1    4    4    0    0 -0.77742735792E+02 -0.30417304423E+02 -0.84142242659E+02  0.17232692905E+03  0.12509000000E+03 0.  0.
         25    1    3    3    0    0  0.87133631656E+02  0.55100061843E+02 -0.49297748633E+02  0.16942863601E+03  0.12509000000E+03 0.  0.
         25    1    4    4    0    0 -0.93908958637E+01 -0.24682757421E+02 -0.23490826445E+02  0.12998751658E+03  0.12509000000E+03 0.  0.
<mgrwt>
<rscale>  2 0.44487555E+03</rscale>
<asrwt>0</asrwt>
<pdfrwt beam="1">  1       21 0.23147961E-01 0.44487555E+03</pdfrwt>
<pdfrwt beam="2">  1       21 0.46226021E-01 0.44487555E+03</pdfrwt>
<totfact> 0.72997961E+04</totfact>
</mgrwt>
</event>
<event>
 7    0  0.4709932E-002  0.4483407E+03  0.7546771E-02  0.1028218E+00
         21   -1    0    0  502  501  0.00000000000E+00  0.00000000000E+00  0.12169260599E+03  0.12169260599E+03  0.00000000000E+00 0. -1.
         21   -1    0    0  501  502 -0.00000000000E+00 -0.00000000000E+00 -0.41294497685E+03  0.41294497685E+03  0.00000000000E+00 0. -1.
      99926    2    1    2    0    0 -0.71054273576E-14  0.00000000000E+00 -0.29125237085E+03  0.53463758284E+03  0.44834072028E+03 0.  0.
      99925    2    3    3    0    0 -0.43337293668E+02  0.15449553334E+02 -0.69506495820E+02  0.27591852495E+03  0.26302674718E+03 0.  0.
         25    1    4    4    0    0 -0.57653412622E+02 -0.94725354295E+01 -0.45319305832E+02  0.14530998760E+03  0.12509000000E+03 0.  0.
         25    1    4    4    0    0  0.14316118954E+02  0.24922088763E+02 -0.24187189987E+02  0.13060853735E+03  0.12509000000E+03 0.  0.
         25    1    3    3    0    0  0.43337293668E+02 -0.15449553334E+02 -0.22174587503E+03  0.25871905789E+03  0.12509000000E+03 0.  0.
<mgrwt>
<rscale>  2 0.44834072E+03</rscale>
<asrwt>0</asrwt>
<pdfrwt beam="1">  1       21 0.17895971E-01 0.44834072E+03</pdfrwt>
<pdfrwt beam="2">  1       21 0.60727203E-01 0.44834072E+03</pdfrwt>
<totfact> 0.66320298E+04</totfact>
</mgrwt>
</event>
<event>
 7    0  0.4709932E-002  0.4493305E+03  0.7546771E-02  0.1027922E+00
         21   -1    0    0  502  501  0.00000000000E+00  0.00000000000E+00  0.45509352688E+02  0.45509352688E+02  0.00000000000E+00 0. -1.
         21   -1    0    0  501  502 -0.00000000000E+00 -0.00000000000E+00 -0.11091009923E+04  0.11091009923E+04  0.00000000000E+00 0. -1.
      99926    2    1    2    0    0 -0.71054273576E-14  0.00000000000E+00 -0.10635916396E+04  0.11546103450E+04  0.44933047181E+03 0.  0.
      99925    2    3    3    0    0 -0.61795402598E+02  0.78483686390E+02 -0.56937450984E+03  0.63511401173E+03  0.26306674937E+03 0.  0.
         25    1    3    3    0    0  0.61795402598E+02 -0.78483686390E+02 -0.49421712975E+03  0.51949633324E+03  0.12509000000E+03 0.  0.
         25    1    4    4    0    0 -0.69154055938E+02  0.27066807845E+02 -0.27636908971E+03  0.31231759058E+03  0.12509000000E+03 0.  0.
         25    1    4    4    0    0  0.73586533393E+01  0.51416878544E+02 -0.29300542013E+03  0.32279642115E+03  0.12509000000E+03 0.  0.
<mgrwt>
<rscale>  2 0.44933047E+03</rscale>
<asrwt>0</asrwt>
<pdfrwt beam="1">  1       21 0.66925518E-02 0.44933047E+03</pdfrwt>
<pdfrwt beam="2">  1       21 0.16310309E+00 0.44933047E+03</pdfrwt>
<totfact> 0.35156684E+04</totfact>
</mgrwt>
</event>
<event>
 7    0  0.4709932E-002  0.4493297E+03  0.7546771E-02  0.1027922E+00
         21   -1    0    0  502  501  0.00000000000E+00  0.00000000000E+00  0.29288996363E+03  0.29288996363E+03  0.00000000000E+00 0.  1.
         21   -1    0    0  501  502 -0.00000000000E+00 -0.00000000000E+00 -0.17233194772E+03  0.17233194772E+03  0.00000000000E+00 0.  1.
      99926    2    1    2    0    0  0.48849813084E-14 -0.44408920985E-15  0.12055801591E+03  0.46522191135E+03  0.44932971368E+03 0.  0.
      99925    2    3    3    0    0  0.30801106769E+01 -0.26956555667E+01 -0.35235348217E+02  0.26538239062E+03  0.26300100731E+03 0.  0.
         25    1    3    3    0    0 -0.30801106769E+01  0.26956555667E+01  0.15579336412E+03  0.19983952073E+03  0.12509000000E+03 0.  0.
         25    1    4    4    0    0 -0.33549604199E+02 -0.97766588380E+01  0.11019600480E+01  0.12988410763E+03  0.12509000000E+03 0.  0.
         25    1    4    4    0    0  0.36629714876E+02  0.70810032713E+01 -0.36337308265E+02  0.13549828298E+03  0.12509000000E+03 0.  0.
<mgrwt>
<rscale>  2 0.44932971E+03</rscale>
<asrwt>0</asrwt>
<pdfrwt beam="1">  1       21 0.43072053E-01 0.44932971E+03</pdfrwt>
<pdfrwt beam="2">  1       21 0.25342934E-01 0.44932971E+03</pdfrwt>
<totfact> 0.70930006E+04</totfact>
</mgrwt>
</event>
<event>
 7    0  0.4709932E-002  0.4538535E+03  0.7546771E-02  0.1026579E+00
         21   -1    0    0  502  501  0.00000000000E+00  0.00000000000E+00  0.12125570969E+04  0.12125570969E+04  0.00000000000E+00 0.  1.
         21   -1    0    0  501  502 -0.00000000000E+00 -0.00000000000E+00 -0.42468713922E+02  0.42468713922E+02  0.00000000000E+00 0.  1.
      99926    2    1    2    0    0  0.00000000000E+00  0.00000000000E+00  0.11700883830E+04  0.12550258108E+04  0.45385345856E+03 0.  0.
      99925    2    3    3    0    0  0.67960622527E+01 -0.11179725011E+03  0.75636023588E+03  0.80852463569E+03  0.26284304917E+03 0.  0.
         25    1    4    4    0    0  0.30759113416E+02 -0.62719612269E+02  0.46898459590E+03  0.49038141494E+03  0.12509000000E+03 0.  0.
         25    1    3    3    0    0 -0.67960622527E+01  0.11179725011E+03  0.41372814710E+03  0.44650117513E+03  0.12509000000E+03 0.  0.
         25    1    4    4    0    0 -0.23963051163E+02 -0.49077637845E+02  0.28737563998E+03  0.31814322075E+03  0.12509000000E+03 0.  0.
<mgrwt>
<rscale>  2 0.45385346E+03</rscale>
<asrwt>0</asrwt>
<pdfrwt beam="1">  1       21 0.17831720E+00 0.45385346E+03</pdfrwt>
<pdfrwt beam="2">  1       21 0.62453999E-02 0.45385346E+03</pdfrwt>
<totfact> 0.30722584E+04</totfact>
</mgrwt>
</event>
<event>
 6    0  0.4709932E-002  0.4417831E+03  0.7546771E-02  0.1030201E+00
         21   -1    0    0  502  501  0.00000000000E+00  0.00000000000E+00  0.15056054024E+04  0.15056054024E+04  0.00000000000E+00 0. -1.
         21   -1    0    0  501  502 -0.00000000000E+00 -0.00000000000E+00 -0.32407611998E+02  0.32407611998E+02  0.00000000000E+00 0. -1.
      99926    2    1    2    0    0 -0.71054273576E-14  0.00000000000E+00  0.14731977904E+04  0.15380130144E+04  0.44178309475E+03 0.  0.
         25    1    3    3    0    0  0.39324536451E+02  0.22297010566E+02  0.22894325711E+03  0.26477556330E+03  0.12509000000E+03 0.  0.
         25    1    3    3    0    0 -0.44172681210E+02  0.22943415187E+02  0.70994898597E+03  0.72260134019E+03  0.12509000000E+03 0.  0.
         25    1    3    3    0    0  0.48481447584E+01 -0.45240425753E+02  0.53430554731E+03  0.55063611089E+03  0.12509000000E+03 0.  0.
<mgrwt>
<rscale>  2 0.44178309E+03</rscale>
<asrwt>0</asrwt>
<pdfrwt beam="1">  1       21 0.22141251E+00 0.44178309E+03</pdfrwt>
<pdfrwt beam="2">  1       21 0.47658263E-02 0.44178309E+03</pdfrwt>
<totfact> 0.25368641E+04</totfact>
</mgrwt>
</event>
<event>
 7    0  0.4709932E-002  0.4561530E+03  0.7546771E-02  0.1025903E+00
         21   -1    0    0  502  501  0.00000000000E+00  0.00000000000E+00  0.31859053899E+03  0.31859053899E+03  0.00000000000E+00 0. -1.
         21   -1    0    0  501  502 -0.00000000000E+00 -0.00000000000E+00 -0.16327823358E+03  0.16327823358E+03  0.00000000000E+00 0. -1.
      99926    2    1    2    0    0  0.00000000000E+00  0.00000000000E+00  0.15531230542E+03  0.48186877257E+03  0.45615304643E+03 0.  0.
      99925    2    3    3    0    0 -0.10079912696E+03 -0.32786016596E+02  0.53062448263E+02  0.28863852580E+03  0.26317520453E+03 0.  0.
         25    1    4    4    0    0 -0.75974750430E+02 -0.10923560689E+02 -0.49356087762E+01  0.14684466356E+03  0.12509000000E+03 0.  0.
         25    1    4    4    0    0 -0.24824376535E+02 -0.21862455906E+02  0.57998057040E+02  0.14179386224E+03  0.12509000000E+03 0.  0.
         25    1    3    3    0    0  0.10079912696E+03  0.32786016596E+02  0.10224985715E+03  0.19323024677E+03  0.12509000000E+03 0.  0.
<mgrwt>
<rscale>  2 0.45615305E+03</rscale>
<asrwt>0</asrwt>
<pdfrwt beam="1">  1       21 0.46851550E-01 0.45615305E+03</pdfrwt>
<pdfrwt beam="2">  1       21 0.24011505E-01 0.45615305E+03</pdfrwt>
<totfact> 0.65958557E+04</totfact>
</mgrwt>
</event>
<event>
 7    0  0.4709932E-002  0.4508609E+03  0.7546771E-02  0.1027466E+00
         21   -1    0    0  502  501  0.00000000000E+00  0.00000000000E+00  0.40021462282E+02  0.40021462282E+02  0.00000000000E+00 0.  1.
         21   -1    0    0  501  502 -0.00000000000E+00 -0.00000000000E+00 -0.12697911091E+04  0.12697911091E+04  0.00000000000E+00 0.  1.
      99926    2    1    2    0    0  0.00000000000E+00  0.00000000000E+00 -0.12297696469E+04  0.13098125714E+04  0.45086094078E+03 0.  0.
      99925    2    3    3    0    0  0.54501735296E+02  0.74301702193E+02 -0.94730853209E+03  0.98744171115E+03  0.26297622676E+03 0.  0.
         25    1    4    4    0    0  0.53974154706E+02  0.71977786180E+01 -0.48609056034E+03  0.50487281403E+03  0.12509000000E+03 0.  0.
         25    1    3    3    0    0 -0.54501735296E+02 -0.74301702193E+02 -0.28246111477E+03  0.32237086028E+03  0.12509000000E+03 0.  0.
         25    1    4    4    0    0  0.52758059014E+00  0.67103923575E+02 -0.46121797175E+03  0.48256889712E+03  0.12509000000E+03 0.  0.
<mgrwt>
<rscale>  2 0.45086094E+03</rscale>
<asrwt>0</asrwt>
<pdfrwt beam="1">  1       21 0.58855086E-02 0.45086094E+03</pdfrwt>
<pdfrwt beam="2">  1       21 0.18673400E+00 0.45086094E+03</pdfrwt>
<totfact> 0.29778038E+04</totfact>
</mgrwt>
</event>
<event>
 7    0  0.4709932E-002  0.4477589E+03  0.7546771E-02  0.1028392E+00
         21   -1    0    0  502  501  0.00000000000E+00  0.00000000000E+00  0.39821750505E+02  0.39821750505E+02  0.00000000000E+00 0. -1.
         21   -1    0    0  501  502 -0.00000000000E+00 -0.00000000000E+00 -0.12586589184E+04  0.12586589184E+04  0.00000000000E+00 0. -1.
      99926    2    1    2    0    0  0.00000000000E+00  0.00000000000E+00 -0.12188371679E+04  0.12984806689E+04  0.44775887002E+03 0.  0.
      99925    2    3    3    0    0 -0.89744598619E+02  0.43112755737E+02 -0.87950765247E+03  0.92337424291E+03  0.26300851510E+03 0.  0.
         25    1    4    4    0    0 -0.28223604462E+02 -0.14349739614E+01 -0.31262166297E+03  0.33790300865E+03  0.12509000000E+03 0.  0.
         25    1    3    3    0    0  0.89744598619E+02 -0.43112755737E+02 -0.33932951542E+03  0.37510642599E+03  0.12509000000E+03 0.  0.
         25    1    4    4    0    0 -0.61520994157E+02  0.44547729698E+02 -0.56688598951E+03  0.58547123426E+03  0.12509000000E+03 0.  0.
<mgrwt>
<rscale>  2 0.44775887E+03</rscale>
<asrwt>0</asrwt>
<pdfrwt beam="1">  1       21 0.58561400E-02 0.44775887E+03</pdfrwt>
<pdfrwt beam="2">  1       21 0.18509689E+00 0.44775887E+03</pdfrwt>
<totfact> 0.30860517E+04</totfact>
</mgrwt>
</event>
<event>
 7    0  0.4709932E-002  0.4702603E+03  0.7546771E-02  0.1021847E+00
         21   -1    0    0  502  501  0.00000000000E+00  0.00000000000E+00  0.67132232520E+02  0.67132232520E+02  0.00000000000E+00 0. -1.
         21   -1    0    0  501  502 -0.00000000000E+00 -0.00000000000E+00 -0.82354154620E+03  0.82354154620E+03  0.00000000000E+00 0. -1.
      99926    2    1    2    0    0  0.00000000000E+00  0.00000000000E+00 -0.75640931368E+03  0.89067377872E+03  0.47026027929E+03 0.  0.
      99925    2    3    3    0    0 -0.16825437369E+02 -0.12445188813E+03 -0.43457719082E+03  0.52325740564E+03  0.26300115965E+03 0.  0.
         25    1    4    4    0    0 -0.19437385297E+02 -0.97069239104E+02 -0.19831725705E+03  0.25451422686E+03  0.12509000000E+03 0.  0.
         25    1    3    3    0    0  0.16825437369E+02  0.12445188813E+03 -0.32183212287E+03  0.36741637308E+03  0.12509000000E+03 0.  0.
         25    1    4    4    0    0  0.26119479278E+01 -0.27382649026E+02 -0.23625993377E+03  0.26874317878E+03  0.12509000000E+03 0.  0.
<mgrwt>
<rscale>  2 0.47026028E+03</rscale>
<asrwt>0</asrwt>
<pdfrwt beam="1">  1       21 0.98723881E-02 0.47026028E+03</pdfrwt>
<pdfrwt beam="2">  1       21 0.12110904E+00 0.47026028E+03</pdfrwt>
<totfact> 0.38791848E+04</totfact>
</mgrwt>
</event>
<event>
 7    0  0.4709932E-002  0.4601968E+03  0.7546771E-02  0.1024724E+00
         21   -1    0    0  502  501  0.00000000000E+00  0.00000000000E+00  0.60016734591E+02  0.60016734591E+02  0.00000000000E+00 0.  1.
         21   -1    0    0  501  502 -0.00000000000E+00 -0.00000000000E+00 -0.88217524026E+03  0.88217524026E+03  0.00000000000E+00 0.  1.
      99926    2    1    2    0    0 -0.35527136788E-14  0.00000000000E+00 -0.82215850567E+03  0.94219197485E+03  0.46019681554E+03 0.  0.
      99925    2    3    3    0    0 -0.27685959281E+02 -0.92719108259E+02 -0.37686067281E+03  0.46964460852E+03  0.26301852829E+03 0.  0.
         25    1    4    4    0    0 -0.53134129068E+02 -0.48052977051E+02 -0.21277934728E+03  0.25701144528E+03  0.12509000000E+03 0.  0.
         25    1    4    4    0    0  0.25448169787E+02 -0.44666131209E+02 -0.16408132553E+03  0.21263316324E+03  0.12509000000E+03 0.  0.
         25    1    3    3    0    0  0.27685959281E+02  0.92719108259E+02 -0.44529783286E+03  0.47254736633E+03  0.12509000000E+03 0.  0.
<mgrwt>
<rscale>  2 0.46019682E+03</rscale>
<asrwt>0</asrwt>
<pdfrwt beam="1">  1       21 0.88259908E-02 0.46019682E+03</pdfrwt>
<pdfrwt beam="2">  1       21 0.12973165E+00 0.46019682E+03</pdfrwt>
<totfact> 0.39815612E+04</totfact>
</mgrwt>
</event>
<event>
 7    0  0.4709932E-002  0.4470276E+03  0.7546771E-02  0.1028612E+00
         21   -1    0    0  502  501  0.00000000000E+00  0.00000000000E+00  0.13634643716E+03  0.13634643716E+03  0.00000000000E+00 0. -1.
         21   -1    0    0  501  502 -0.00000000000E+00 -0.00000000000E+00 -0.36640796353E+03  0.36640796353E+03  0.00000000000E+00 0. -1.
      99926    2    1    2    0    0  0.00000000000E+00  0.22204460493E-15 -0.23006152637E+03  0.50275440069E+03  0.44702760709E+03 0.  0.
      99925    2    3    3    0    0  0.47393503513E+02 -0.19661935127E+01 -0.25177814696E+03  0.36722163786E+03  0.26307695819E+03 0.  0.
         25    1    4    4    0    0  0.39605851725E+02  0.42839008346E+01 -0.17957315696E+03  0.22244325590E+03  0.12509000000E+03 0.  0.
         25    1    4    4    0    0  0.77876517876E+01 -0.62500943473E+01 -0.72204990002E+02  0.14477838195E+03  0.12509000000E+03 0.  0.
         25    1    3    3    0    0 -0.47393503513E+02  0.19661935127E+01  0.21716620593E+02  0.13553276284E+03  0.12509000000E+03 0.  0.
<mgrwt>
<rscale>  2 0.44702761E+03</rscale>
<asrwt>0</asrwt>
<pdfrwt beam="1">  1       21 0.20050947E-01 0.44702761E+03</pdfrwt>
<pdfrwt beam="2">  1       21 0.53883524E-01 0.44702761E+03</pdfrwt>
<totfact> 0.69363798E+04</totfact>
</mgrwt>
</event>
<event>
 7    0  0.4709932E-002  0.4578102E+03  0.7546771E-02  0.1025418E+00
         21   -1    0    0  502  501  0.00000000000E+00  0.00000000000E+00  0.83758635356E+03  0.83758635356E+03  0.00000000000E+00 0. -1.
         21   -1    0    0  501  502 -0.00000000000E+00 -0.00000000000E+00 -0.62557792898E+02  0.62557792898E+02  0.00000000000E+00 0. -1.
      99926    2    1    2    0    0  0.00000000000E+00  0.00000000000E+00  0.77502856066E+03  0.90014414646E+03  0.45781023859E+03 0.  0.
      99925    2    3    3    0    0 -0.80355945754E+02  0.11558913524E+02  0.64893705298E+03  0.70485650499E+03  0.26289295807E+03 0.  0.
         25    1    3    3    0    0  0.80355945754E+02 -0.11558913524E+02  0.12609150768E+03  0.19528764147E+03  0.12509000000E+03 0.  0.
         25    1    4    4    0    0 -0.20267423875E+02  0.27149708004E+01  0.40139084522E+03  0.42092785399E+03  0.12509000000E+03 0.  0.
         25    1    4    4    0    0 -0.60088521879E+02  0.88439427233E+01  0.24754620775E+03  0.28392865100E+03  0.12509000000E+03 0.  0.
<mgrwt>
<rscale>  2 0.45781024E+03</rscale>
<asrwt>0</asrwt>
<pdfrwt beam="1">  1       21 0.12317446E+00 0.45781024E+03</pdfrwt>
<pdfrwt beam="2">  1       21 0.91996759E-02 0.45781024E+03</pdfrwt>
<totfact> 0.42289271E+04</totfact>
</mgrwt>
</event>
<event>
 7    0  0.4709932E-002  0.4585916E+03  0.7546771E-02  0.1025190E+00
         21   -1    0    0  502  501  0.00000000000E+00  0.00000000000E+00  0.74991287562E+02  0.74991287562E+02  0.00000000000E+00 0. -1.
         21   -1    0    0  501  502 -0.00000000000E+00 -0.00000000000E+00 -0.70110230368E+03  0.70110230368E+03  0.00000000000E+00 0. -1.
      99926    2    1    2    0    0  0.00000000000E+00  0.00000000000E+00 -0.62611101611E+03  0.77609359124E+03  0.45859160248E+03 0.  0.
      99925    2    3    3    0    0 -0.86040437752E+02 -0.71825092903E+02 -0.44795999476E+03  0.53125263182E+03  0.26267737057E+03 0.  0.
         25    1    4    4    0    0 -0.52745662701E+02 -0.56501868367E+02 -0.29976896143E+03  0.33389145602E+03  0.12509000000E+03 0.  0.
         25    1    4    4    0    0 -0.33294775051E+02 -0.15323224536E+02 -0.14819103333E+03  0.19736117581E+03  0.12509000000E+03 0.  0.
         25    1    3    3    0    0  0.86040437752E+02  0.71825092903E+02 -0.17815102135E+03  0.24484095942E+03  0.12509000000E+03 0.  0.
<mgrwt>
<rscale>  2 0.45859160E+03</rscale>
<asrwt>0</asrwt>
<pdfrwt beam="1">  1       21 0.11028131E-01 0.45859160E+03</pdfrwt>
<pdfrwt beam="2">  1       21 0.10310328E+00 0.45859160E+03</pdfrwt>
<totfact> 0.47587058E+04</totfact>
</mgrwt>
</event>
<event>
 7    0  0.4709932E-002  0.4566357E+03  0.7546771E-02  0.1025761E+00
         21   -1    0    0  502  501  0.00000000000E+00  0.00000000000E+00  0.24696350412E+03  0.24696350412E+03  0.00000000000E+00 0. -1.
         21   -1    0    0  501  502 -0.00000000000E+00 -0.00000000000E+00 -0.21107994623E+03  0.21107994623E+03  0.00000000000E+00 0. -1.
      99926    2    1    2    0    0 -0.14210854715E-13 -0.35527136788E-14  0.35883557894E+02  0.45804345035E+03  0.45663571114E+03 0.  0.
      99925    2    3    3    0    0  0.92317460637E+02  0.21760674500E+02  0.87104402733E+02  0.29291585260E+03  0.26309024923E+03 0.  0.
         25    1    4    4    0    0  0.88647092117E+02  0.52963579736E+01  0.45470713285E+02  0.16000453811E+03  0.12509000000E+03 0.  0.
         25    1    3    3    0    0 -0.92317460637E+02 -0.21760674500E+02 -0.51220844839E+02  0.16512759775E+03  0.12509000000E+03 0.  0.
         25    1    4    4    0    0  0.36703685204E+01  0.16464316526E+02  0.41633689448E+02  0.13291131450E+03  0.12509000000E+03 0.  0.
<mgrwt>
<rscale>  2 0.45663571E+03</rscale>
<asrwt>0</asrwt>
<pdfrwt beam="1">  1       21 0.36318163E-01 0.45663571E+03</pdfrwt>
<pdfrwt beam="2">  1       21 0.31041168E-01 0.45663571E+03</pdfrwt>
<totfact> 0.67438994E+04</totfact>
</mgrwt>
</event>
<event>
 7    0  0.4709932E-002  0.4641397E+03  0.7546771E-02  0.1023587E+00
         21   -1    0    0  502  501  0.00000000000E+00  0.00000000000E+00  0.75355161873E+03  0.75355161873E+03  0.00000000000E+00 0.  1.
         21   -1    0    0  501  502 -0.00000000000E+00 -0.00000000000E+00 -0.71470105605E+02  0.71470105605E+02  0.00000000000E+00 0.  1.
      99926    2    1    2    0    0  0.00000000000E+00  0.00000000000E+00  0.68208151313E+03  0.82502172434E+03  0.46413969350E+03 0.  0.
      99925    2    3    3    0    0 -0.60701655038E+02  0.99425572059E+02  0.36422252585E+03  0.46411733368E+03  0.26301466837E+03 0.  0.
         25    1    3    3    0    0  0.60701655038E+02 -0.99425572059E+02  0.31785898728E+03  0.36090439066E+03  0.12509000000E+03 0.  0.
         25    1    4    4    0    0 -0.61362454417E+01  0.18804128368E+02  0.19248840847E+03  0.23041385429E+03  0.12509000000E+03 0.  0.
         25    1    4    4    0    0 -0.54565409597E+02  0.80621443690E+02  0.17173411737E+03  0.23370347939E+03  0.12509000000E+03 0.  0.
<mgrwt>
<rscale>  2 0.46413969E+03</rscale>
<asrwt>0</asrwt>
<pdfrwt beam="1">  1       21 0.11081641E+00 0.46413969E+03</pdfrwt>
<pdfrwt beam="2">  1       21 0.10510310E-01 0.46413969E+03</pdfrwt>
<totfact> 0.43382430E+04</totfact>
</mgrwt>
</event>
<event>
 7    0  0.4709932E-002  0.4562797E+03  0.7546771E-02  0.1025866E+00
         21   -1    0    0  502  501  0.00000000000E+00  0.00000000000E+00  0.61788525299E+02  0.61788525299E+02  0.00000000000E+00 0. -1.
         21   -1    0    0  501  502 -0.00000000000E+00 -0.00000000000E+00 -0.84235366755E+03  0.84235366755E+03  0.00000000000E+00 0. -1.
      99926    2    1    2    0    0  0.00000000000E+00 -0.71054273576E-14 -0.78056514225E+03  0.90414219285E+03  0.45627969886E+03 0.  0.
      99925    2    3    3    0    0  0.10521805363E+03 -0.31094875183E+02 -0.42713064258E+03  0.51350017805E+03  0.26306675379E+03 0.  0.
         25    1    3    3    0    0 -0.10521805363E+03  0.31094875183E+02 -0.35343449967E+03  0.39064201480E+03  0.12509000000E+03 0.  0.
         25    1    4    4    0    0  0.36571235967E+02  0.23040056511E+02 -0.20406268676E+03  0.24322291778E+03  0.12509000000E+03 0.  0.
         25    1    4    4    0    0  0.68646817663E+02 -0.54134931693E+02 -0.22306795582E+03  0.27027726027E+03  0.12509000000E+03 0.  0.
<mgrwt>
<rscale>  2 0.45627970E+03</rscale>
<asrwt>0</asrwt>
<pdfrwt beam="1">  1       21 0.90865480E-02 0.45627970E+03</pdfrwt>
<pdfrwt beam="2">  1       21 0.12387554E+00 0.45627970E+03</pdfrwt>
<totfact> 0.42626420E+04</totfact>
</mgrwt>
</event>
<event>
 7    0  0.4709932E-002  0.4487420E+03  0.7546771E-02  0.1028098E+00
         21   -1    0    0  502  501  0.00000000000E+00  0.00000000000E+00  0.37525991439E+03  0.37525991439E+03  0.00000000000E+00 0.  1.
         21   -1    0    0  501  502 -0.00000000000E+00 -0.00000000000E+00 -0.13415328502E+03  0.13415328502E+03  0.00000000000E+00 0.  1.
      99926    2    1    2    0    0  0.00000000000E+00  0.00000000000E+00  0.24110662938E+03  0.50941319941E+03  0.44874202054E+03 0.  0.
      99925    2    3    3    0    0 -0.88586784254E+02  0.60414235942E+02  0.15137316709E+03  0.32180429610E+03  0.26295754604E+03 0.  0.
         25    1    4    4    0    0 -0.55676897213E+02 -0.87818486979E+01  0.77073260160E+02  0.15736846343E+03  0.12509000000E+03 0.  0.
         25    1    4    4    0    0 -0.32909887042E+02  0.69196084640E+02  0.74299906935E+02  0.16443583267E+03  0.12509000000E+03 0.  0.
         25    1    3    3    0    0  0.88586784254E+02 -0.60414235942E+02  0.89733462281E+02  0.18760890331E+03  0.12509000000E+03 0.  0.
<mgrwt>
<rscale>  2 0.44874202E+03</rscale>
<asrwt>0</asrwt>
<pdfrwt beam="1">  1       21 0.55185281E-01 0.44874202E+03</pdfrwt>
<pdfrwt beam="2">  1       21 0.19728424E-01 0.44874202E+03</pdfrwt>
<totfact> 0.67925341E+04</totfact>
</mgrwt>
</event>
<event>
 7    0  0.4709932E-002  0.4565322E+03  0.7546771E-02  0.1025792E+00
         21   -1    0    0  502  501  0.00000000000E+00  0.00000000000E+00  0.83360699062E+02  0.83360699062E+02  0.00000000000E+00 0. -1.
         21   -1    0    0  501  502 -0.00000000000E+00 -0.00000000000E+00 -0.62505955092E+03  0.62505955092E+03  0.00000000000E+00 0. -1.
      99926    2    1    2    0    0  0.88817841970E-15  0.00000000000E+00 -0.54169885186E+03  0.70842024998E+03  0.45653215054E+03 0.  0.
      99925    2    3    3    0    0  0.44499456844E+01  0.10722317048E+03 -0.40302298888E+03  0.49302500078E+03  0.26292491613E+03 0.  0.
         25    1    4    4    0    0  0.25326884395E+02  0.46459433690E+02 -0.14178966113E+03  0.19634598584E+03  0.12509000000E+03 0.  0.
         25    1    3    3    0    0 -0.44499456844E+01 -0.10722317048E+03 -0.13867586297E+03  0.21539524920E+03  0.12509000000E+03 0.  0.
         25    1    4    4    0    0 -0.20876938711E+02  0.60763736793E+02 -0.26123332775E+03  0.29667901494E+03  0.12509000000E+03 0.  0.
<mgrwt>
<rscale>  2 0.45653215E+03</rscale>
<asrwt>0</asrwt>
<pdfrwt beam="1">  1       21 0.12258926E-01 0.45653215E+03</pdfrwt>
<pdfrwt beam="2">  1       21 0.91920524E-01 0.45653215E+03</pdfrwt>
<totfact> 0.51820651E+04</totfact>
</mgrwt>
</event>
<event>
 7    0  0.4709932E-002  0.4559828E+03  0.7546771E-02  0.1025953E+00
         21   -1    0    0  502  501  0.00000000000E+00  0.00000000000E+00  0.10318747366E+03  0.10318747366E+03  0.00000000000E+00 0.  1.
         21   -1    0    0  501  502 -0.00000000000E+00 -0.00000000000E+00 -0.50374412665E+03  0.50374412665E+03  0.00000000000E+00 0.  1.
      99926    2    1    2    0    0  0.14210854715E-13  0.00000000000E+00 -0.40055665298E+03  0.60693160031E+03  0.45598282337E+03 0.  0.
      99925    2    3    3    0    0 -0.10616788294E+03 -0.31591208122E+02 -0.21555774587E+03  0.35764917507E+03  0.26301742686E+03 0.  0.
         25    1    4    4    0    0 -0.46487879885E+02 -0.10517783461E+02 -0.55593661011E+02  0.14494795614E+03  0.12509000000E+03 0.  0.
         25    1    4    4    0    0 -0.59680003056E+02 -0.21073424661E+02 -0.15996408486E+03  0.21270121893E+03  0.12509000000E+03 0.  0.
         25    1    3    3    0    0  0.10616788294E+03  0.31591208122E+02 -0.18499890712E+03  0.24928242524E+03  0.12509000000E+03 0.  0.
<mgrwt>
<rscale>  2 0.45598282E+03</rscale>
<asrwt>0</asrwt>
<pdfrwt beam="1">  1       21 0.15174628E-01 0.45598282E+03</pdfrwt>
<pdfrwt beam="2">  1       21 0.74080020E-01 0.45598282E+03</pdfrwt>
<totfact> 0.57803531E+04</totfact>
</mgrwt>
</event>
<event>
 7    0  0.4709932E-002  0.4534451E+03  0.7546771E-02  0.1026700E+00
         21   -1    0    0  502  501  0.00000000000E+00  0.00000000000E+00  0.36090241699E+03  0.36090241699E+03  0.00000000000E+00 0.  1.
         21   -1    0    0  501  502 -0.00000000000E+00 -0.00000000000E+00 -0.14242940974E+03  0.14242940974E+03  0.00000000000E+00 0.  1.
      99926    2    1    2    0    0  0.00000000000E+00  0.00000000000E+00  0.21847300726E+03  0.50333182673E+03  0.45344511564E+03 0.  0.
      99925    2    3    3    0    0  0.86497963203E+02 -0.12638283888E+02  0.21503441489E+03  0.35068532046E+03  0.26286645001E+03 0.  0.
         25    1    4    4    0    0  0.10386560627E+01 -0.46703858779E+01  0.91790027339E+02  0.15522824656E+03  0.12509000000E+03 0.  0.
         25    1    4    4    0    0  0.85459307141E+02 -0.79678980104E+01  0.12324438756E+03  0.19545707391E+03  0.12509000000E+03 0.  0.
         25    1    3    3    0    0 -0.86497963203E+02  0.12638283888E+02  0.34385923651E+01  0.15264650627E+03  0.12509000000E+03 0.  0.
<mgrwt>
<rscale>  2 0.45344512E+03</rscale>
<asrwt>0</asrwt>
<pdfrwt beam="1">  1       21 0.53073884E-01 0.45344512E+03</pdfrwt>
<pdfrwt beam="2">  1       21 0.20945502E-01 0.45344512E+03</pdfrwt>
<totfact> 0.65846133E+04</totfact>
</mgrwt>
</event>
<event>
 7    0  0.4709932E-002  0.4403614E+03  0.7546771E-02  0.1030636E+00
         21   -1    0    0  502  501  0.00000000000E+00  0.00000000000E+00  0.43262863757E+03  0.43262863757E+03  0.00000000000E+00 0. -1.
         21   -1    0    0  501  502 -0.00000000000E+00 -0.00000000000E+00 -0.11205808359E+03  0.11205808359E+03  0.00000000000E+00 0. -1.
      99926    2    1    2    0    0 -0.14210854715E-13  0.00000000000E+00  0.32057055399E+03  0.54468672116E+03  0.44036137901E+03 0.  0.
      99925    2    3    3    0    0 -0.86681738237E+02 -0.45241328551E+02  0.22230358193E+03  0.35796658981E+03  0.26298421118E+03 0.  0.
         25    1    3    3    0    0  0.86681738237E+02  0.45241328551E+02  0.98266972060E+02  0.18672013135E+03  0.12509000000E+03 0.  0.
         25    1    4    4    0    0 -0.78226741248E+02 -0.15321151005E+01  0.10941243089E+03  0.18368548815E+03  0.12509000000E+03 0.  0.
         25    1    4    4    0    0 -0.84549969885E+01 -0.43709213451E+02  0.11289115104E+03  0.17428110166E+03  0.12509000000E+03 0.  0.
<mgrwt>
<rscale>  2 0.44036138E+03</rscale>
<asrwt>0</asrwt>
<pdfrwt beam="1">  1       21 0.63621858E-01 0.44036138E+03</pdfrwt>
<pdfrwt beam="2">  1       21 0.16479130E-01 0.44036138E+03</pdfrwt>
<totfact> 0.69979447E+04</totfact>
</mgrwt>
</event>
<event>
 7    0  0.4709932E-002  0.4549201E+03  0.7546771E-02  0.1026265E+00
         21   -1    0    0  502  501  0.00000000000E+00  0.00000000000E+00  0.11488602577E+04  0.11488602577E+04  0.00000000000E+00 0. -1.
         21   -1    0    0  501  502 -0.00000000000E+00 -0.00000000000E+00 -0.45034253968E+02  0.45034253968E+02  0.00000000000E+00 0. -1.
      99926    2    1    2    0    0  0.00000000000E+00  0.00000000000E+00  0.11038260037E+04  0.11938945117E+04  0.45492005724E+03 0.  0.
      99925    2    3    3    0    0 -0.18179215477E+02  0.61158773371E+02  0.45001724618E+03  0.52517612626E+03  0.26310371015E+03 0.  0.
         25    1    4    4    0    0 -0.18569225659E+02  0.67479718127E+02  0.27280857631E+03  0.30817260733E+03  0.12509000000E+03 0.  0.
         25    1    4    4    0    0  0.39001018231E+00 -0.63209447556E+01  0.17720866988E+03  0.21700351894E+03  0.12509000000E+03 0.  0.
         25    1    3    3    0    0  0.18179215477E+02 -0.61158773371E+02  0.65380875756E+03  0.66871838542E+03  0.12509000000E+03 0.  0.
<mgrwt>
<rscale>  2 0.45492006E+03</rscale>
<asrwt>0</asrwt>
<pdfrwt beam="1">  1       21 0.16895002E+00 0.45492006E+03</pdfrwt>
<pdfrwt beam="2">  1       21 0.66226851E-02 0.45492006E+03</pdfrwt>
<totfact> 0.32370210E+04</totfact>
</mgrwt>
</event>
<event>
 7    0  0.4709932E-002  0.4537992E+03  0.7546771E-02  0.1026595E+00
         21   -1    0    0  502  501  0.00000000000E+00  0.00000000000E+00  0.22048752825E+03  0.22048752825E+03  0.00000000000E+00 0.  1.
         21   -1    0    0  501  502 -0.00000000000E+00 -0.00000000000E+00 -0.23349817772E+03  0.23349817772E+03  0.00000000000E+00 0.  1.
      99926    2    1    2    0    0  0.00000000000E+00  0.00000000000E+00 -0.13010649468E+02  0.45398570598E+03  0.45379923340E+03 0.  0.
      99925    2    3    3    0    0 -0.29127811695E+02  0.10450156461E+03  0.19497370495E+02  0.28524541475E+03  0.26308894458E+03 0.  0.
         25    1    4    4    0    0 -0.26439985804E+02  0.80990812393E+02 -0.18286135790E+02  0.15244827124E+03  0.12509000000E+03 0.  0.
         25    1    4    4    0    0 -0.26878258903E+01  0.23510752220E+02  0.37783506286E+02  0.13279714351E+03  0.12509000000E+03 0.  0.
         25    1    3    3    0    0  0.29127811695E+02 -0.10450156461E+03 -0.32508019963E+02  0.16874029122E+03  0.12509000000E+03 0.  0.
<mgrwt>
<rscale>  2 0.45379923E+03</rscale>
<asrwt>0</asrwt>
<pdfrwt beam="1">  1       21 0.32424637E-01 0.45379923E+03</pdfrwt>
<pdfrwt beam="2">  1       21 0.34337967E-01 0.45379923E+03</pdfrwt>
<totfact> 0.69281571E+04</totfact>
</mgrwt>
</event>
<event>
 7    0  0.4709932E-002  0.4580350E+03  0.7546771E-02  0.1025353E+00
         21   -1    0    0  502  501  0.00000000000E+00  0.00000000000E+00  0.13225693350E+03  0.13225693350E+03  0.00000000000E+00 0.  1.
         21   -1    0    0  501  502 -0.00000000000E+00 -0.00000000000E+00 -0.39656908628E+03  0.39656908628E+03  0.00000000000E+00 0.  1.
      99926    2    1    2    0    0  0.00000000000E+00  0.00000000000E+00 -0.26431215277E+03  0.52882601978E+03  0.45803498239E+03 0.  0.
      99925    2    3    3    0    0  0.25078101789E+02  0.74049930860E+02 -0.26497887318E+03  0.38131244052E+03  0.26281756146E+03 0.  0.
         25    1    4    4    0    0  0.28220931897E+02  0.75976412640E+02 -0.14305038798E+03  0.20659079814E+03  0.12509000000E+03 0.  0.
         25    1    3    3    0    0 -0.25078101789E+02 -0.74049930860E+02  0.66672040335E+00  0.14751357926E+03  0.12509000000E+03 0.  0.
         25    1    4    4    0    0 -0.31428301076E+01 -0.19264817800E+01 -0.12192848520E+03  0.17472164238E+03  0.12509000000E+03 0.  0.
<mgrwt>
<rscale>  2 0.45803498E+03</rscale>
<asrwt>0</asrwt>
<pdfrwt beam="1">  1       21 0.19449549E-01 0.45803498E+03</pdfrwt>
<pdfrwt beam="2">  1       21 0.58318983E-01 0.45803498E+03</pdfrwt>
<totfact> 0.61786224E+04</totfact>
</mgrwt>
</event>
<event>
 7    0  0.4709932E-002  0.4665923E+03  0.7546771E-02  0.1022886E+00
         21   -1    0    0  502  501  0.00000000000E+00  0.00000000000E+00  0.11332876397E+03  0.11332876397E+03  0.00000000000E+00 0.  1.
         21   -1    0    0  501  502 -0.00000000000E+00 -0.00000000000E+00 -0.48025837811E+03  0.48025837811E+03  0.00000000000E+00 0.  1.
      99926    2    1    2    0    0  0.00000000000E+00  0.00000000000E+00 -0.36692961414E+03  0.59358714208E+03  0.46659227760E+03 0.  0.
      99925    2    3    3    0    0  0.57256248372E+02 -0.10984012142E+03 -0.22977203787E+03  0.37042164502E+03  0.26281909266E+03 0.  0.
         25    1    4    4    0    0  0.18358968944E+02 -0.96039347544E+02 -0.12207914150E+03  0.20027838852E+03  0.12509000000E+03 0.  0.
         25    1    3    3    0    0 -0.57256248372E+02  0.10984012142E+03 -0.13715757627E+03  0.22316549706E+03  0.12509000000E+03 0.  0.
         25    1    4    4    0    0  0.38897279428E+02 -0.13800773871E+02 -0.10769289637E+03  0.17014325651E+03  0.12509000000E+03 0.  0.
<mgrwt>
<rscale>  2 0.46659228E+03</rscale>
<asrwt>0</asrwt>
<pdfrwt beam="1">  1       21 0.16665995E-01 0.46659228E+03</pdfrwt>
<pdfrwt beam="2">  1       21 0.70626232E-01 0.46659228E+03</pdfrwt>
<totfact> 0.53958755E+04</totfact>
</mgrwt>
</event>
<event>
 7    0  0.4709932E-002  0.4339818E+03  0.7546771E-02  0.1032609E+00
         21   -1    0    0  502  501  0.00000000000E+00  0.00000000000E+00  0.41154498336E+03  0.41154498336E+03  0.00000000000E+00 0. -1.
         21   -1    0    0  501  502 -0.00000000000E+00 -0.00000000000E+00 -0.11441046004E+03  0.11441046004E+03  0.00000000000E+00 0. -1.
      99926    2    1    2    0    0  0.00000000000E+00 -0.88817841970E-15  0.29713452331E+03  0.52595544340E+03  0.43398180088E+03 0.  0.
      99925    2    3    3    0    0  0.55743205815E+02  0.75786624285E+01  0.27915657448E+03  0.38762447846E+03  0.26298213267E+03 0.  0.
         25    1    3    3    0    0 -0.55743205815E+02 -0.75786624285E+01  0.17977948835E+02  0.13833096495E+03  0.12509000000E+03 0.  0.
         25    1    4    4    0    0  0.49765777432E+02 -0.18984610077E+02  0.18063954008E+03  0.22608670806E+03  0.12509000000E+03 0.  0.
         25    1    4    4    0    0  0.59774283829E+01  0.26563272505E+02  0.98517034402E+02  0.16153777039E+03  0.12509000000E+03 0.  0.
<mgrwt>
<rscale>  2 0.43398180E+03</rscale>
<asrwt>0</asrwt>
<pdfrwt beam="1">  1       21 0.60521321E-01 0.43398180E+03</pdfrwt>
<pdfrwt beam="2">  1       21 0.16825068E-01 0.43398180E+03</pdfrwt>
<totfact> 0.75243987E+04</totfact>
</mgrwt>
</event>
<event>
 7    0  0.4709932E-002  0.4538322E+03  0.7546771E-02  0.1026585E+00
         21   -1    0    0  502  501  0.00000000000E+00  0.00000000000E+00  0.36301320222E+03  0.36301320222E+03  0.00000000000E+00 0. -1.
         21   -1    0    0  501  502 -0.00000000000E+00 -0.00000000000E+00 -0.14184307995E+03  0.14184307995E+03  0.00000000000E+00 0. -1.
      99926    2    1    2    0    0  0.35527136788E-14  0.88817841970E-15  0.22117012228E+03  0.50485628217E+03  0.45383217456E+03 0.  0.
      99925    2    3    3    0    0  0.25386298845E+02 -0.73101722366E+01  0.26050053504E+03  0.37109420887E+03  0.26296859187E+03 0.  0.
         25    1    4    4    0    0  0.44892657640E+02  0.19080554037E+02  0.14621716301E+03  0.19851041562E+03  0.12509000000E+03 0.  0.
         25    1    4    4    0    0 -0.19506358795E+02 -0.26390726273E+02  0.11428337203E+03  0.17258379324E+03  0.12509000000E+03 0.  0.
         25    1    3    3    0    0 -0.25386298845E+02  0.73101722366E+01 -0.39330412767E+02  0.13376207331E+03  0.12509000000E+03 0.  0.
<mgrwt>
<rscale>  2 0.45383217E+03</rscale>
<asrwt>0</asrwt>
<pdfrwt beam="1">  1       21 0.53384294E-01 0.45383217E+03</pdfrwt>
<pdfrwt beam="2">  1       21 0.20859277E-01 0.45383217E+03</pdfrwt>
<totfact> 0.65536191E+04</totfact>
</mgrwt>
</event>
<event>
 7    0  0.4709932E-002  0.4465118E+03  0.7546771E-02  0.1028767E+00
         21   -1    0    0  502  501  0.00000000000E+00  0.00000000000E+00  0.15990214746E+04  0.15990214746E+04  0.00000000000E+00 0. -1.
         21   -1    0    0  501  502 -0.00000000000E+00 -0.00000000000E+00 -0.31171068377E+02  0.31171068377E+02  0.00000000000E+00 0. -1.
      99926    2    1    2    0    0  0.00000000000E+00 -0.71054273576E-14  0.15678504062E+04  0.16301925430E+04  0.44651184854E+03 0.  0.
      99925    2    3    3    0    0 -0.78606577233E+02  0.50776622564E+02  0.11677879961E+04  0.12007106464E+04  0.26309692737E+03 0.  0.
         25    1    3    3    0    0  0.78606577233E+02 -0.50776622564E+02  0.40006241014E+03  0.42948189658E+03  0.12509000000E+03 0.  0.
         25    1    4    4    0    0 -0.45415056392E+02 -0.15119717708E+02  0.57461502766E+03  0.59001785678E+03  0.12509000000E+03 0.  0.
         25    1    4    4    0    0 -0.33191520841E+02  0.65896340272E+02  0.59317296843E+03  0.61069278962E+03  0.12509000000E+03 0.  0.
<mgrwt>
<rscale>  2 0.44651185E+03</rscale>
<asrwt>0</asrwt>
<pdfrwt beam="1">  1       21 0.23515016E+00 0.44651185E+03</pdfrwt>
<pdfrwt beam="2">  1       21 0.45839817E-02 0.44651185E+03</pdfrwt>
<totfact> 0.22182399E+04</totfact>
</mgrwt>
</event>
<event>
 7    0  0.4709932E-002  0.4537654E+03  0.7546771E-02  0.1026605E+00
         21   -1    0    0  502  501  0.00000000000E+00  0.00000000000E+00  0.23975731682E+03  0.23975731682E+03  0.00000000000E+00 0.  1.
         21   -1    0    0  501  502 -0.00000000000E+00 -0.00000000000E+00 -0.21469941055E+03  0.21469941055E+03  0.00000000000E+00 0.  1.
      99926    2    1    2    0    0  0.00000000000E+00  0.00000000000E+00  0.25057906271E+02  0.45445672736E+03  0.45376537812E+03 0.  0.
      99925    2    3    3    0    0 -0.90045718667E+02  0.30993873888E+02 -0.43345927328E+02  0.28300573081E+03  0.26295346087E+03 0.  0.
         25    1    3    3    0    0  0.90045718667E+02 -0.30993873888E+02  0.68403833599E+02  0.17145099656E+03  0.12509000000E+03 0.  0.
         25    1    4    4    0    0 -0.57313230863E+02  0.42464165706E+02  0.60255932953E+01  0.14412434796E+03  0.12509000000E+03 0.  0.
         25    1    4    4    0    0 -0.32732487804E+02 -0.11470291818E+02 -0.49371520623E+02  0.13888138284E+03  0.12509000000E+03 0.  0.
<mgrwt>
<rscale>  2 0.45376538E+03</rscale>
<asrwt>0</asrwt>
<pdfrwt beam="1">  1       21 0.35258429E-01 0.45376538E+03</pdfrwt>
<pdfrwt beam="2">  1       21 0.31573443E-01 0.45376538E+03</pdfrwt>
<totfact> 0.69265454E+04</totfact>
</mgrwt>
</event>
<event>
 7    0  0.4709932E-002  0.4541380E+03  0.7546771E-02  0.1026495E+00
         21   -1    0    0  502  501  0.00000000000E+00  0.00000000000E+00  0.89102758264E+02  0.89102758264E+02  0.00000000000E+00 0. -1.
         21   -1    0    0  501  502 -0.00000000000E+00 -0.00000000000E+00 -0.57866156900E+03  0.57866156900E+03  0.00000000000E+00 0. -1.
      99926    2    1    2    0    0  0.00000000000E+00  0.00000000000E+00 -0.48955881073E+03  0.66776432726E+03  0.45413804905E+03 0.  0.
      99925    2    3    3    0    0 -0.56567870449E+02  0.89187177269E+02 -0.25347496669E+03  0.38047115631E+03  0.26335235995E+03 0.  0.
         25    1    4    4    0    0 -0.28254274603E+02  0.72855555598E+02 -0.92880260279E+02  0.17429999101E+03  0.12509000000E+03 0.  0.
         25    1    4    4    0    0 -0.28313595846E+02  0.16331621671E+02 -0.16059470641E+03  0.20617116531E+03  0.12509000000E+03 0.  0.
         25    1    3    3    0    0  0.56567870449E+02 -0.89187177269E+02 -0.23608384404E+03  0.28729317095E+03  0.12509000000E+03 0.  0.
<mgrwt>
<rscale>  2 0.45413805E+03</rscale>
<asrwt>0</asrwt>
<pdfrwt beam="1">  1       21 0.13103346E-01 0.45413805E+03</pdfrwt>
<pdfrwt beam="2">  1       21 0.85097292E-01 0.45413805E+03</pdfrwt>
<totfact> 0.55061482E+04</totfact>
</mgrwt>
</event>
<event>
 7    0  0.4709932E-002  0.4427301E+03  0.7546771E-02  0.1029912E+00
         21   -1    0    0  502  501  0.00000000000E+00  0.00000000000E+00  0.12645554471E+03  0.12645554471E+03  0.00000000000E+00 0.  1.
         21   -1    0    0  501  502 -0.00000000000E+00 -0.00000000000E+00 -0.38750756563E+03  0.38750756563E+03  0.00000000000E+00 0.  1.
      99926    2    1    2    0    0 -0.35527136788E-14 -0.35527136788E-14 -0.26105202092E+03  0.51396311034E+03  0.44273007709E+03 0.  0.
      99925    2    3    3    0    0  0.27443175170E+02 -0.27792394925E+02 -0.57738404481E+02  0.27207578159E+03  0.26299422522E+03 0.  0.
         25    1    4    4    0    0 -0.32022938777E+01 -0.40547452147E+02 -0.55151136165E+02  0.14263066459E+03  0.12509000000E+03 0.  0.
         25    1    4    4    0    0  0.30645469048E+02  0.12755057222E+02 -0.25872683161E+01  0.12944511700E+03  0.12509000000E+03 0.  0.
         25    1    3    3    0    0 -0.27443175170E+02  0.27792394925E+02 -0.20331361644E+03  0.24188732875E+03  0.12509000000E+03 0.  0.
<mgrwt>
<rscale>  2 0.44273008E+03</rscale>
<asrwt>0</asrwt>
<pdfrwt beam="1">  1       21 0.18596404E-01 0.44273008E+03</pdfrwt>
<pdfrwt beam="2">  1       21 0.56986407E-01 0.44273008E+03</pdfrwt>
<totfact> 0.70959503E+04</totfact>
</mgrwt>
</event>
<event>
 7    0  0.4709932E-002  0.4522927E+03  0.7546771E-02  0.1027041E+00
         21   -1    0    0  502  501  0.00000000000E+00  0.00000000000E+00  0.67130087080E+02  0.67130087080E+02  0.00000000000E+00 0.  1.
         21   -1    0    0  501  502 -0.00000000000E+00 -0.00000000000E+00 -0.76183694033E+03  0.76183694033E+03  0.00000000000E+00 0.  1.
      99926    2    1    2    0    0  0.00000000000E+00  0.00000000000E+00 -0.69470685325E+03  0.82896702741E+03  0.45229273770E+03 0.  0.
      99925    2    3    3    0    0  0.16014124223E+02  0.70176771765E+02 -0.59221320251E+03  0.65195378493E+03  0.26295632525E+03 0.  0.
         25    1    4    4    0    0  0.51752992793E+01 -0.56436825890E+01 -0.25088117969E+03  0.28044163261E+03  0.12509000000E+03 0.  0.
         25    1    4    4    0    0  0.10838824944E+02  0.75820454354E+02 -0.34133202282E+03  0.37151215232E+03  0.12509000000E+03 0.  0.
         25    1    3    3    0    0 -0.16014124223E+02 -0.70176771765E+02 -0.10249365074E+03  0.17701324248E+03  0.12509000000E+03 0.  0.
<mgrwt>
<rscale>  2 0.45229274E+03</rscale>
<asrwt>0</asrwt>
<pdfrwt beam="1">  1       21 0.98720722E-02 0.45229274E+03</pdfrwt>
<pdfrwt beam="2">  1       21 0.11203484E+00 0.45229274E+03</pdfrwt>
<totfact> 0.47394142E+04</totfact>
</mgrwt>
</event>
<event>
 7    0  0.4709932E-002  0.4569432E+03  0.7546771E-02  0.1025672E+00
         21   -1    0    0  502  501  0.00000000000E+00  0.00000000000E+00  0.69971368653E+02  0.69971368653E+02  0.00000000000E+00 0. -1.
         21   -1    0    0  501  502 -0.00000000000E+00 -0.00000000000E+00 -0.74600890016E+03  0.74600890016E+03  0.00000000000E+00 0. -1.
      99926    2    1    2    0    0  0.00000000000E+00 -0.35527136788E-14 -0.67603753151E+03  0.81598026881E+03  0.45694316396E+03 0.  0.
      99925    2    3    3    0    0  0.39208042896E+02 -0.26432721838E+02 -0.61185263294E+03  0.66764561772E+03  0.26296590466E+03 0.  0.
         25    1    4    4    0    0  0.59017620856E+02 -0.52672885877E+01 -0.29994779147E+03  0.33034377489E+03  0.12509000000E+03 0.  0.
         25    1    3    3    0    0 -0.39208042896E+02  0.26432721838E+02 -0.64184898569E+02  0.14833465110E+03  0.12509000000E+03 0.  0.
         25    1    4    4    0    0 -0.19809577960E+02 -0.21165433250E+02 -0.31190484147E+03  0.33730184283E+03  0.12509000000E+03 0.  0.
<mgrwt>
<rscale>  2 0.45694316E+03</rscale>
<asrwt>0</asrwt>
<pdfrwt beam="1">  1       21 0.10289907E-01 0.45694316E+03</pdfrwt>
<pdfrwt beam="2">  1       21 0.10970719E+00 0.45694316E+03</pdfrwt>
<totfact> 0.46291668E+04</totfact>
</mgrwt>
</event>
<event>
 7    0  0.4709932E-002  0.4565647E+03  0.7546771E-02  0.1025782E+00
         21   -1    0    0  502  501  0.00000000000E+00  0.00000000000E+00  0.56932166223E+03  0.56932166223E+03  0.00000000000E+00 0.  1.
         21   -1    0    0  501  502 -0.00000000000E+00 -0.00000000000E+00 -0.91534950981E+02  0.91534950981E+02  0.00000000000E+00 0.  1.
      99926    2    1    2    0    0  0.71054273576E-14  0.14210854715E-13  0.47778671124E+03  0.66085661321E+03  0.45656469616E+03 0.  0.
      99925    2    3    3    0    0 -0.33071446962E+02 -0.88926546018E+02  0.20674482586E+03  0.34762688454E+03  0.26286760288E+03 0.  0.
         25    1    4    4    0    0 -0.50059700368E+02 -0.56676700222E+02  0.13455263776E+03  0.19867093994E+03  0.12509000000E+03 0.  0.
         25    1    4    4    0    0  0.16988253405E+02 -0.32249845796E+02  0.72192188105E+02  0.14895594460E+03  0.12509000000E+03 0.  0.
         25    1    3    3    0    0  0.33071446962E+02  0.88926546018E+02  0.27104188538E+03  0.31322972867E+03  0.12509000000E+03 0.  0.
<mgrwt>
<rscale>  2 0.45656470E+03</rscale>
<asrwt>0</asrwt>
<pdfrwt beam="1">  1       21 0.83723772E-01 0.45656470E+03</pdfrwt>
<pdfrwt beam="2">  1       21 0.13461023E-01 0.45656470E+03</pdfrwt>
<totfact> 0.54405437E+04</totfact>
</mgrwt>
</event>
<event>
 7    0  0.4709932E-002  0.4535341E+03  0.7546771E-02  0.1026673E+00
         21   -1    0    0  502  501  0.00000000000E+00  0.00000000000E+00  0.15207578111E+03  0.15207578111E+03  0.00000000000E+00 0. -1.
         21   -1    0    0  501  502 -0.00000000000E+00 -0.00000000000E+00 -0.33814251469E+03  0.33814251469E+03  0.00000000000E+00 0. -1.
      99926    2    1    2    0    0  0.00000000000E+00 -0.14210854715E-13 -0.18606673359E+03  0.49021829580E+03  0.45353406508E+03 0.  0.
      99925    2    3    3    0    0  0.60437850233E+02 -0.70890263860E+02 -0.18399657621E+03  0.33423766591E+03  0.26302455019E+03 0.  0.
         25    1    4    4    0    0  0.44616887519E+02  0.19647992035E+01 -0.76944451316E+02  0.15350076148E+03  0.12509000000E+03 0.  0.
         25    1    4    4    0    0  0.15820962713E+02 -0.72855063063E+02 -0.10705212490E+03  0.18073690442E+03  0.12509000000E+03 0.  0.
         25    1    3    3    0    0 -0.60437850233E+02  0.70890263860E+02 -0.20701573726E+01  0.15598062989E+03  0.12509000000E+03 0.  0.
<mgrwt>
<rscale>  2 0.45353407E+03</rscale>
<asrwt>0</asrwt>
<pdfrwt beam="1">  1       21 0.22364086E-01 0.45353407E+03</pdfrwt>
<pdfrwt beam="2">  1       21 0.49726840E-01 0.45353407E+03</pdfrwt>
<totfact> 0.66736747E+04</totfact>
</mgrwt>
</event>
<event>
 7    0  0.4709932E-002  0.4557267E+03  0.7546771E-02  0.1026028E+00
         21   -1    0    0  502  501  0.00000000000E+00  0.00000000000E+00  0.70749699813E+03  0.70749699813E+03  0.00000000000E+00 0.  1.
         21   -1    0    0  501  502 -0.00000000000E+00 -0.00000000000E+00 -0.73387894966E+02  0.73387894966E+02  0.00000000000E+00 0.  1.
      99926    2    1    2    0    0  0.71054273576E-14  0.71054273576E-14  0.63410910316E+03  0.78088489309E+03  0.45572674000E+03 0.  0.
      99925    2    3    3    0    0  0.51574723599E+02  0.38572623739E+02  0.23789516339E+03  0.36043181178E+03  0.26300034746E+03 0.  0.
         25    1    4    4    0    0  0.26004443224E+01  0.42087366028E+02  0.85625524163E+02  0.15734467636E+03  0.12509000000E+03 0.  0.
         25    1    3    3    0    0 -0.51574723599E+02 -0.38572623739E+02  0.39621393977E+03  0.42045308131E+03  0.12509000000E+03 0.  0.
         25    1    4    4    0    0  0.48974279276E+02 -0.35147422893E+01  0.15226963923E+03  0.20308713542E+03  0.12509000000E+03 0.  0.
<mgrwt>
<rscale>  2 0.45572674E+03</rscale>
<asrwt>0</asrwt>
<pdfrwt beam="1">  1       21 0.10404367E+00 0.45572674E+03</pdfrwt>
<pdfrwt beam="2">  1       21 0.10792338E-01 0.45572674E+03</pdfrwt>
<totfact> 0.48426493E+04</totfact>
</mgrwt>
</event>
<event>
 7    0  0.4709932E-002  0.5146451E+03  0.7546771E-02  0.1010025E+00
         21   -1    0    0  502  501  0.00000000000E+00  0.00000000000E+00  0.26508568672E+03  0.26508568672E+03  0.00000000000E+00 0.  1.
         21   -1    0    0  501  502 -0.00000000000E+00 -0.00000000000E+00 -0.24978678379E+03  0.24978678379E+03  0.00000000000E+00 0.  1.
      99926    2    1    2    0    0 -0.71054273576E-14  0.00000000000E+00  0.15298902936E+02  0.51487247051E+03  0.51464512478E+03 0.  0.
      99925    2    3    3    0    0  0.37286713462E+02  0.12194467444E+03 -0.92119005158E+02  0.30643322827E+03  0.26297264050E+03 0.  0.
         25    1    3    3    0    0 -0.37286713462E+02 -0.12194467444E+03  0.10741790809E+03  0.20843924224E+03  0.12509000000E+03 0.  0.
         25    1    4    4    0    0  0.19014561070E+02  0.23786992602E+02 -0.64570932925E+02  0.14402877500E+03  0.12509000000E+03 0.  0.
         25    1    4    4    0    0  0.18272152392E+02  0.98157681842E+02 -0.27548072233E+02  0.16240445327E+03  0.12509000000E+03 0.  0.
<mgrwt>
<rscale>  2 0.51464512E+03</rscale>
<asrwt>0</asrwt>
<pdfrwt beam="1">  1       21 0.38983189E-01 0.51464512E+03</pdfrwt>
<pdfrwt beam="2">  1       21 0.36733350E-01 0.51464512E+03</pdfrwt>
<totfact> 0.41062288E+04</totfact>
</mgrwt>
</event>
<event>
 7    0  0.4709932E-002  0.4596329E+03  0.7546771E-02  0.1024888E+00
         21   -1    0    0  502  501  0.00000000000E+00  0.00000000000E+00  0.55644615640E+03  0.55644615640E+03  0.00000000000E+00 0.  1.
         21   -1    0    0  501  502 -0.00000000000E+00 -0.00000000000E+00 -0.94915930962E+02  0.94915930962E+02  0.00000000000E+00 0.  1.
      99926    2    1    2    0    0  0.00000000000E+00 -0.26645352591E-14  0.46153022544E+03  0.65136208736E+03  0.45963291860E+03 0.  0.
      99925    2    3    3    0    0  0.11717077261E+03  0.76565673465E+00  0.27627385104E+03  0.39897942445E+03  0.26292159322E+03 0.  0.
         25    1    4    4    0    0  0.44558975090E+02  0.38065586137E+02  0.12303422454E+03  0.18498491727E+03  0.12509000000E+03 0.  0.
         25    1    4    4    0    0  0.72611797521E+02 -0.37299929402E+02  0.15323962651E+03  0.21399450718E+03  0.12509000000E+03 0.  0.
         25    1    3    3    0    0 -0.11717077261E+03 -0.76565673465E+00  0.18525637440E+03  0.25238266291E+03  0.12509000000E+03 0.  0.
<mgrwt>
<rscale>  2 0.45963292E+03</rscale>
<asrwt>0</asrwt>
<pdfrwt beam="1">  1       21 0.81830315E-01 0.45963292E+03</pdfrwt>
<pdfrwt beam="2">  1       21 0.13958225E-01 0.45963292E+03</pdfrwt>
<totfact> 0.53635727E+04</totfact>
</mgrwt>
</event>
<event>
 7    0  0.4709932E-002  0.4440428E+03  0.7546771E-02  0.1029514E+00
         21   -1    0    0  502  501  0.00000000000E+00  0.00000000000E+00  0.11833966800E+03  0.11833966800E+03  0.00000000000E+00 0.  1.
         21   -1    0    0  501  502 -0.00000000000E+00 -0.00000000000E+00 -0.41654244694E+03  0.41654244694E+03  0.00000000000E+00 0.  1.
      99926    2    1    2    0    0 -0.17763568394E-14 -0.14210854715E-13 -0.29820277894E+03  0.53488211494E+03  0.44404276766E+03 0.  0.
      99925    2    3    3    0    0  0.12828109153E+02  0.79452032187E+02 -0.26608570726E+03  0.38271050064E+03  0.26303714166E+03 0.  0.
         25    1    3    3    0    0 -0.12828109153E+02 -0.79452032187E+02 -0.32117071686E+02  0.15217161429E+03  0.12509000000E+03 0.  0.
         25    1    4    4    0    0  0.37273315001E+02  0.52586285090E+02 -0.10514789581E+03  0.17566503774E+03  0.12509000000E+03 0.  0.
         25    1    4    4    0    0 -0.24445205848E+02  0.26865747097E+02 -0.16093781145E+03  0.20704546291E+03  0.12509000000E+03 0.  0.
<mgrwt>
<rscale>  2 0.44404277E+03</rscale>
<asrwt>0</asrwt>
<pdfrwt beam="1">  1       21 0.17402892E-01 0.44404277E+03</pdfrwt>
<pdfrwt beam="2">  1       21 0.61256243E-01 0.44404277E+03</pdfrwt>
<totfact> 0.68638466E+04</totfact>
</mgrwt>
</event>
<event>
 7    0  0.4709932E-002  0.4543944E+03  0.7546771E-02  0.1026420E+00
         21   -1    0    0  502  501  0.00000000000E+00  0.00000000000E+00  0.38986118776E+03  0.38986118776E+03  0.00000000000E+00 0. -1.
         21   -1    0    0  501  502 -0.00000000000E+00 -0.00000000000E+00 -0.13240242053E+03  0.13240242053E+03  0.00000000000E+00 0. -1.
      99926    2    1    2    0    0 -0.35527136788E-14 -0.35527136788E-14  0.25745876722E+03  0.52226360829E+03  0.45439438787E+03 0.  0.
      99925    2    3    3    0    0  0.28264698025E+02  0.13584055302E+02  0.37739328163E+02  0.26749398743E+03  0.26295504693E+03 0.  0.
         25    1    4    4    0    0 -0.57529481453E+01 -0.27741108131E+02  0.26522760517E+02  0.13097186880E+03  0.12509000000E+03 0.  0.
         25    1    3    3    0    0 -0.28264698025E+02 -0.13584055302E+02  0.21971943906E+03  0.25476962086E+03  0.12509000000E+03 0.  0.
         25    1    4    4    0    0  0.34017646170E+02  0.41325163433E+02  0.11216567646E+02  0.13652211862E+03  0.12509000000E+03 0.  0.
<mgrwt>
<rscale>  2 0.45439439E+03</rscale>
<asrwt>0</asrwt>
<pdfrwt beam="1">  1       21 0.57332527E-01 0.45439439E+03</pdfrwt>
<pdfrwt beam="2">  1       21 0.19470944E-01 0.45439439E+03</pdfrwt>
<totfact> 0.64040133E+04</totfact>
</mgrwt>
</event>
<event>
 7    0  0.4709932E-002  0.4483246E+03  0.7546771E-02  0.1028223E+00
         21   -1    0    0  502  501  0.00000000000E+00  0.00000000000E+00  0.37720459062E+03  0.37720459062E+03  0.00000000000E+00 0. -1.
         21   -1    0    0  501  502 -0.00000000000E+00 -0.00000000000E+00 -0.13321350080E+03  0.13321350080E+03  0.00000000000E+00 0. -1.
      99926    2    1    2    0    0  0.00000000000E+00  0.00000000000E+00  0.24399108981E+03  0.51041809142E+03  0.44832463254E+03 0.  0.
      99925    2    3    3    0    0  0.54826650231E+02 -0.91658366141E+02  0.15237784720E+03  0.32214246373E+03  0.26296300303E+03 0.  0.
         25    1    4    4    0    0  0.33389857021E+02 -0.62571718407E+02  0.12167434453E+03  0.18836734513E+03  0.12509000000E+03 0.  0.
         25    1    3    3    0    0 -0.54826650231E+02  0.91658366141E+02  0.91613242611E+02  0.18827562769E+03  0.12509000000E+03 0.  0.
         25    1    4    4    0    0  0.21436793210E+02 -0.29086647734E+02  0.30703502675E+02  0.13377511860E+03  0.12509000000E+03 0.  0.
<mgrwt>
<rscale>  2 0.44832463E+03</rscale>
<asrwt>0</asrwt>
<pdfrwt beam="1">  1       21 0.55471263E-01 0.44832463E+03</pdfrwt>
<pdfrwt beam="2">  1       21 0.19590221E-01 0.44832463E+03</pdfrwt>
<totfact> 0.68080196E+04</totfact>
</mgrwt>
</event>
<event>
 7    0  0.4709932E-002  0.4525573E+03  0.7546771E-02  0.1026962E+00
         21   -1    0    0  502  501  0.00000000000E+00  0.00000000000E+00  0.45999704728E+03  0.45999704728E+03  0.00000000000E+00 0.  1.
         21   -1    0    0  501  502 -0.00000000000E+00 -0.00000000000E+00 -0.11130946329E+03  0.11130946329E+03  0.00000000000E+00 0.  1.
      99926    2    1    2    0    0  0.28421709430E-13  0.00000000000E+00  0.34868758399E+03  0.57130651057E+03  0.45255728675E+03 0.  0.
      99925    2    3    3    0    0  0.97770118239E+02 -0.46245037325E+02  0.25076027815E+03  0.37912205536E+03  0.26297379387E+03 0.  0.
         25    1    4    4    0    0  0.11965880931E+02 -0.32291303370E+02  0.91659882391E+02  0.15885513124E+03  0.12509000000E+03 0.  0.
         25    1    4    4    0    0  0.85804237308E+02 -0.13953733956E+02  0.15910039576E+03  0.22026692412E+03  0.12509000000E+03 0.  0.
         25    1    3    3    0    0 -0.97770118239E+02  0.46245037325E+02  0.97927305842E+02  0.19218445522E+03  0.12509000000E+03 0.  0.
<mgrwt>
<rscale>  2 0.45255729E+03</rscale>
<asrwt>0</asrwt>
<pdfrwt beam="1">  1       21 0.67646624E-01 0.45255729E+03</pdfrwt>
<pdfrwt beam="2">  1       21 0.16369039E-01 0.45255729E+03</pdfrwt>
<totfact> 0.61662584E+04</totfact>
</mgrwt>
</event>
<event>
 7    0  0.4709932E-002  0.4399495E+03  0.7546771E-02  0.1030762E+00
         21   -1    0    0  502  501  0.00000000000E+00  0.00000000000E+00  0.17914487830E+03  0.17914487830E+03  0.00000000000E+00 0. -1.
         21   -1    0    0  501  502 -0.00000000000E+00 -0.00000000000E+00 -0.27011034074E+03  0.27011034074E+03  0.00000000000E+00 0. -1.
      99926    2    1    2    0    0  0.00000000000E+00  0.00000000000E+00 -0.90965462446E+02  0.44925521904E+03  0.43994947037E+03 0.  0.
      99925    2    3    3    0    0 -0.37183666396E+02  0.59620385732E+02 -0.12830567127E+03  0.30100200748E+03  0.26306396140E+03 0.  0.
         25    1    4    4    0    0  0.82226391738E+01 -0.16396163842E+01 -0.50886988415E+02  0.13530444866E+03  0.12509000000E+03 0.  0.
         25    1    4    4    0    0 -0.45406305570E+02  0.61260002116E+02 -0.77418682858E+02  0.16569755882E+03  0.12509000000E+03 0.  0.
         25    1    3    3    0    0  0.37183666396E+02 -0.59620385732E+02  0.37340208827E+02  0.14825321156E+03  0.12509000000E+03 0.  0.
<mgrwt>
<rscale>  2 0.43994947E+03</rscale>
<asrwt>0</asrwt>
<pdfrwt beam="1">  1       21 0.26344835E-01 0.43994947E+03</pdfrwt>
<pdfrwt beam="2">  1       21 0.39722109E-01 0.43994947E+03</pdfrwt>
<totfact> 0.77903145E+04</totfact>
</mgrwt>
</event>
<event>
 7    0  0.4709932E-002  0.4413626E+03  0.7546771E-02  0.1030330E+00
         21   -1    0    0  502  501  0.00000000000E+00  0.00000000000E+00  0.31187682519E+03  0.31187682519E+03  0.00000000000E+00 0. -1.
         21   -1    0    0  501  502 -0.00000000000E+00 -0.00000000000E+00 -0.15615215121E+03  0.15615215121E+03  0.00000000000E+00 0. -1.
      99926    2    1    2    0    0  0.00000000000E+00  0.00000000000E+00  0.15572467398E+03  0.46802897640E+03  0.44136260451E+03 0.  0.
      99925    2    3    3    0    0  0.42087812350E+02 -0.90417652224E+02  0.93158076905E+02  0.29624765334E+03  0.26294012443E+03 0.  0.
         25    1    3    3    0    0 -0.42087812350E+02  0.90417652224E+02  0.62566597079E+02  0.17178132306E+03  0.12509000000E+03 0.  0.
         25    1    4    4    0    0  0.52393561275E+01 -0.31942408653E+02  0.81702464623E+02  0.15287435739E+03  0.12509000000E+03 0.  0.
         25    1    4    4    0    0  0.36848456222E+02 -0.58475243571E+02  0.11455612282E+02  0.14337329594E+03  0.12509000000E+03 0.  0.
<mgrwt>
<rscale>  2 0.44136260E+03</rscale>
<asrwt>0</asrwt>
<pdfrwt beam="1">  1       21 0.45864239E-01 0.44136260E+03</pdfrwt>
<pdfrwt beam="2">  1       21 0.22963552E-01 0.44136260E+03</pdfrwt>
<totfact> 0.75420332E+04</totfact>
</mgrwt>
</event>
<event>
 7    0  0.4709932E-002  0.4501673E+03  0.7546771E-02  0.1027672E+00
         21   -1    0    0  502  501  0.00000000000E+00  0.00000000000E+00  0.15349134232E+03  0.15349134232E+03  0.00000000000E+00 0. -1.
         21   -1    0    0  501  502 -0.00000000000E+00 -0.00000000000E+00 -0.33006850408E+03  0.33006850408E+03  0.00000000000E+00 0. -1.
      99926    2    1    2    0    0 -0.35527136788E-14  0.00000000000E+00 -0.17657716176E+03  0.48355984640E+03  0.45016733665E+03 0.  0.
      99925    2    3    3    0    0 -0.27743008402E+02 -0.62784261114E+02 -0.20201038298E+03  0.33862574137E+03  0.26295942638E+03 0.  0.
         25    1    3    3    0    0  0.27743008402E+02  0.62784261114E+02  0.25433221223E+02  0.14493410503E+03  0.12509000000E+03 0.  0.
         25    1    4    4    0    0  0.13295933637E+02 -0.35241804654E+02 -0.62431701272E+02  0.14478947500E+03  0.12509000000E+03 0.  0.
         25    1    4    4    0    0 -0.41038942039E+02 -0.27542456459E+02 -0.13957868171E+03  0.19383626637E+03  0.12509000000E+03 0.  0.
<mgrwt>
<rscale>  2 0.45016734E+03</rscale>
<asrwt>0</asrwt>
<pdfrwt beam="1">  1       21 0.22572256E-01 0.45016734E+03</pdfrwt>
<pdfrwt beam="2">  1       21 0.48539486E-01 0.45016734E+03</pdfrwt>
<totfact> 0.69053252E+04</totfact>
</mgrwt>
</event>
<event>
 7    0  0.4709932E-002  0.4533608E+03  0.7546771E-02  0.1026725E+00
         21   -1    0    0  502  501  0.00000000000E+00  0.00000000000E+00  0.53032106934E+02  0.53032106934E+02  0.00000000000E+00 0. -1.
         21   -1    0    0  501  502 -0.00000000000E+00 -0.00000000000E+00 -0.96892258901E+03  0.96892258901E+03  0.00000000000E+00 0. -1.
      99926    2    1    2    0    0  0.14210854715E-13  0.00000000000E+00 -0.91589048208E+03  0.10219546959E+04  0.45336081150E+03 0.  0.
      99925    2    3    3    0    0  0.10152429898E+03  0.33418585266E+01 -0.67764354403E+03  0.73433087411E+03  0.26405057962E+03 0.  0.
         25    1    4    4    0    0  0.27782942833E+02  0.19599169613E+01 -0.41348757052E+03  0.43289168652E+03  0.12509000000E+03 0.  0.
         25    1    4    4    0    0  0.73741356145E+02  0.13819415653E+01 -0.26415597351E+03  0.30143918759E+03  0.12509000000E+03 0.  0.
         25    1    3    3    0    0 -0.10152429898E+03 -0.33418585266E+01 -0.23824693805E+03  0.28762382184E+03  0.12509000000E+03 0.  0.
<mgrwt>
<rscale>  2 0.45336081E+03</rscale>
<asrwt>0</asrwt>
<pdfrwt beam="1">  1       21 0.77988394E-02 0.45336081E+03</pdfrwt>
<pdfrwt beam="2">  1       21 0.14248861E+00 0.45336081E+03</pdfrwt>
<totfact> 0.38817995E+04</totfact>
</mgrwt>
</event>
<event>
 7    0  0.4709932E-002  0.4973723E+03  0.7546771E-02  0.1014467E+00
         21   -1    0    0  502  501  0.00000000000E+00  0.00000000000E+00  0.15969221129E+03  0.15969221129E+03  0.00000000000E+00 0. -1.
         21   -1    0    0  501  502 -0.00000000000E+00 -0.00000000000E+00 -0.38727493938E+03  0.38727493938E+03  0.00000000000E+00 0. -1.
      99926    2    1    2    0    0 -0.24424906542E-14  0.00000000000E+00 -0.22758272809E+03  0.54696715068E+03  0.49737226078E+03 0.  0.
      99925    2    3    3    0    0  0.14143721924E+01 -0.13840332291E+03 -0.20033902408E+03  0.35842747912E+03  0.26301530941E+03 0.  0.
         25    1    4    4    0    0  0.36189727140E+02 -0.68356022917E+02 -0.12374453718E+03  0.19220421640E+03  0.12509000000E+03 0.  0.
         25    1    3    3    0    0 -0.14143721924E+01  0.13840332291E+03 -0.27243704013E+02  0.18853967155E+03  0.12509000000E+03 0.  0.
         25    1    4    4    0    0 -0.34775354948E+02 -0.70047299992E+02 -0.76594486894E+02  0.16622326272E+03  0.12509000000E+03 0.  0.
<mgrwt>
<rscale>  2 0.49737226E+03</rscale>
<asrwt>0</asrwt>
<pdfrwt beam="1">  1       21 0.23484150E-01 0.49737226E+03</pdfrwt>
<pdfrwt beam="2">  1       21 0.56952195E-01 0.49737226E+03</pdfrwt>
<totfact> 0.44962006E+04</totfact>
</mgrwt>
</event>
<event>
 7    0  0.4709932E-002  0.4545052E+03  0.7546771E-02  0.1026387E+00
         21   -1    0    0  502  501  0.00000000000E+00  0.00000000000E+00  0.10326570150E+04  0.10326570150E+04  0.00000000000E+00 0. -1.
         21   -1    0    0  501  502 -0.00000000000E+00 -0.00000000000E+00 -0.50010539778E+02  0.50010539778E+02  0.00000000000E+00 0. -1.
      99926    2    1    2    0    0 -0.14210854715E-13  0.00000000000E+00  0.98264647521E+03  0.10826675548E+04  0.45450515828E+03 0.  0.
      99925    2    3    3    0    0 -0.86785169838E+02 -0.19569329696E+02  0.78345689039E+03  0.83119464734E+03  0.26299281035E+03 0.  0.
         25    1    4    4    0    0 -0.73680232436E+02  0.11311723054E+02  0.35863344848E+03  0.38706871509E+03  0.12509000000E+03 0.  0.
         25    1    4    4    0    0 -0.13104937403E+02 -0.30881052750E+02  0.42482344191E+03  0.44412593225E+03  0.12509000000E+03 0.  0.
         25    1    3    3    0    0  0.86785169838E+02  0.19569329696E+02  0.19918958482E+03  0.25147290743E+03  0.12509000000E+03 0.  0.
<mgrwt>
<rscale>  2 0.45450516E+03</rscale>
<asrwt>0</asrwt>
<pdfrwt beam="1">  1       21 0.15186131E+00 0.45450516E+03</pdfrwt>
<pdfrwt beam="2">  1       21 0.73544918E-02 0.45450516E+03</pdfrwt>
<totfact> 0.36240785E+04</totfact>
</mgrwt>
</event>
<event>
 7    0  0.4709932E-002  0.4577263E+03  0.7546771E-02  0.1025443E+00
         21   -1    0    0  502  501  0.00000000000E+00  0.00000000000E+00  0.12306927827E+03  0.12306927827E+03  0.00000000000E+00 0.  1.
         21   -1    0    0  501  502 -0.00000000000E+00 -0.00000000000E+00 -0.42560050240E+03  0.42560050240E+03  0.00000000000E+00 0.  1.
      99926    2    1    2    0    0  0.71054273576E-14  0.00000000000E+00 -0.30253122413E+03  0.54866978067E+03  0.45772632287E+03 0.  0.
      99925    2    3    3    0    0  0.37731927814E+02  0.10922822873E+03 -0.18319899162E+03  0.34072220520E+03  0.26301187475E+03 0.  0.
         25    1    4    4    0    0  0.48192895386E+01  0.38292485794E+02 -0.12835458911E+03  0.18333561756E+03  0.12509000000E+03 0.  0.
         25    1    4    4    0    0  0.32912638275E+02  0.70935742932E+02 -0.54844402515E+02  0.15738658765E+03  0.12509000000E+03 0.  0.
         25    1    3    3    0    0 -0.37731927814E+02 -0.10922822873E+03 -0.11933223251E+03  0.20794757547E+03  0.12509000000E+03 0.  0.
<mgrwt>
<rscale>  2 0.45772632E+03</rscale>
<asrwt>0</asrwt>
<pdfrwt beam="1">  1       21 0.18098424E-01 0.45772632E+03</pdfrwt>
<pdfrwt beam="2">  1       21 0.62588308E-01 0.45772632E+03</pdfrwt>
<totfact> 0.60635883E+04</totfact>
</mgrwt>
</event>
<event>
 7    0  0.4709932E-002  0.4575856E+03  0.7546771E-02  0.1025484E+00
         21   -1    0    0  502  501  0.00000000000E+00  0.00000000000E+00  0.94754881192E+03  0.94754881192E+03  0.00000000000E+00 0.  1.
         21   -1    0    0  501  502 -0.00000000000E+00 -0.00000000000E+00 -0.55243749527E+02  0.55243749527E+02  0.00000000000E+00 0.  1.
      99926    2    1    2    0    0  0.35527136788E-14  0.00000000000E+00  0.89230506240E+03  0.10027925615E+04  0.45758561704E+03 0.  0.
      99925    2    3    3    0    0 -0.23199516575E+02 -0.67734975551E+02  0.76005967438E+03  0.80718429160E+03  0.26216316962E+03 0.  0.
         25    1    3    3    0    0  0.23199516575E+02  0.67734975551E+02  0.13224538801E+03  0.19560826985E+03  0.12509000000E+03 0.  0.
         25    1    4    4    0    0 -0.37406086262E+02 -0.37699226134E+02  0.30154741696E+03  0.33075489371E+03  0.12509000000E+03 0.  0.
         25    1    4    4    0    0  0.14206569688E+02 -0.30035749417E+02  0.45851225743E+03  0.47642939789E+03  0.12509000000E+03 0.  0.
<mgrwt>
<rscale>  2 0.45758562E+03</rscale>
<asrwt>0</asrwt>
<pdfrwt beam="1">  1       21 0.13934540E+00 0.45758562E+03</pdfrwt>
<pdfrwt beam="2">  1       21 0.81240814E-02 0.45758562E+03</pdfrwt>
<totfact> 0.38279538E+04</totfact>
</mgrwt>
</event>
<event>
 7    0  0.4709932E-002  0.4430726E+03  0.7546771E-02  0.1029808E+00
         21   -1    0    0  502  501  0.00000000000E+00  0.00000000000E+00  0.25550920049E+03  0.25550920049E+03  0.00000000000E+00 0. -1.
         21   -1    0    0  501  502 -0.00000000000E+00 -0.00000000000E+00 -0.19208050513E+03  0.19208050513E+03  0.00000000000E+00 0. -1.
      99926    2    1    2    0    0 -0.35527136788E-14 -0.35527136788E-14  0.63428695367E+02  0.44758970562E+03  0.44307261841E+03 0.  0.
      99925    2    3    3    0    0 -0.22727274193E+02  0.22724797738E+02  0.13740712271E+03  0.29874998902E+03  0.26332089386E+03 0.  0.
         25    1    3    3    0    0  0.22727274193E+02 -0.22724797738E+02 -0.73978427347E+02  0.14883971660E+03  0.12509000000E+03 0.  0.
         25    1    4    4    0    0 -0.42516057293E+02  0.26989330941E+02  0.95666758223E+02  0.16533504118E+03  0.12509000000E+03 0.  0.
         25    1    4    4    0    0  0.19788783100E+02 -0.42645332026E+01  0.41740364491E+02  0.13341494784E+03  0.12509000000E+03 0.  0.
<mgrwt>
<rscale>  2 0.44307262E+03</rscale>
<asrwt>0</asrwt>
<pdfrwt beam="1">  1       21 0.37574882E-01 0.44307262E+03</pdfrwt>
<pdfrwt beam="2">  1       21 0.28247133E-01 0.44307262E+03</pdfrwt>
<totfact> 0.76077448E+04</totfact>
</mgrwt>
</event>
<event>
 7    0  0.4709932E-002  0.4549345E+03  0.7546771E-02  0.1026261E+00
         21   -1    0    0  502  501  0.00000000000E+00  0.00000000000E+00  0.25443706618E+03  0.25443706618E+03  0.00000000000E+00 0.  1.
         21   -1    0    0  501  502 -0.00000000000E+00 -0.00000000000E+00 -0.20335615914E+03  0.20335615914E+03  0.00000000000E+00 0.  1.
      99926    2    1    2    0    0  0.00000000000E+00 -0.14210854715E-13  0.51080907043E+02  0.45779322533E+03  0.45493447670E+03 0.  0.
      99925    2    3    3    0    0 -0.22025691448E+02 -0.11042486070E+03  0.42237809968E+02  0.28925691051E+03  0.26307175208E+03 0.  0.
         25    1    3    3    0    0  0.22025691448E+02  0.11042486070E+03  0.88430970752E+01  0.16853631481E+03  0.12509000000E+03 0.  0.
         25    1    4    4    0    0 -0.31366953281E+02 -0.85562000022E+02  0.45570860450E+02  0.16133490951E+03  0.12509000000E+03 0.  0.
         25    1    4    4    0    0  0.93412618329E+01 -0.24862860681E+02 -0.33330504823E+01  0.12792200100E+03  0.12509000000E+03 0.  0.
<mgrwt>
<rscale>  2 0.45493448E+03</rscale>
<asrwt>0</asrwt>
<pdfrwt beam="1">  1       21 0.37417216E-01 0.45493448E+03</pdfrwt>
<pdfrwt beam="2">  1       21 0.29905317E-01 0.45493448E+03</pdfrwt>
<totfact> 0.68377318E+04</totfact>
</mgrwt>
</event>
<event>
 7    0  0.4709932E-002  0.4546428E+03  0.7546771E-02  0.1026346E+00
         21   -1    0    0  502  501  0.00000000000E+00  0.00000000000E+00  0.89191833667E+03  0.89191833667E+03  0.00000000000E+00 0.  1.
         21   -1    0    0  501  502 -0.00000000000E+00 -0.00000000000E+00 -0.57936952333E+02  0.57936952333E+02  0.00000000000E+00 0.  1.
      99926    2    1    2    0    0  0.14210854715E-13  0.71054273576E-14  0.83398138434E+03  0.94985528900E+03  0.45464284953E+03 0.  0.
      99925    2    3    3    0    0  0.98233751905E+02  0.33930542843E+02  0.43291164017E+03  0.51706711964E+03  0.26295392424E+03 0.  0.
         25    1    4    4    0    0  0.66269192796E+01  0.13771582042E+02  0.18002028378E+03  0.21974617904E+03  0.12509000000E+03 0.  0.
         25    1    4    4    0    0  0.91606832625E+02  0.20158960801E+02  0.25289135639E+03  0.29732094061E+03  0.12509000000E+03 0.  0.
         25    1    3    3    0    0 -0.98233751905E+02 -0.33930542843E+02  0.40106974417E+03  0.43278816936E+03  0.12509000000E+03 0.  0.
<mgrwt>
<rscale>  2 0.45464285E+03</rscale>
<asrwt>0</asrwt>
<pdfrwt beam="1">  1       21 0.13116445E+00 0.45464285E+03</pdfrwt>
<pdfrwt beam="2">  1       21 0.85201406E-02 0.45464285E+03</pdfrwt>
<totfact> 0.41261786E+04</totfact>
</mgrwt>
</event>
<event>
 7    0  0.4709932E-002  0.4466276E+03  0.7546771E-02  0.1028733E+00
         21   -1    0    0  502  501  0.00000000000E+00  0.00000000000E+00  0.70069515931E+02  0.70069515931E+02  0.00000000000E+00 0. -1.
         21   -1    0    0  501  502 -0.00000000000E+00 -0.00000000000E+00 -0.71170817171E+03  0.71170817171E+03  0.00000000000E+00 0. -1.
      99926    2    1    2    0    0  0.00000000000E+00 -0.14210854715E-13 -0.64163865578E+03  0.78177768764E+03  0.44662757226E+03 0.  0.
      99925    2    3    3    0    0  0.15640179102E+02  0.97110432148E+02 -0.34650326102E+03  0.44647564385E+03  0.26381989958E+03 0.  0.
         25    1    4    4    0    0  0.17516707713E+02  0.65689253567E+01 -0.14102909851E+03  0.18943785407E+03  0.12509000000E+03 0.  0.
         25    1    4    4    0    0 -0.18765286107E+01  0.90541506791E+02 -0.20547416251E+03  0.25703778977E+03  0.12509000000E+03 0.  0.
         25    1    3    3    0    0 -0.15640179102E+02 -0.97110432148E+02 -0.29513539475E+03  0.33530204379E+03  0.12509000000E+03 0.  0.
<mgrwt>
<rscale>  2 0.44662757E+03</rscale>
<asrwt>0</asrwt>
<pdfrwt beam="1">  1       21 0.10304341E-01 0.44662757E+03</pdfrwt>
<pdfrwt beam="2">  1       21 0.10466297E+00 0.44662757E+03</pdfrwt>
<totfact> 0.51992350E+04</totfact>
</mgrwt>
</event>
<event>
 7    0  0.4709932E-002  0.4600748E+03  0.7546771E-02  0.1024760E+00
         21   -1    0    0  502  501  0.00000000000E+00  0.00000000000E+00  0.56098820287E+02  0.56098820287E+02  0.00000000000E+00 0.  1.
         21   -1    0    0  501  502 -0.00000000000E+00 -0.00000000000E+00 -0.94328539042E+03  0.94328539042E+03  0.00000000000E+00 0.  1.
      99926    2    1    2    0    0 -0.14210854715E-13  0.00000000000E+00 -0.88718657013E+03  0.99938421070E+03  0.46007476608E+03 0.  0.
      99925    2    3    3    0    0  0.78340783538E+02 -0.76846671196E+02 -0.64897220710E+03  0.70880499587E+03  0.26305305044E+03 0.  0.
         25    1    4    4    0    0  0.19470233321E+02 -0.72644361279E+00 -0.31197695812E+03  0.33668493908E+03  0.12509000000E+03 0.  0.
         25    1    3    3    0    0 -0.78340783538E+02  0.76846671196E+02 -0.23821436303E+03  0.29057921483E+03  0.12509000000E+03 0.  0.
         25    1    4    4    0    0  0.58870550216E+02 -0.76120227583E+02 -0.33699524898E+03  0.37212005679E+03  0.12509000000E+03 0.  0.
<mgrwt>
<rscale>  2 0.46007477E+03</rscale>
<asrwt>0</asrwt>
<pdfrwt beam="1">  1       21 0.82498273E-02 0.46007477E+03</pdfrwt>
<pdfrwt beam="2">  1       21 0.13871843E+00 0.46007477E+03</pdfrwt>
<totfact> 0.37675261E+04</totfact>
</mgrwt>
</event>
<event>
 7    0  0.4709932E-002  0.4561603E+03  0.7546771E-02  0.1025901E+00
         21   -1    0    0  502  501  0.00000000000E+00  0.00000000000E+00  0.25482404858E+03  0.25482404858E+03  0.00000000000E+00 0. -1.
         21   -1    0    0  501  502 -0.00000000000E+00 -0.00000000000E+00 -0.20414300032E+03  0.20414300032E+03  0.00000000000E+00 0. -1.
      99926    2    1    2    0    0  0.14210854715E-13 -0.71054273576E-14  0.50681048259E+02  0.45896704890E+03  0.45616026057E+03 0.  0.
      99925    2    3    3    0    0  0.85827097562E+02 -0.30499760721E+02  0.10125943505E+03  0.29617206313E+03  0.26299789298E+03 0.  0.
         25    1    4    4    0    0  0.53509119353E+02 -0.53311667594E+02  0.65873981406E+02  0.16028801977E+03  0.12509000000E+03 0.  0.
         25    1    3    3    0    0 -0.85827097562E+02  0.30499760721E+02 -0.50578386790E+02  0.16279498577E+03  0.12509000000E+03 0.  0.
         25    1    4    4    0    0  0.32317978209E+02  0.22811906873E+02  0.35385453643E+02  0.13588404336E+03  0.12509000000E+03 0.  0.
<mgrwt>
<rscale>  2 0.45616026E+03</rscale>
<asrwt>0</asrwt>
<pdfrwt beam="1">  1       21 0.37474125E-01 0.45616026E+03</pdfrwt>
<pdfrwt beam="2">  1       21 0.30021029E-01 0.45616026E+03</pdfrwt>
<totfact> 0.67627872E+04</totfact>
</mgrwt>
</event>
<event>
 7    0  0.4709932E-002  0.4551782E+03  0.7546771E-02  0.1026189E+00
         21   -1    0    0  502  501  0.00000000000E+00  0.00000000000E+00  0.13918690773E+03  0.13918690773E+03  0.00000000000E+00 0. -1.
         21   -1    0    0  501  502 -0.00000000000E+00 -0.00000000000E+00 -0.37213839761E+03  0.37213839761E+03  0.00000000000E+00 0. -1.
      99926    2    1    2    0    0 -0.17763568394E-14 -0.71054273576E-14 -0.23295148988E+03  0.51132530534E+03  0.45517817528E+03 0.  0.
      99925    2    3    3    0    0 -0.44795159994E+01 -0.39846193575E+02 -0.27535757505E+02  0.26749971929E+03  0.26304010469E+03 0.  0.
         25    1    4    4    0    0  0.59094586839E+01 -0.18301312079E+02 -0.53704212090E+02  0.13748276336E+03  0.12509000000E+03 0.  0.
         25    1    4    4    0    0 -0.10388974683E+02 -0.21544881496E+02  0.26168454585E+02  0.13001695593E+03  0.12509000000E+03 0.  0.
         25    1    3    3    0    0  0.44795159994E+01  0.39846193575E+02 -0.20541573238E+03  0.24382558605E+03  0.12509000000E+03 0.  0.
<mgrwt>
<rscale>  2 0.45517818E+03</rscale>
<asrwt>0</asrwt>
<pdfrwt beam="1">  1       21 0.20468663E-01 0.45517818E+03</pdfrwt>
<pdfrwt beam="2">  1       21 0.54726235E-01 0.45517818E+03</pdfrwt>
<totfact> 0.64391027E+04</totfact>
</mgrwt>
</event>
<event>
 7    0  0.4709932E-002  0.4488844E+03  0.7546771E-02  0.1028055E+00
         21   -1    0    0  502  501  0.00000000000E+00  0.00000000000E+00  0.37705190159E+03  0.37705190159E+03  0.00000000000E+00 0.  1.
         21   -1    0    0  501  502 -0.00000000000E+00 -0.00000000000E+00 -0.13360042629E+03  0.13360042629E+03  0.00000000000E+00 0.  1.
      99926    2    1    2    0    0  0.33306690739E-15 -0.35527136788E-14  0.24345147530E+03  0.51065232788E+03  0.44888437169E+03 0.  0.
      99925    2    3    3    0    0 -0.60807606078E+00  0.30896701926E+02  0.27097409072E+03  0.37889505709E+03  0.26302001920E+03 0.  0.
         25    1    4    4    0    0 -0.25737988869E+02  0.44249720900E+02  0.11964875548E+03  0.18050987413E+03  0.12509000000E+03 0.  0.
         25    1    4    4    0    0  0.25129912809E+02 -0.13353018975E+02  0.15132533523E+03  0.19838518296E+03  0.12509000000E+03 0.  0.
         25    1    3    3    0    0  0.60807606078E+00 -0.30896701926E+02 -0.27522615417E+02  0.13175727079E+03  0.12509000000E+03 0.  0.
<mgrwt>
<rscale>  2 0.44888437E+03</rscale>
<asrwt>0</asrwt>
<pdfrwt beam="1">  1       21 0.55448809E-01 0.44888437E+03</pdfrwt>
<pdfrwt beam="2">  1       21 0.19647122E-01 0.44888437E+03</pdfrwt>
<totfact> 0.67757595E+04</totfact>
</mgrwt>
</event>
<event>
 7    0  0.4709932E-002  0.4590402E+03  0.7546771E-02  0.1025060E+00
         21   -1    0    0  502  501  0.00000000000E+00  0.00000000000E+00  0.81129925781E+03  0.81129925781E+03  0.00000000000E+00 0.  1.
         21   -1    0    0  501  502 -0.00000000000E+00 -0.00000000000E+00 -0.64932239834E+02  0.64932239834E+02  0.00000000000E+00 0.  1.
      99926    2    1    2    0    0  0.00000000000E+00  0.00000000000E+00  0.74636701797E+03  0.87623149764E+03  0.45904020732E+03 0.  0.
      99925    2    3    3    0    0  0.92089946622E+02  0.87513131564E+01  0.33193288447E+03  0.43355746083E+03  0.26312637325E+03 0.  0.
         25    1    4    4    0    0  0.58536250789E+02 -0.33455919533E+02  0.15532327210E+03  0.21051987594E+03  0.12509000000E+03 0.  0.
         25    1    4    4    0    0  0.33553695833E+02  0.42207232690E+02  0.17660961237E+03  0.22303758489E+03  0.12509000000E+03 0.  0.
         25    1    3    3    0    0 -0.92089946622E+02 -0.87513131564E+01  0.41443413350E+03  0.44267403681E+03  0.12509000000E+03 0.  0.
<mgrwt>
<rscale>  2 0.45904021E+03</rscale>
<asrwt>0</asrwt>
<pdfrwt beam="1">  1       21 0.11930871E+00 0.45904021E+03</pdfrwt>
<pdfrwt beam="2">  1       21 0.95488593E-02 0.45904021E+03</pdfrwt>
<totfact> 0.42903481E+04</totfact>
</mgrwt>
</event>
<event>
 7    0  0.4709932E-002  0.4523472E+03  0.7546771E-02  0.1027024E+00
         21   -1    0    0  502  501  0.00000000000E+00  0.00000000000E+00  0.13356855648E+03  0.13356855648E+03  0.00000000000E+00 0. -1.
         21   -1    0    0  501  502 -0.00000000000E+00 -0.00000000000E+00 -0.38298311950E+03  0.38298311950E+03  0.00000000000E+00 0. -1.
      99926    2    1    2    0    0  0.00000000000E+00 -0.88817841970E-15 -0.24941456302E+03  0.51655167598E+03  0.45234722251E+03 0.  0.
      99925    2    3    3    0    0 -0.99579671406E+02  0.60108351116E+01 -0.21205951567E+03  0.35224967125E+03  0.26297975513E+03 0.  0.
         25    1    4    4    0    0 -0.17348152255E+02 -0.17736397325E+02 -0.75283104153E+02  0.14808981075E+03  0.12509000000E+03 0.  0.
         25    1    3    3    0    0  0.99579671406E+02 -0.60108351116E+01 -0.37355047348E+02  0.16430200473E+03  0.12509000000E+03 0.  0.
         25    1    4    4    0    0 -0.82231519151E+02  0.23747232436E+02 -0.13677641152E+03  0.20415986050E+03  0.12509000000E+03 0.  0.
<mgrwt>
<rscale>  2 0.45234722E+03</rscale>
<asrwt>0</asrwt>
<pdfrwt beam="1">  1       21 0.19642435E-01 0.45234722E+03</pdfrwt>
<pdfrwt beam="2">  1       21 0.56321046E-01 0.45234722E+03</pdfrwt>
<totfact> 0.65490434E+04</totfact>
</mgrwt>
</event>
<event>
 7    0  0.4709932E-002  0.4562990E+03  0.7546771E-02  0.1025860E+00
         21   -1    0    0  502  501  0.00000000000E+00  0.00000000000E+00  0.44821211013E+02  0.44821211013E+02  0.00000000000E+00 0.  1.
         21   -1    0    0  501  502 -0.00000000000E+00 -0.00000000000E+00 -0.11613295326E+04  0.11613295326E+04  0.00000000000E+00 0.  1.
      99926    2    1    2    0    0  0.00000000000E+00  0.00000000000E+00 -0.11165083215E+04  0.12061507436E+04  0.45629900738E+03 0.  0.
      99925    2    3    3    0    0 -0.83309939975E+02  0.61985083280E+02 -0.82874235085E+03  0.87563681249E+03  0.26295103470E+03 0.  0.
         25    1    4    4    0    0 -0.64591751513E+02  0.50103972479E+02 -0.53765876537E+03  0.55803849195E+03  0.12509000000E+03 0.  0.
         25    1    4    4    0    0 -0.18718188461E+02  0.11881110800E+02 -0.29108358548E+03  0.31759832053E+03  0.12509000000E+03 0.  0.
         25    1    3    3    0    0  0.83309939975E+02 -0.61985083280E+02 -0.28776597070E+03  0.33051393108E+03  0.12509000000E+03 0.  0.
<mgrwt>
<rscale>  2 0.45629901E+03</rscale>
<asrwt>0</asrwt>
<pdfrwt beam="1">  1       21 0.65913538E-02 0.45629901E+03</pdfrwt>
<pdfrwt beam="2">  1       21 0.17078377E+00 0.45629901E+03</pdfrwt>
<totfact> 0.31640238E+04</totfact>
</mgrwt>
</event>
<event>
 7    0  0.4709932E-002  0.4581622E+03  0.7546771E-02  0.1025316E+00
         21   -1    0    0  502  501  0.00000000000E+00  0.00000000000E+00  0.60735164744E+03  0.60735164744E+03  0.00000000000E+00 0.  1.
         21   -1    0    0  501  502 -0.00000000000E+00 -0.00000000000E+00 -0.86404869976E+02  0.86404869976E+02  0.00000000000E+00 0.  1.
      99926    2    1    2    0    0  0.00000000000E+00  0.00000000000E+00  0.52094677747E+03  0.69375651742E+03  0.45816215526E+03 0.  0.
      99925    2    3    3    0    0  0.92662728328E+02  0.69697774132E+02  0.31828315423E+03  0.42887123428E+03  0.26302510980E+03 0.  0.
         25    1    4    4    0    0  0.81024880394E+02  0.17778506158E+02  0.18818073929E+03  0.24070854838E+03  0.12509000000E+03 0.  0.
         25    1    3    3    0    0 -0.92662728328E+02 -0.69697774132E+02  0.20266362323E+03  0.26488528314E+03  0.12509000000E+03 0.  0.
         25    1    4    4    0    0  0.11637847934E+02  0.51919267974E+02  0.13010241494E+03  0.18816268590E+03  0.12509000000E+03 0.  0.
<mgrwt>
<rscale>  2 0.45816216E+03</rscale>
<asrwt>0</asrwt>
<pdfrwt beam="1">  1       21 0.89316417E-01 0.45816216E+03</pdfrwt>
<pdfrwt beam="2">  1       21 0.12706599E-01 0.45816216E+03</pdfrwt>
<totfact> 0.51938422E+04</totfact>
</mgrwt>
</event>
<event>
 7    0  0.4709932E-002  0.4524685E+03  0.7546771E-02  0.1026988E+00
         21   -1    0    0  502  501  0.00000000000E+00  0.00000000000E+00  0.46500144682E+03  0.46500144682E+03  0.00000000000E+00 0.  1.
         21   -1    0    0  501  502 -0.00000000000E+00 -0.00000000000E+00 -0.11006835420E+03  0.11006835420E+03  0.00000000000E+00 0.  1.
      99926    2    1    2    0    0  0.00000000000E+00  0.00000000000E+00  0.35493309262E+03  0.57506980102E+03  0.45246853572E+03 0.  0.
      99925    2    3    3    0    0 -0.17103000630E+02  0.19765105097E+02  0.86356200262E+02  0.27764043593E+03  0.26257122145E+03 0.  0.
         25    1    4    4    0    0 -0.16238565877E+02 -0.10512852828E+02  0.77162979760E+01  0.12681190974E+03  0.12509000000E+03 0.  0.
         25    1    4    4    0    0 -0.86443475252E+00  0.30277957925E+02  0.78639902286E+02  0.15082852620E+03  0.12509000000E+03 0.  0.
         25    1    3    3    0    0  0.17103000630E+02 -0.19765105097E+02  0.26857689236E+03  0.29742936509E+03  0.12509000000E+03 0.  0.
<mgrwt>
<rscale>  2 0.45246854E+03</rscale>
<asrwt>0</asrwt>
<pdfrwt beam="1">  1       21 0.68382565E-01 0.45246854E+03</pdfrwt>
<pdfrwt beam="2">  1       21 0.16186523E-01 0.45246854E+03</pdfrwt>
<totfact> 0.61460600E+04</totfact>
</mgrwt>
</event>
<event>
 7    0  0.4709932E-002  0.4588593E+03  0.7546771E-02  0.1025113E+00
         21   -1    0    0  502  501  0.00000000000E+00  0.00000000000E+00  0.70990450640E+02  0.70990450640E+02  0.00000000000E+00 0.  1.
         21   -1    0    0  501  502 -0.00000000000E+00 -0.00000000000E+00 -0.74147965585E+03  0.74147965585E+03  0.00000000000E+00 0.  1.
      99926    2    1    2    0    0  0.00000000000E+00  0.00000000000E+00 -0.67048920521E+03  0.81247010649E+03  0.45885934624E+03 0.  0.
      99925    2    3    3    0    0 -0.95512673514E+02  0.33134690260E+02 -0.31698378691E+03  0.42409635948E+03  0.26297988984E+03 0.  0.
         25    1    4    4    0    0 -0.61899940879E+02 -0.19326177167E+02 -0.17781931556E+03  0.22687512180E+03  0.12509000000E+03 0.  0.
         25    1    3    3    0    0  0.95512673514E+02 -0.33134690260E+02 -0.35350541829E+03  0.38837374700E+03  0.12509000000E+03 0.  0.
         25    1    4    4    0    0 -0.33612732634E+02  0.52460867426E+02 -0.13916447135E+03  0.19722123768E+03  0.12509000000E+03 0.  0.
<mgrwt>
<rscale>  2 0.45885935E+03</rscale>
<asrwt>0</asrwt>
<pdfrwt beam="1">  1       21 0.10439772E-01 0.45885935E+03</pdfrwt>
<pdfrwt beam="2">  1       21 0.10904113E+00 0.45885935E+03</pdfrwt>
<totfact> 0.45765734E+04</totfact>
</mgrwt>
</event>
<event>
 7    0  0.4709932E-002  0.4516703E+03  0.7546771E-02  0.1027225E+00
         21   -1    0    0  502  501  0.00000000000E+00  0.00000000000E+00  0.16967094957E+04  0.16967094957E+04  0.00000000000E+00 0.  1.
         21   -1    0    0  501  502 -0.00000000000E+00 -0.00000000000E+00 -0.30059079695E+02  0.30059079695E+02  0.00000000000E+00 0.  1.
      99926    2    1    2    0    0  0.00000000000E+00  0.00000000000E+00  0.16666504160E+04  0.17267685754E+04  0.45167034860E+03 0.  0.
      99925    2    3    3    0    0 -0.11835016634E+02 -0.42097763079E+02  0.66566968128E+03  0.71705464132E+03  0.26294285461E+03 0.  0.
         25    1    3    3    0    0  0.11835016634E+02  0.42097763079E+02  0.10009807347E+04  0.10097139341E+04  0.12509000000E+03 0.  0.
         25    1    4    4    0    0 -0.40346175948E+02 -0.92036733343E+00  0.34763253080E+03  0.37165110731E+03  0.12509000000E+03 0.  0.
         25    1    4    4    0    0  0.28511159314E+02 -0.41177395746E+02  0.31803715047E+03  0.34540353401E+03  0.12509000000E+03 0.  0.
<mgrwt>
<rscale>  2 0.45167035E+03</rscale>
<asrwt>0</asrwt>
<pdfrwt beam="1">  1       21 0.24951604E+00 0.45167035E+03</pdfrwt>
<pdfrwt beam="2">  1       21 0.44204540E-02 0.45167035E+03</pdfrwt>
<totfact> 0.19201558E+04</totfact>
</mgrwt>
</event>
<event>
 7    0  0.4709932E-002  0.4539488E+03  0.7546771E-02  0.1026551E+00
         21   -1    0    0  502  501  0.00000000000E+00  0.00000000000E+00  0.12180416432E+03  0.12180416432E+03  0.00000000000E+00 0.  1.
         21   -1    0    0  501  502 -0.00000000000E+00 -0.00000000000E+00 -0.42295252049E+03  0.42295252049E+03  0.00000000000E+00 0.  1.
      99926    2    1    2    0    0  0.00000000000E+00  0.14210854715E-13 -0.30114835618E+03  0.54475668481E+03  0.45394880022E+03 0.  0.
      99925    2    3    3    0    0  0.34304067448E+02  0.67910588053E+02 -0.90241633766E+02  0.28801212173E+03  0.26271431782E+03 0.  0.
         25    1    3    3    0    0 -0.34304067448E+02 -0.67910588053E+02 -0.21090672241E+03  0.25674456308E+03  0.12509000000E+03 0.  0.
         25    1    4    4    0    0  0.54055542623E+02  0.22002569508E+02 -0.56470163290E+02  0.14913920409E+03  0.12509000000E+03 0.  0.
         25    1    4    4    0    0 -0.19751475175E+02  0.45908018545E+02 -0.33771470475E+02  0.13887291765E+03  0.12509000000E+03 0.  0.
<mgrwt>
<rscale>  2 0.45394880E+03</rscale>
<asrwt>0</asrwt>
<pdfrwt beam="1">  1       21 0.17912378E-01 0.45394880E+03</pdfrwt>
<pdfrwt beam="2">  1       21 0.62198898E-01 0.45394880E+03</pdfrwt>
<totfact> 0.62734535E+04</totfact>
</mgrwt>
</event>
<event>
 7    0  0.4709932E-002  0.4487784E+03  0.7546771E-02  0.1028087E+00
         21   -1    0    0  502  501  0.00000000000E+00  0.00000000000E+00  0.74986417225E+02  0.74986417225E+02  0.00000000000E+00 0. -1.
         21   -1    0    0  501  502 -0.00000000000E+00 -0.00000000000E+00 -0.67146188961E+03  0.67146188961E+03  0.00000000000E+00 0. -1.
      99926    2    1    2    0    0  0.00000000000E+00  0.00000000000E+00 -0.59647547239E+03  0.74644830684E+03  0.44877843712E+03 0.  0.
      99925    2    3    3    0    0  0.70255263844E+02  0.55900426198E+02 -0.27997538310E+03  0.39448172552E+03  0.26299991802E+03 0.  0.
         25    1    4    4    0    0  0.32151429039E+02 -0.43517325835E+01 -0.96632272134E+02  0.16136280886E+03  0.12509000000E+03 0.  0.
         25    1    3    3    0    0 -0.70255263844E+02 -0.55900426198E+02 -0.31650008929E+03  0.35196658132E+03  0.12509000000E+03 0.  0.
         25    1    4    4    0    0  0.38103834805E+02  0.60252158782E+02 -0.18334311096E+03  0.23311891666E+03  0.12509000000E+03 0.  0.
<mgrwt>
<rscale>  2 0.44877844E+03</rscale>
<asrwt>0</asrwt>
<pdfrwt beam="1">  1       21 0.11027415E-01 0.44877844E+03</pdfrwt>
<pdfrwt beam="2">  1       21 0.98744393E-01 0.44877844E+03</pdfrwt>
<totfact> 0.52997117E+04</totfact>
</mgrwt>
</event>
<event>
 7    0  0.4709932E-002  0.4537644E+03  0.7546771E-02  0.1026605E+00
         21   -1    0    0  502  501  0.00000000000E+00  0.00000000000E+00  0.35093791189E+03  0.35093791189E+03  0.00000000000E+00 0. -1.
         21   -1    0    0  501  502 -0.00000000000E+00 -0.00000000000E+00 -0.14667989657E+03  0.14667989657E+03  0.00000000000E+00 0. -1.
      99926    2    1    2    0    0  0.00000000000E+00  0.00000000000E+00  0.20425801532E+03  0.49761780847E+03  0.45376441738E+03 0.  0.
      99925    2    3    3    0    0  0.48179816076E+02  0.95013896838E+02  0.16541622584E+03  0.32878319122E+03  0.26341397797E+03 0.  0.
         25    1    4    4    0    0 -0.14390762540E+02  0.61747863610E+02  0.76669378561E+02  0.15982989212E+03  0.12509000000E+03 0.  0.
         25    1    3    3    0    0 -0.48179816076E+02 -0.95013896838E+02  0.38841789483E+02  0.16883461724E+03  0.12509000000E+03 0.  0.
         25    1    4    4    0    0  0.62570578616E+02  0.33266033228E+02  0.88746847277E+02  0.16895329910E+03  0.12509000000E+03 0.  0.
<mgrwt>
<rscale>  2 0.45376442E+03</rscale>
<asrwt>0</asrwt>
<pdfrwt beam="1">  1       21 0.51608516E-01 0.45376442E+03</pdfrwt>
<pdfrwt beam="2">  1       21 0.21570573E-01 0.45376442E+03</pdfrwt>
<totfact> 0.66084143E+04</totfact>
</mgrwt>
</event>
<event>
 7    0  0.4709932E-002  0.4437447E+03  0.7546771E-02  0.1029604E+00
         21   -1    0    0  502  501  0.00000000000E+00  0.00000000000E+00  0.26833568073E+03  0.26833568073E+03  0.00000000000E+00 0. -1.
         21   -1    0    0  501  502 -0.00000000000E+00 -0.00000000000E+00 -0.18345435295E+03  0.18345435295E+03  0.00000000000E+00 0. -1.
      99926    2    1    2    0    0 -0.14210854715E-13  0.71054273576E-14  0.84881327787E+02  0.45179003368E+03  0.44374474051E+03 0.  0.
      99925    2    3    3    0    0  0.94121418290E+02 -0.34514492105E+02  0.33508778965E+02  0.28345483707E+03  0.26300896343E+03 0.  0.
         25    1    3    3    0    0 -0.94121418290E+02  0.34514492105E+02  0.51372548822E+02  0.16833519661E+03  0.12509000000E+03 0.  0.
         25    1    4    4    0    0  0.44987567912E+02 -0.31581158398E+02 -0.21302192448E+02  0.13828428087E+03  0.12509000000E+03 0.  0.
         25    1    4    4    0    0  0.49133850378E+02 -0.29333337074E+01  0.54810971413E+02  0.14517055620E+03  0.12509000000E+03 0.  0.
<mgrwt>
<rscale>  2 0.44374474E+03</rscale>
<asrwt>0</asrwt>
<pdfrwt beam="1">  1       21 0.39461130E-01 0.44374474E+03</pdfrwt>
<pdfrwt beam="2">  1       21 0.26978581E-01 0.44374474E+03</pdfrwt>
<totfact> 0.75317896E+04</totfact>
</mgrwt>
</event>
<event>
 7    0  0.4709932E-002  0.4533084E+03  0.7546771E-02  0.1026740E+00
         21   -1    0    0  502  501  0.00000000000E+00  0.00000000000E+00  0.77320658835E+02  0.77320658835E+02  0.00000000000E+00 0.  1.
         21   -1    0    0  501  502 -0.00000000000E+00 -0.00000000000E+00 -0.66440355571E+03  0.66440355571E+03  0.00000000000E+00 0.  1.
      99926    2    1    2    0    0  0.00000000000E+00  0.00000000000E+00 -0.58708289687E+03  0.74172421454E+03  0.45330837477E+03 0.  0.
      99925    2    3    3    0    0  0.53966378316E+02 -0.71097543824E+02 -0.47821293941E+03  0.55339629185E+03  0.26380411235E+03 0.  0.
         25    1    3    3    0    0 -0.53966378316E+02  0.71097543824E+02 -0.10886995747E+03  0.18832792269E+03  0.12509000000E+03 0.  0.
         25    1    4    4    0    0  0.42941463728E+02 -0.52568390319E+02 -0.32245750387E+03  0.35246809057E+03  0.12509000000E+03 0.  0.
         25    1    4    4    0    0  0.11024914587E+02 -0.18529153505E+02 -0.15575543553E+03  0.20092820128E+03  0.12509000000E+03 0.  0.
<mgrwt>
<rscale>  2 0.45330837E+03</rscale>
<asrwt>0</asrwt>
<pdfrwt beam="1">  1       21 0.11370686E-01 0.45330837E+03</pdfrwt>
<pdfrwt beam="2">  1       21 0.97706400E-01 0.45330837E+03</pdfrwt>
<totfact> 0.51375247E+04</totfact>
</mgrwt>
</event>
<event>
 7    0  0.4709932E-002  0.4576093E+03  0.7546771E-02  0.1025477E+00
         21   -1    0    0  502  501  0.00000000000E+00  0.00000000000E+00  0.42254276733E+03  0.42254276733E+03  0.00000000000E+00 0.  1.
         21   -1    0    0  501  502 -0.00000000000E+00 -0.00000000000E+00 -0.12389647606E+03  0.12389647606E+03  0.00000000000E+00 0.  1.
      99926    2    1    2    0    0 -0.35527136788E-14  0.14210854715E-13  0.29864629127E+03  0.54643924340E+03  0.45760926502E+03 0.  0.
      99925    2    3    3    0    0 -0.21483847958E+02  0.99987077534E+02  0.12317869548E+03  0.30791176769E+03  0.26301652850E+03 0.  0.
         25    1    3    3    0    0  0.21483847958E+02 -0.99987077534E+02  0.17546759579E+03  0.23852747571E+03  0.12509000000E+03 0.  0.
         25    1    4    4    0    0 -0.35486135355E+02  0.75095906191E+02  0.91191141502E+02  0.17567581882E+03  0.12509000000E+03 0.  0.
         25    1    4    4    0    0  0.14002287397E+02  0.24891171343E+02  0.31987553978E+02  0.13223594887E+03  0.12509000000E+03 0.  0.
<mgrwt>
<rscale>  2 0.45760927E+03</rscale>
<asrwt>0</asrwt>
<pdfrwt beam="1">  1       21 0.62138642E-01 0.45760927E+03</pdfrwt>
<pdfrwt beam="2">  1       21 0.18220070E-01 0.45760927E+03</pdfrwt>
<totfact> 0.60836614E+04</totfact>
</mgrwt>
</event>
<event>
 7    0  0.4709932E-002  0.4562626E+03  0.7546771E-02  0.1025871E+00
         21   -1    0    0  502  501  0.00000000000E+00  0.00000000000E+00  0.50352483227E+03  0.50352483227E+03  0.00000000000E+00 0.  1.
         21   -1    0    0  501  502 -0.00000000000E+00 -0.00000000000E+00 -0.10335913063E+03  0.10335913063E+03  0.00000000000E+00 0.  1.
      99926    2    1    2    0    0  0.00000000000E+00  0.00000000000E+00  0.40016570164E+03  0.60688396290E+03  0.45626259507E+03 0.  0.
      99925    2    3    3    0    0  0.27150000345E+02 -0.11017824209E+03  0.27086472978E+03  0.39418084357E+03  0.26293434172E+03 0.  0.
         25    1    4    4    0    0  0.14416235309E+02 -0.39177848672E+02  0.77872287981E+02  0.15314807541E+03  0.12509000000E+03 0.  0.
         25    1    3    3    0    0 -0.27150000345E+02  0.11017824209E+03  0.12930097186E+03  0.21270311933E+03  0.12509000000E+03 0.  0.
         25    1    4    4    0    0  0.12733765036E+02 -0.71000393415E+02  0.19299244180E+03  0.24103276816E+03  0.12509000000E+03 0.  0.
<mgrwt>
<rscale>  2 0.45626260E+03</rscale>
<asrwt>0</asrwt>
<pdfrwt beam="1">  1       21 0.74047768E-01 0.45626260E+03</pdfrwt>
<pdfrwt beam="2">  1       21 0.15199872E-01 0.45626260E+03</pdfrwt>
<totfact> 0.57679076E+04</totfact>
</mgrwt>
</event>
<event>
 7    0  0.4709932E-002  0.4515669E+03  0.7546771E-02  0.1027256E+00
         21   -1    0    0  502  501  0.00000000000E+00  0.00000000000E+00  0.48666873842E+02  0.48666873842E+02  0.00000000000E+00 0. -1.
         21   -1    0    0  501  502 -0.00000000000E+00 -0.00000000000E+00 -0.10474922385E+04  0.10474922385E+04  0.00000000000E+00 0. -1.
      99926    2    1    2    0    0  0.00000000000E+00  0.00000000000E+00 -0.99882536463E+03  0.10961591123E+04  0.45156692802E+03 0.  0.
      99925    2    3    3    0    0 -0.78439790201E+02 -0.32010647330E+02 -0.46058216624E+03  0.53711463202E+03  0.26301846674E+03 0.  0.
         25    1    3    3    0    0  0.78439790201E+02  0.32010647330E+02 -0.53824319840E+03  0.55904448030E+03  0.12509000000E+03 0.  0.
         25    1    4    4    0    0 -0.11511474049E+02  0.15813623724E+02 -0.20979850966E+03  0.24504184844E+03  0.12509000000E+03 0.  0.
         25    1    4    4    0    0 -0.66928316153E+02 -0.47824271054E+02 -0.25078365658E+03  0.29207278359E+03  0.12509000000E+03 0.  0.
<mgrwt>
<rscale>  2 0.45156693E+03</rscale>
<asrwt>0</asrwt>
<pdfrwt beam="1">  1       21 0.71568937E-02 0.45156693E+03</pdfrwt>
<pdfrwt beam="2">  1       21 0.15404297E+00 0.45156693E+03</pdfrwt>
<totfact> 0.36598135E+04</totfact>
</mgrwt>
</event>
<event>
 7    0  0.4709932E-002  0.4455992E+03  0.7546771E-02  0.1029043E+00
         21   -1    0    0  502  501  0.00000000000E+00  0.00000000000E+00  0.80632014204E+02  0.80632014204E+02  0.00000000000E+00 0. -1.
         21   -1    0    0  501  502 -0.00000000000E+00 -0.00000000000E+00 -0.61563212889E+03  0.61563212889E+03  0.00000000000E+00 0. -1.
      99926    2    1    2    0    0  0.00000000000E+00 -0.88817841970E-15 -0.53500011468E+03  0.69626414309E+03  0.44559918564E+03 0.  0.
      99925    2    3    3    0    0 -0.81882807388E+02 -0.58263528909E+01 -0.23969089572E+03  0.36521462498E+03  0.26304230891E+03 0.  0.
         25    1    4    4    0    0 -0.65203789050E+02 -0.29089891913E+02 -0.98901596176E+02  0.17471917395E+03  0.12509000000E+03 0.  0.
         25    1    4    4    0    0 -0.16679018339E+02  0.23263539022E+02 -0.14078929954E+03  0.19049545104E+03  0.12509000000E+03 0.  0.
         25    1    3    3    0    0  0.81882807388E+02  0.58263528909E+01 -0.29530921897E+03  0.33104951811E+03  0.12509000000E+03 0.  0.
<mgrwt>
<rscale>  2 0.44559919E+03</rscale>
<asrwt>0</asrwt>
<pdfrwt beam="1">  1       21 0.11857649E-01 0.44559919E+03</pdfrwt>
<pdfrwt beam="2">  1       21 0.90534134E-01 0.44559919E+03</pdfrwt>
<totfact> 0.57224123E+04</totfact>
</mgrwt>
</event>
<event>
 7    0  0.4709932E-002  0.4572480E+03  0.7546771E-02  0.1025582E+00
         21   -1    0    0  502  501  0.00000000000E+00  0.00000000000E+00  0.43449437821E+03  0.43449437821E+03  0.00000000000E+00 0.  1.
         21   -1    0    0  501  502 -0.00000000000E+00 -0.00000000000E+00 -0.12029828393E+03  0.12029828393E+03  0.00000000000E+00 0.  1.
      99926    2    1    2    0    0  0.00000000000E+00  0.00000000000E+00  0.31419609428E+03  0.55479266214E+03  0.45724797682E+03 0.  0.
      99925    2    3    3    0    0  0.73759705263E+02  0.62723520072E+02  0.12169092539E+03  0.30563311037E+03  0.26311249066E+03 0.  0.
         25    1    3    3    0    0 -0.73759705263E+02 -0.62723520072E+02  0.19250516889E+03  0.24915955177E+03  0.12509000000E+03 0.  0.
         25    1    4    4    0    0  0.10822386785E+02  0.22949317014E+02  0.91286057263E+02  0.15692178803E+03  0.12509000000E+03 0.  0.
         25    1    4    4    0    0  0.62937318479E+02  0.39774203058E+02  0.30404868123E+02  0.14871132234E+03  0.12509000000E+03 0.  0.
<mgrwt>
<rscale>  2 0.45724798E+03</rscale>
<asrwt>0</asrwt>
<pdfrwt beam="1">  1       21 0.63896232E-01 0.45724798E+03</pdfrwt>
<pdfrwt beam="2">  1       21 0.17690924E-01 0.45724798E+03</pdfrwt>
<totfact> 0.60468369E+04</totfact>
</mgrwt>
</event>
<event>
 7    0  0.4709932E-002  0.4269501E+03  0.7546771E-02  0.1034828E+00
         21   -1    0    0  502  501  0.00000000000E+00  0.00000000000E+00  0.10018129322E+04  0.10018129322E+04  0.00000000000E+00 0. -1.
         21   -1    0    0  501  502 -0.00000000000E+00 -0.00000000000E+00 -0.45489133691E+02  0.45489133691E+02  0.00000000000E+00 0. -1.
      99926    2    1    2    0    0  0.14210854715E-13  0.00000000000E+00  0.95632379855E+03  0.10473020659E+04  0.42695012546E+03 0.  0.
      99925    2    3    3    0    0  0.67057955816E+02 -0.40304425385E+02  0.69275084444E+03  0.74524341868E+03  0.26336819182E+03 0.  0.
         25    1    4    4    0    0  0.55108286265E+02 -0.55329728592E+02  0.34570577812E+03  0.37584344508E+03  0.12509000000E+03 0.  0.
         25    1    3    3    0    0 -0.67057955816E+02  0.40304425385E+02  0.26357295411E+03  0.30205864725E+03  0.12509000000E+03 0.  0.
         25    1    4    4    0    0  0.11949669551E+02  0.15025303206E+02  0.34704506632E+03  0.36939997360E+03  0.12509000000E+03 0.  0.
<mgrwt>
<rscale>  2 0.42695013E+03</rscale>
<asrwt>0</asrwt>
<pdfrwt beam="1">  1       21 0.14732542E+00 0.42695013E+03</pdfrwt>
<pdfrwt beam="2">  1       21 0.66895791E-02 0.42695013E+03</pdfrwt>
<totfact> 0.46817118E+04</totfact>
</mgrwt>
</event>
<event>
 7    0  0.4709932E-002  0.4523538E+03  0.7546771E-02  0.1027022E+00
         21   -1    0    0  502  501  0.00000000000E+00  0.00000000000E+00  0.13177635963E+03  0.13177635963E+03  0.00000000000E+00 0. -1.
         21   -1    0    0  501  502 -0.00000000000E+00 -0.00000000000E+00 -0.38820308145E+03  0.38820308145E+03  0.00000000000E+00 0. -1.
      99926    2    1    2    0    0  0.00000000000E+00  0.00000000000E+00 -0.25642672182E+03  0.51997944109E+03  0.45235379460E+03 0.  0.
      99925    2    3    3    0    0 -0.65569132547E+02 -0.48695732125E+02 -0.24754703107E+03  0.37032336043E+03  0.26303853942E+03 0.  0.
         25    1    3    3    0    0  0.65569132547E+02  0.48695732125E+02 -0.88796907488E+01  0.14965608066E+03  0.12509000000E+03 0.  0.
         25    1    4    4    0    0 -0.60615802888E+02 -0.39928786955E+02 -0.96114957765E+02  0.17364958046E+03  0.12509000000E+03 0.  0.
         25    1    4    4    0    0 -0.49533296582E+01 -0.87669451704E+01 -0.15143207330E+03  0.19667377997E+03  0.12509000000E+03 0.  0.
<mgrwt>
<rscale>  2 0.45235379E+03</rscale>
<asrwt>0</asrwt>
<pdfrwt beam="1">  1       21 0.19378877E-01 0.45235379E+03</pdfrwt>
<pdfrwt beam="2">  1       21 0.57088688E-01 0.45235379E+03</pdfrwt>
<totfact> 0.65247697E+04</totfact>
</mgrwt>
</event>
<event>
 7    0  0.4709932E-002  0.4480900E+03  0.7546771E-02  0.1028293E+00
         21   -1    0    0  502  501  0.00000000000E+00  0.00000000000E+00  0.28888583736E+03  0.28888583736E+03  0.00000000000E+00 0.  1.
         21   -1    0    0  501  502 -0.00000000000E+00 -0.00000000000E+00 -0.17375776188E+03  0.17375776188E+03  0.00000000000E+00 0.  1.
      99926    2    1    2    0    0  0.00000000000E+00  0.00000000000E+00  0.11512807548E+03  0.46264359925E+03  0.44808997552E+03 0.  0.
      99925    2    3    3    0    0  0.20285323272E+02 -0.48797098163E+02  0.16824887887E+03  0.31682872010E+03  0.26321113485E+03 0.  0.
         25    1    3    3    0    0 -0.20285323272E+02  0.48797098163E+02 -0.53120803385E+02  0.14581487915E+03  0.12509000000E+03 0.  0.
         25    1    4    4    0    0  0.15360194809E+02 -0.59361947261E+02  0.62812511155E+02  0.15281588931E+03  0.12509000000E+03 0.  0.
         25    1    4    4    0    0  0.49251284632E+01  0.10564849097E+02  0.10543636771E+03  0.16401283079E+03  0.12509000000E+03 0.  0.
<mgrwt>
<rscale>  2 0.44808998E+03</rscale>
<asrwt>0</asrwt>
<pdfrwt beam="1">  1       21 0.42483211E-01 0.44808998E+03</pdfrwt>
<pdfrwt beam="2">  1       21 0.25552612E-01 0.44808998E+03</pdfrwt>
<totfact> 0.71844884E+04</totfact>
</mgrwt>
</event>
<event>
 7    0  0.4709932E-002  0.4534120E+03  0.7546771E-02  0.1026709E+00
         21   -1    0    0  502  501  0.00000000000E+00  0.00000000000E+00  0.36648596105E+03  0.36648596105E+03  0.00000000000E+00 0. -1.
         21   -1    0    0  501  502 -0.00000000000E+00 -0.00000000000E+00 -0.14023896543E+03  0.14023896543E+03  0.00000000000E+00 0. -1.
      99926    2    1    2    0    0  0.71054273576E-14  0.17763568394E-14  0.22624699561E+03  0.50672492648E+03  0.45341200700E+03 0.  0.
      99925    2    3    3    0    0 -0.55048117173E+02 -0.97774135663E+01  0.34450023862E+02  0.27101434230E+03  0.26293740048E+03 0.  0.
         25    1    4    4    0    0 -0.33087360744E+02 -0.19535672358E+02  0.55078551532E+02  0.14197736043E+03  0.12509000000E+03 0.  0.
         25    1    4    4    0    0 -0.21960756430E+02  0.97582587918E+01 -0.20628527670E+02  0.12903698188E+03  0.12509000000E+03 0.  0.
         25    1    3    3    0    0  0.55048117173E+02  0.97774135663E+01  0.19179697175E+03  0.23571058418E+03  0.12509000000E+03 0.  0.
<mgrwt>
<rscale>  2 0.45341201E+03</rscale>
<asrwt>0</asrwt>
<pdfrwt beam="1">  1       21 0.53894994E-01 0.45341201E+03</pdfrwt>
<pdfrwt beam="2">  1       21 0.20623377E-01 0.45341201E+03</pdfrwt>
<totfact> 0.65623954E+04</totfact>
</mgrwt>
</event>
<event>
 7    0  0.4709932E-002  0.4736582E+03  0.7546771E-02  0.1020893E+00
         21   -1    0    0  502  501  0.00000000000E+00  0.00000000000E+00  0.16426650129E+03  0.16426650129E+03  0.00000000000E+00 0. -1.
         21   -1    0    0  501  502 -0.00000000000E+00 -0.00000000000E+00 -0.34144523514E+03  0.34144523514E+03  0.00000000000E+00 0. -1.
      99926    2    1    2    0    0 -0.14210854715E-13  0.71054273576E-14 -0.17717873385E+03  0.50571173644E+03  0.47365816433E+03 0.  0.
      99925    2    3    3    0    0 -0.11919436957E+03  0.26060978044E+02 -0.15732711032E+03  0.32984796140E+03  0.26298552371E+03 0.  0.
         25    1    3    3    0    0  0.11919436957E+03 -0.26060978044E+02 -0.19851623529E+02  0.17586377504E+03  0.12509000000E+03 0.  0.
         25    1    4    4    0    0 -0.30288271845E+02  0.42538891277E+02 -0.72220530664E+02  0.15359117758E+03  0.12509000000E+03 0.  0.
         25    1    4    4    0    0 -0.88906097730E+02 -0.16477913233E+02 -0.85106579660E+02  0.17625678381E+03  0.12509000000E+03 0.  0.
<mgrwt>
<rscale>  2 0.47365816E+03</rscale>
<asrwt>0</asrwt>
<pdfrwt beam="1">  1       21 0.24156839E-01 0.47365816E+03</pdfrwt>
<pdfrwt beam="2">  1       21 0.50212534E-01 0.47365816E+03</pdfrwt>
<totfact> 0.56091397E+04</totfact>
</mgrwt>
</event>
<event>
 7    0  0.4709932E-002  0.4502607E+03  0.7546771E-02  0.1027644E+00
         21   -1    0    0  502  501  0.00000000000E+00  0.00000000000E+00  0.18087325139E+03  0.18087325139E+03  0.00000000000E+00 0.  1.
         21   -1    0    0  501  502 -0.00000000000E+00 -0.00000000000E+00 -0.28021653595E+03  0.28021653595E+03  0.00000000000E+00 0.  1.
      99926    2    1    2    0    0  0.71054273576E-14  0.00000000000E+00 -0.99343284564E+02  0.46108978734E+03  0.45026070649E+03 0.  0.
      99925    2    3    3    0    0 -0.60258748524E+02  0.62339803642E+02 -0.12908900549E+03  0.30601018228E+03  0.26355434436E+03 0.  0.
         25    1    4    4    0    0 -0.35493180828E+02  0.54106570884E+02 -0.10573550146E+03  0.17611016798E+03  0.12509000000E+03 0.  0.
         25    1    4    4    0    0 -0.24765567695E+02  0.82332327587E+01 -0.23353504033E+02  0.12990001430E+03  0.12509000000E+03 0.  0.
         25    1    3    3    0    0  0.60258748524E+02 -0.62339803642E+02  0.29745720928E+02  0.15507960506E+03  0.12509000000E+03 0.  0.
<mgrwt>
<rscale>  2 0.45026071E+03</rscale>
<asrwt>0</asrwt>
<pdfrwt beam="1">  1       21 0.26599008E-01 0.45026071E+03</pdfrwt>
<pdfrwt beam="2">  1       21 0.41208314E-01 0.45026071E+03</pdfrwt>
<totfact> 0.70726227E+04</totfact>
</mgrwt>
</event>
<event>
 7    0  0.4709932E-002  0.4549871E+03  0.7546771E-02  0.1026245E+00
         21   -1    0    0  502  501  0.00000000000E+00  0.00000000000E+00  0.67490869472E+03  0.67490869472E+03  0.00000000000E+00 0.  1.
         21   -1    0    0  501  502 -0.00000000000E+00 -0.00000000000E+00 -0.76681957166E+02  0.76681957166E+02  0.00000000000E+00 0.  1.
      99926    2    1    2    0    0  0.00000000000E+00  0.00000000000E+00  0.59822673755E+03  0.75159065188E+03  0.45498711902E+03 0.  0.
      99925    2    3    3    0    0  0.49817044986E+02  0.93181899744E+02  0.43941706236E+03  0.52348404206E+03  0.26416582517E+03 0.  0.
         25    1    3    3    0    0 -0.49817044986E+02 -0.93181899744E+02  0.15880967520E+03  0.22810660983E+03  0.12509000000E+03 0.  0.
         25    1    4    4    0    0  0.13406339738E+02  0.45108118040E+02  0.29104073108E+03  0.32026034332E+03  0.12509000000E+03 0.  0.
         25    1    4    4    0    0  0.36410705248E+02  0.48073781704E+02  0.14837633128E+03  0.20322369873E+03  0.12509000000E+03 0.  0.
<mgrwt>
<rscale>  2 0.45498712E+03</rscale>
<asrwt>0</asrwt>
<pdfrwt beam="1">  1       21 0.99251275E-01 0.45498712E+03</pdfrwt>
<pdfrwt beam="2">  1       21 0.11276759E-01 0.45498712E+03</pdfrwt>
<totfact> 0.50194902E+04</totfact>
</mgrwt>
</event>
<event>
 7    0  0.4709932E-002  0.4800997E+03  0.7546771E-02  0.1019108E+00
         21   -1    0    0  502  501  0.00000000000E+00  0.00000000000E+00  0.27972531260E+03  0.27972531260E+03  0.00000000000E+00 0.  1.
         21   -1    0    0  501  502 -0.00000000000E+00 -0.00000000000E+00 -0.20600187343E+03  0.20600187343E+03  0.00000000000E+00 0.  1.
      99926    2    1    2    0    0  0.00000000000E+00  0.00000000000E+00  0.73723439178E+02  0.48572718603E+03  0.48009973314E+03 0.  0.
      99925    2    3    3    0    0 -0.10203376296E+03 -0.75003131876E+02  0.94125855396E+02  0.30656210778E+03  0.26283890636E+03 0.  0.
         25    1    3    3    0    0  0.10203376296E+03  0.75003131876E+02 -0.20402416218E+02  0.17916507825E+03  0.12509000000E+03 0.  0.
         25    1    4    4    0    0 -0.65761768917E+02 -0.49384827297E+02  0.88066395027E+02  0.17368554762E+03  0.12509000000E+03 0.  0.
         25    1    4    4    0    0 -0.36271994046E+02 -0.25618304579E+02  0.60594603696E+01  0.13287656017E+03  0.12509000000E+03 0.  0.
<mgrwt>
<rscale>  2 0.48009973E+03</rscale>
<asrwt>0</asrwt>
<pdfrwt beam="1">  1       21 0.41136075E-01 0.48009973E+03</pdfrwt>
<pdfrwt beam="2">  1       21 0.30294393E-01 0.48009973E+03</pdfrwt>
<totfact> 0.54570215E+04</totfact>
</mgrwt>
</event>
<event>
 7    0  0.4709932E-002  0.4534809E+03  0.7546771E-02  0.1026689E+00
         21   -1    0    0  502  501  0.00000000000E+00  0.00000000000E+00  0.14336351062E+03  0.14336351062E+03  0.00000000000E+00 0. -1.
         21   -1    0    0  501  502 -0.00000000000E+00 -0.00000000000E+00 -0.35860749061E+03  0.35860749061E+03  0.00000000000E+00 0. -1.
      99926    2    1    2    0    0  0.00000000000E+00  0.00000000000E+00 -0.21524397999E+03  0.50197100123E+03  0.45348088731E+03 0.  0.
      99925    2    3    3    0    0  0.68861427609E+02  0.67835053703E+02 -0.73650859858E+02  0.28974562458E+03  0.26302963157E+03 0.  0.
         25    1    3    3    0    0 -0.68861427609E+02 -0.67835053703E+02 -0.14159312014E+03  0.21222537665E+03  0.12509000000E+03 0.  0.
         25    1    4    4    0    0  0.70105315182E+02  0.34126884333E+02 -0.61165409184E+02  0.15958732666E+03  0.12509000000E+03 0.  0.
         25    1    4    4    0    0 -0.12438875725E+01  0.33708169370E+02 -0.12485450674E+02  0.13015829792E+03  0.12509000000E+03 0.  0.
<mgrwt>
<rscale>  2 0.45348089E+03</rscale>
<asrwt>0</asrwt>
<pdfrwt beam="1">  1       21 0.21082870E-01 0.45348089E+03</pdfrwt>
<pdfrwt beam="2">  1       21 0.52736394E-01 0.45348089E+03</pdfrwt>
<totfact> 0.65923756E+04</totfact>
</mgrwt>
</event>
<event>
 7    0  0.4709932E-002  0.4315683E+03  0.7546771E-02  0.1033366E+00
         21   -1    0    0  502  501  0.00000000000E+00  0.00000000000E+00  0.66140237576E+03  0.66140237576E+03  0.00000000000E+00 0.  1.
         21   -1    0    0  501  502 -0.00000000000E+00 -0.00000000000E+00 -0.70400110573E+02  0.70400110573E+02  0.00000000000E+00 0.  1.
      99926    2    1    2    0    0  0.00000000000E+00 -0.17763568394E-14  0.59100226519E+03  0.73180248633E+03  0.43156830461E+03 0.  0.
      99925    2    3    3    0    0 -0.46949840911E+02 -0.15309761279E+02  0.25425708986E+03  0.36919595363E+03  0.26309752580E+03 0.  0.
         25    1    4    4    0    0  0.15900650095E+02  0.35082934861E+01  0.12862367734E+03  0.18015742357E+03  0.12509000000E+03 0.  0.
         25    1    3    3    0    0  0.46949840911E+02  0.15309761279E+02  0.33674517533E+03  0.36260653270E+03  0.12509000000E+03 0.  0.
         25    1    4    4    0    0 -0.62850491005E+02 -0.18818054765E+02  0.12563341252E+03  0.18903853006E+03  0.12509000000E+03 0.  0.
<mgrwt>
<rscale>  2 0.43156830E+03</rscale>
<asrwt>0</asrwt>
<pdfrwt beam="1">  1       21 0.97265052E-01 0.43156830E+03</pdfrwt>
<pdfrwt beam="2">  1       21 0.10352958E-01 0.43156830E+03</pdfrwt>
<totfact> 0.61840345E+04</totfact>
</mgrwt>
</event>
<event>
 7    0  0.4709932E-002  0.4495657E+03  0.7546771E-02  0.1027852E+00
         21   -1    0    0  502  501  0.00000000000E+00  0.00000000000E+00  0.20169685154E+03  0.20169685154E+03  0.00000000000E+00 0. -1.
         21   -1    0    0  501  502 -0.00000000000E+00 -0.00000000000E+00 -0.25051125922E+03  0.25051125922E+03  0.00000000000E+00 0. -1.
      99926    2    1    2    0    0 -0.35527136788E-14  0.00000000000E+00 -0.48814407684E+02  0.45220811076E+03  0.44956571159E+03 0.  0.
      99925    2    3    3    0    0 -0.18447340742E+02  0.10529882188E+03 -0.15687487637E+02  0.28435982450E+03  0.26303282352E+03 0.  0.
         25    1    4    4    0    0 -0.84537183227E+00  0.12913892843E+02 -0.22302065252E+02  0.12771990251E+03  0.12509000000E+03 0.  0.
         25    1    4    4    0    0 -0.17601968909E+02  0.92384929041E+02  0.66145776147E+01  0.15663992199E+03  0.12509000000E+03 0.  0.
         25    1    3    3    0    0  0.18447340742E+02 -0.10529882188E+03 -0.33126920047E+02  0.16784828627E+03  0.12509000000E+03 0.  0.
<mgrwt>
<rscale>  2 0.44956571E+03</rscale>
<asrwt>0</asrwt>
<pdfrwt beam="1">  1       21 0.29661302E-01 0.44956571E+03</pdfrwt>
<pdfrwt beam="2">  1       21 0.36839891E-01 0.44956571E+03</pdfrwt>
<totfact> 0.71814298E+04</totfact>
</mgrwt>
</event>
<event>
 7    0  0.4709932E-002  0.4571517E+03  0.7546771E-02  0.1025611E+00
         21   -1    0    0  502  501  0.00000000000E+00  0.00000000000E+00  0.82788660062E+02  0.82788660062E+02  0.00000000000E+00 0.  1.
         21   -1    0    0  501  502 -0.00000000000E+00 -0.00000000000E+00 -0.63108793374E+03  0.63108793374E+03  0.00000000000E+00 0.  1.
      99926    2    1    2    0    0  0.00000000000E+00  0.00000000000E+00 -0.54829927367E+03  0.71387659380E+03  0.45715172280E+03 0.  0.
      99925    2    3    3    0    0  0.57063810625E+02 -0.80290868358E+02 -0.43754546863E+03  0.51992604480E+03  0.26300979624E+03 0.  0.
         25    1    4    4    0    0  0.67998335929E+02 -0.50683209476E+02 -0.21753183543E+03  0.26487764899E+03  0.12509000000E+03 0.  0.
         25    1    3    3    0    0 -0.57063810625E+02  0.80290868358E+02 -0.11075380504E+03  0.19395054900E+03  0.12509000000E+03 0.  0.
         25    1    4    4    0    0 -0.10934525304E+02 -0.29607658881E+02 -0.22001363320E+03  0.25504839581E+03  0.12509000000E+03 0.  0.
<mgrwt>
<rscale>  2 0.45715172E+03</rscale>
<asrwt>0</asrwt>
<pdfrwt beam="1">  1       21 0.12174803E-01 0.45715172E+03</pdfrwt>
<pdfrwt beam="2">  1       21 0.92807051E-01 0.45715172E+03</pdfrwt>
<totfact> 0.51282433E+04</totfact>
</mgrwt>
</event>
<event>
 7    0  0.4709932E-002  0.4583306E+03  0.7546771E-02  0.1025267E+00
         21   -1    0    0  502  501  0.00000000000E+00  0.00000000000E+00  0.86349285189E+02  0.86349285189E+02  0.00000000000E+00 0. -1.
         21   -1    0    0  501  502 -0.00000000000E+00 -0.00000000000E+00 -0.60818948425E+03  0.60818948425E+03  0.00000000000E+00 0. -1.
      99926    2    1    2    0    0  0.00000000000E+00  0.00000000000E+00 -0.52184019906E+03  0.69453876944E+03  0.45833056727E+03 0.  0.
      99925    2    3    3    0    0  0.50428644958E+02 -0.10377589760E+03 -0.30615732492E+03  0.41980417851E+03  0.26304135708E+03 0.  0.
         25    1    4    4    0    0  0.23299287340E+02 -0.89250656666E+02 -0.19719639987E+03  0.25108258547E+03  0.12509000000E+03 0.  0.
         25    1    4    4    0    0  0.27129357618E+02 -0.14525240938E+02 -0.10896092505E+03  0.16872159304E+03  0.12509000000E+03 0.  0.
         25    1    3    3    0    0 -0.50428644958E+02  0.10377589760E+03 -0.21568287414E+03  0.27473459093E+03  0.12509000000E+03 0.  0.
<mgrwt>
<rscale>  2 0.45833057E+03</rscale>
<asrwt>0</asrwt>
<pdfrwt beam="1">  1       21 0.12698424E-01 0.45833057E+03</pdfrwt>
<pdfrwt beam="2">  1       21 0.89439633E-01 0.45833057E+03</pdfrwt>
<totfact> 0.51828395E+04</totfact>
</mgrwt>
</event>
<event>
 7    0  0.4709932E-002  0.4548617E+03  0.7546771E-02  0.1026282E+00
         21   -1    0    0  502  501  0.00000000000E+00  0.00000000000E+00  0.11302816653E+03  0.11302816653E+03  0.00000000000E+00 0. -1.
         21   -1    0    0  501  502 -0.00000000000E+00 -0.00000000000E+00 -0.45762748958E+03  0.45762748958E+03  0.00000000000E+00 0. -1.
      99926    2    1    2    0    0  0.00000000000E+00  0.00000000000E+00 -0.34459932305E+03  0.57065565611E+03  0.45486172009E+03 0.  0.
      99925    2    3    3    0    0 -0.81049201782E+02  0.35662470385E+02 -0.30509852429E+03  0.41238814173E+03  0.26294121970E+03 0.  0.
         25    1    4    4    0    0 -0.47001699441E+02  0.17461867196E+01 -0.98021011620E+02  0.16573423224E+03  0.12509000000E+03 0.  0.
         25    1    3    3    0    0  0.81049201782E+02 -0.35662470385E+02 -0.39500798764E+02  0.15826751438E+03  0.12509000000E+03 0.  0.
         25    1    4    4    0    0 -0.34047502341E+02  0.33916283666E+02 -0.20707751267E+03  0.24665390949E+03  0.12509000000E+03 0.  0.
<mgrwt>
<rscale>  2 0.45486172E+03</rscale>
<asrwt>0</asrwt>
<pdfrwt beam="1">  1       21 0.16621789E-01 0.45486172E+03</pdfrwt>
<pdfrwt beam="2">  1       21 0.67298162E-01 0.45486172E+03</pdfrwt>
<totfact> 0.60588075E+04</totfact>
</mgrwt>
</event>
<event>
 7    0  0.4709932E-002  0.4420447E+03  0.7546771E-02  0.1030121E+00
         21   -1    0    0  502  501  0.00000000000E+00  0.00000000000E+00  0.23080972727E+03  0.23080972727E+03  0.00000000000E+00 0.  1.
         21   -1    0    0  501  502 -0.00000000000E+00 -0.00000000000E+00 -0.21164996684E+03  0.21164996684E+03  0.00000000000E+00 0.  1.
      99926    2    1    2    0    0  0.71054273576E-14  0.00000000000E+00  0.19159760425E+02  0.44245969411E+03  0.44204466346E+03 0.  0.
      99925    2    3    3    0    0 -0.45309516359E+02 -0.88030326812E+02  0.29628558561E+02  0.28258663651E+03  0.26301153005E+03 0.  0.
         25    1    4    4    0    0 -0.52182108833E+02 -0.68674114406E+02 -0.19189069088E+01  0.15195491692E+03  0.12509000000E+03 0.  0.
         25    1    4    4    0    0  0.68725924742E+01 -0.19356212406E+02  0.31547465470E+02  0.13063171959E+03  0.12509000000E+03 0.  0.
         25    1    3    3    0    0  0.45309516359E+02  0.88030326812E+02 -0.10468798136E+02  0.15987305760E+03  0.12509000000E+03 0.  0.
<mgrwt>
<rscale>  2 0.44204466E+03</rscale>
<asrwt>0</asrwt>
<pdfrwt beam="1">  1       21 0.33942607E-01 0.44204466E+03</pdfrwt>
<pdfrwt beam="2">  1       21 0.31124995E-01 0.44204466E+03</pdfrwt>
<totfact> 0.77145822E+04</totfact>
</mgrwt>
</event>
<event>
 7    0  0.4709932E-002  0.4545896E+03  0.7546771E-02  0.1026362E+00
         21   -1    0    0  502  501  0.00000000000E+00  0.00000000000E+00  0.19237282301E+03  0.19237282301E+03  0.00000000000E+00 0. -1.
         21   -1    0    0  501  502 -0.00000000000E+00 -0.00000000000E+00 -0.26855620736E+03  0.26855620736E+03  0.00000000000E+00 0. -1.
      99926    2    1    2    0    0 -0.44408920985E-14  0.00000000000E+00 -0.76183384349E+02  0.46092903037E+03  0.45458955442E+03 0.  0.
      99925    2    3    3    0    0 -0.24060239554E+01  0.93836278958E+02 -0.11127730834E+03  0.30064762845E+03  0.26305003505E+03 0.  0.
         25    1    4    4    0    0  0.33789250693E+02  0.27169778527E+02 -0.62798204504E+02  0.14652997276E+03  0.12509000000E+03 0.  0.
         25    1    3    3    0    0  0.24060239554E+01 -0.93836278958E+02  0.35093923992E+02  0.16028140192E+03  0.12509000000E+03 0.  0.
         25    1    4    4    0    0 -0.36195274649E+02  0.66666500431E+02 -0.48479103837E+02  0.15411765569E+03  0.12509000000E+03 0.  0.
<mgrwt>
<rscale>  2 0.45458955E+03</rscale>
<asrwt>0</asrwt>
<pdfrwt beam="1">  1       21 0.28290121E-01 0.45458955E+03</pdfrwt>
<pdfrwt beam="2">  1       21 0.39493560E-01 0.45458955E+03</pdfrwt>
<totfact> 0.68336038E+04</totfact>
</mgrwt>
</event>
<event>
 7    0  0.4709932E-002  0.4233970E+03  0.7546771E-02  0.1035966E+00
         21   -1    0    0  502  501  0.00000000000E+00  0.00000000000E+00  0.58072402734E+03  0.58072402734E+03  0.00000000000E+00 0. -1.
         21   -1    0    0  501  502 -0.00000000000E+00 -0.00000000000E+00 -0.77173085753E+02  0.77173085753E+02  0.00000000000E+00 0. -1.
      99926    2    1    2    0    0  0.35527136788E-14  0.00000000000E+00  0.50355094159E+03  0.65789711310E+03  0.42339704846E+03 0.  0.
      99925    2    3    3    0    0 -0.10928319926E+02  0.76029776816E+02  0.29256146906E+03  0.40086789149E+03  0.26306443719E+03 0.  0.
         25    1    3    3    0    0  0.10928319926E+02 -0.76029776816E+02  0.21098947253E+03  0.25702922160E+03  0.12509000000E+03 0.  0.
         25    1    4    4    0    0 -0.16472788552E+02  0.62967555995E+02  0.10873317356E+03  0.17806368806E+03  0.12509000000E+03 0.  0.
         25    1    4    4    0    0  0.55444686263E+01  0.13062220821E+02  0.18382829550E+03  0.22280420344E+03  0.12509000000E+03 0.  0.
<mgrwt>
<rscale>  2 0.42339705E+03</rscale>
<asrwt>0</asrwt>
<pdfrwt beam="1">  1       21 0.85400590E-01 0.42339705E+03</pdfrwt>
<pdfrwt beam="2">  1       21 0.11348983E-01 0.42339705E+03</pdfrwt>
<totfact> 0.71447526E+04</totfact>
</mgrwt>
</event>
<event>
 7    0  0.4709932E-002  0.4440634E+03  0.7546771E-02  0.1029507E+00
         21   -1    0    0  502  501  0.00000000000E+00  0.00000000000E+00  0.18193861432E+03  0.18193861432E+03  0.00000000000E+00 0.  1.
         21   -1    0    0  501  502 -0.00000000000E+00 -0.00000000000E+00 -0.27095997124E+03  0.27095997124E+03  0.00000000000E+00 0.  1.
      99926    2    1    2    0    0  0.00000000000E+00  0.14210854715E-13 -0.89021356917E+02  0.45289858556E+03  0.44406342657E+03 0.  0.
      99925    2    3    3    0    0 -0.22231605313E+02 -0.88620589388E+02 -0.90125678777E+01  0.27855189772E+03  0.26298684417E+03 0.  0.
         25    1    4    4    0    0 -0.34314167659E+02 -0.76071938440E+02 -0.20366136036E+02  0.15174547610E+03  0.12509000000E+03 0.  0.
         25    1    4    4    0    0  0.12082562346E+02 -0.12548650949E+02  0.11353568158E+02  0.12680642162E+03  0.12509000000E+03 0.  0.
         25    1    3    3    0    0  0.22231605313E+02  0.88620589388E+02 -0.80008789039E+02  0.17434668784E+03  0.12509000000E+03 0.  0.
<mgrwt>
<rscale>  2 0.44406343E+03</rscale>
<asrwt>0</asrwt>
<pdfrwt beam="1">  1       21 0.26755679E-01 0.44406343E+03</pdfrwt>
<pdfrwt beam="2">  1       21 0.39847054E-01 0.44406343E+03</pdfrwt>
<totfact> 0.75030087E+04</totfact>
</mgrwt>
</event>
<event>
 7    0  0.4709932E-002  0.4604457E+03  0.7546771E-02  0.1024652E+00
         21   -1    0    0  502  501  0.00000000000E+00  0.00000000000E+00  0.13845882791E+03  0.13845882791E+03  0.00000000000E+00 0. -1.
         21   -1    0    0  501  502 -0.00000000000E+00 -0.00000000000E+00 -0.38280377315E+03  0.38280377315E+03  0.00000000000E+00 0. -1.
      99926    2    1    2    0    0  0.71054273576E-14 -0.71054273576E-14 -0.24434494524E+03  0.52126260106E+03  0.46044570473E+03 0.  0.
      99925    2    3    3    0    0 -0.63494456658E+02 -0.61026304213E+02 -0.24214630014E+03  0.36826554889E+03  0.26311390688E+03 0.  0.
         25    1    4    4    0    0  0.62809461120E+01 -0.38066102427E+02 -0.95873066753E+02  0.16225791650E+03  0.12509000000E+03 0.  0.
         25    1    4    4    0    0 -0.69775402770E+02 -0.22960201785E+02 -0.14627323339E+03  0.20600763239E+03  0.12509000000E+03 0.  0.
         25    1    3    3    0    0  0.63494456658E+02  0.61026304213E+02 -0.21986450973E+01  0.15299705217E+03  0.12509000000E+03 0.  0.
<mgrwt>
<rscale>  2 0.46044570E+03</rscale>
<asrwt>0</asrwt>
<pdfrwt beam="1">  1       21 0.20361592E-01 0.46044570E+03</pdfrwt>
<pdfrwt beam="2">  1       21 0.56294673E-01 0.46044570E+03</pdfrwt>
<totfact> 0.61117565E+04</totfact>
</mgrwt>
</event>
<event>
 7    0  0.4709932E-002  0.4531089E+03  0.7546771E-02  0.1026799E+00
         21   -1    0    0  502  501  0.00000000000E+00  0.00000000000E+00  0.60212045861E+02  0.60212045861E+02  0.00000000000E+00 0.  1.
         21   -1    0    0  501  502 -0.00000000000E+00 -0.00000000000E+00 -0.85243615162E+03  0.85243615162E+03  0.00000000000E+00 0.  1.
      99926    2    1    2    0    0  0.00000000000E+00  0.00000000000E+00 -0.79222410576E+03  0.91264819748E+03  0.45310892578E+03 0.  0.
      99925    2    3    3    0    0 -0.80905136703E+02 -0.50599051467E+02 -0.38370252183E+03  0.47487736955E+03  0.26301137940E+03 0.  0.
         25    1    4    4    0    0 -0.65601815100E+02 -0.55557908140E+02 -0.18192945956E+03  0.23693061359E+03  0.12509000000E+03 0.  0.
         25    1    4    4    0    0 -0.15303321603E+02  0.49588566724E+01 -0.20177306227E+03  0.23794675596E+03  0.12509000000E+03 0.  0.
         25    1    3    3    0    0  0.80905136703E+02  0.50599051467E+02 -0.40852158393E+03  0.43777082793E+03  0.12509000000E+03 0.  0.
<mgrwt>
<rscale>  2 0.45310893E+03</rscale>
<asrwt>0</asrwt>
<pdfrwt beam="1">  1       21 0.88547124E-02 0.45310893E+03</pdfrwt>
<pdfrwt beam="2">  1       21 0.12535826E+00 0.45310893E+03</pdfrwt>
<totfact> 0.43329045E+04</totfact>
</mgrwt>
</event>
<event>
 7    0  0.4709932E-002  0.4557798E+03  0.7546771E-02  0.1026012E+00
         21   -1    0    0  502  501  0.00000000000E+00  0.00000000000E+00  0.30453834875E+02  0.30453834875E+02  0.00000000000E+00 0.  1.
         21   -1    0    0  501  502 -0.00000000000E+00 -0.00000000000E+00 -0.17053292866E+04  0.17053292866E+04  0.00000000000E+00 0.  1.
      99926    2    1    2    0    0  0.00000000000E+00  0.14210854715E-13 -0.16748754517E+04  0.17357831214E+04  0.45577984378E+03 0.  0.
      99925    2    3    3    0    0 -0.59471131450E+01  0.11326512478E+03 -0.10932735965E+04  0.11301655997E+04  0.26298815404E+03 0.  0.
         25    1    4    4    0    0 -0.25611297756E+02  0.65039012579E+02 -0.43177483684E+03  0.45493189552E+03  0.12509000000E+03 0.  0.
         25    1    3    3    0    0  0.59471131450E+01 -0.11326512478E+03 -0.58160185514E+03  0.60561752175E+03  0.12509000000E+03 0.  0.
         25    1    4    4    0    0  0.19664184611E+02  0.48226112202E+02 -0.66149875970E+03  0.67523370416E+03  0.12509000000E+03 0.  0.
<mgrwt>
<rscale>  2 0.45577984E+03</rscale>
<asrwt>0</asrwt>
<pdfrwt beam="1">  1       21 0.44785041E-02 0.45577984E+03</pdfrwt>
<pdfrwt beam="2">  1       21 0.25078378E+00 0.45577984E+03</pdfrwt>
<totfact> 0.18414903E+04</totfact>
</mgrwt>
</event>
<event>
 7    0  0.4709932E-002  0.4513197E+03  0.7546771E-02  0.1027329E+00
         21   -1    0    0  502  501  0.00000000000E+00  0.00000000000E+00  0.55670171198E+03  0.55670171198E+03  0.00000000000E+00 0.  1.
         21   -1    0    0  501  502 -0.00000000000E+00 -0.00000000000E+00 -0.91471529631E+02  0.91471529631E+02  0.00000000000E+00 0.  1.
      99926    2    1    2    0    0  0.00000000000E+00  0.35527136788E-14  0.46523018235E+03  0.64817324161E+03  0.45131965232E+03 0.  0.
      99925    2    3    3    0    0 -0.22280561518E+02 -0.24788416802E+02  0.44398860868E+03  0.51698787055E+03  0.26275403827E+03 0.  0.
         25    1    4    4    0    0  0.25972088510E+02 -0.27806908848E+02  0.22034103841E+03  0.25621368986E+03  0.12509000000E+03 0.  0.
         25    1    4    4    0    0 -0.48252650028E+02  0.30184920462E+01  0.22364757026E+03  0.26077418069E+03  0.12509000000E+03 0.  0.
         25    1    3    3    0    0  0.22280561518E+02  0.24788416802E+02  0.21241573670E+02  0.13118537106E+03  0.12509000000E+03 0.  0.
<mgrwt>
<rscale>  2 0.45131965E+03</rscale>
<asrwt>0</asrwt>
<pdfrwt beam="1">  1       21 0.81867897E-01 0.45131965E+03</pdfrwt>
<pdfrwt beam="2">  1       21 0.13451696E-01 0.45131965E+03</pdfrwt>
<totfact> 0.57457028E+04</totfact>
</mgrwt>
</event>
<event>
 7    0  0.4709932E-002  0.4532310E+03  0.7546771E-02  0.1026763E+00
         21   -1    0    0  502  501  0.00000000000E+00  0.00000000000E+00  0.18411952593E+04  0.18411952593E+04  0.00000000000E+00 0. -1.
         21   -1    0    0  501  502 -0.00000000000E+00 -0.00000000000E+00 -0.27891985689E+02  0.27891985689E+02  0.00000000000E+00 0. -1.
      99926    2    1    2    0    0  0.00000000000E+00 -0.17763568394E-14  0.18133032736E+04  0.18690872450E+04  0.45323103082E+03 0.  0.
      99925    2    3    3    0    0 -0.97328444665E+02 -0.10040729912E+02  0.13655198018E+04  0.13939754812E+04  0.26258269284E+03 0.  0.
         25    1    4    4    0    0 -0.73656322736E+02  0.92157932413E+01  0.86583779164E+03  0.87797082768E+03  0.12509000000E+03 0.  0.
         25    1    3    3    0    0  0.97328444665E+02  0.10040729912E+02  0.44778347180E+03  0.47511176381E+03  0.12509000000E+03 0.  0.
         25    1    4    4    0    0 -0.23672121929E+02 -0.19256523153E+02  0.49968201018E+03  0.51600465351E+03  0.12509000000E+03 0.  0.
<mgrwt>
<rscale>  2 0.45323103E+03</rscale>
<asrwt>0</asrwt>
<pdfrwt beam="1">  1       21 0.27076393E+00 0.45323103E+03</pdfrwt>
<pdfrwt beam="2">  1       21 0.41017638E-02 0.45323103E+03</pdfrwt>
<totfact> 0.16188350E+04</totfact>
</mgrwt>
</event>
<event>
 7    0  0.4709932E-002  0.4576107E+03  0.7546771E-02  0.1025476E+00
         21   -1    0    0  502  501  0.00000000000E+00  0.00000000000E+00  0.71382590562E+02  0.71382590562E+02  0.00000000000E+00 0. -1.
         21   -1    0    0  501  502 -0.00000000000E+00 -0.00000000000E+00 -0.73339852891E+03  0.73339852891E+03  0.00000000000E+00 0. -1.
      99926    2    1    2    0    0  0.00000000000E+00  0.00000000000E+00 -0.66201593835E+03  0.80478111948E+03  0.45761069440E+03 0.  0.
      99925    2    3    3    0    0  0.10403344609E+03  0.42115191843E+02 -0.46431163876E+03  0.54529866253E+03  0.26299940337E+03 0.  0.
         25    1    4    4    0    0  0.68528375538E+02  0.93365592453E+01 -0.30660977585E+03  0.33829036691E+03  0.12509000000E+03 0.  0.
         25    1    4    4    0    0  0.35505070552E+02  0.32778632598E+02 -0.15770186291E+03  0.20700829562E+03  0.12509000000E+03 0.  0.
         25    1    3    3    0    0 -0.10403344609E+03 -0.42115191843E+02 -0.19770429959E+03  0.25948245695E+03  0.12509000000E+03 0.  0.
<mgrwt>
<rscale>  2 0.45761069E+03</rscale>
<asrwt>0</asrwt>
<pdfrwt beam="1">  1       21 0.10497440E-01 0.45761069E+03</pdfrwt>
<pdfrwt beam="2">  1       21 0.10785272E+00 0.45761069E+03</pdfrwt>
<totfact> 0.46572903E+04</totfact>
</mgrwt>
</event>
<event>
 7    0  0.4709932E-002  0.4646953E+03  0.7546771E-02  0.1023428E+00
         21   -1    0    0  502  501  0.00000000000E+00  0.00000000000E+00  0.12648532988E+04  0.12648532988E+04  0.00000000000E+00 0.  1.
         21   -1    0    0  501  502 -0.00000000000E+00 -0.00000000000E+00 -0.42681179846E+02  0.42681179846E+02  0.00000000000E+00 0.  1.
      99926    2    1    2    0    0  0.00000000000E+00 -0.14210854715E-13  0.12221721190E+04  0.13075344787E+04  0.46469530287E+03 0.  0.
      99925    2    3    3    0    0 -0.34839028613E+02  0.93492164346E+02  0.56425932766E+03  0.63044416580E+03  0.26290057936E+03 0.  0.
         25    1    3    3    0    0  0.34839028613E+02 -0.93492164346E+02  0.65791279134E+03  0.67709031290E+03  0.12509000000E+03 0.  0.
         25    1    4    4    0    0 -0.52453855191E+01  0.66831004367E+02  0.36709088146E+03  0.39356971500E+03  0.12509000000E+03 0.  0.
         25    1    4    4    0    0 -0.29593643094E+02  0.26661159979E+02  0.19716844620E+03  0.23687445079E+03  0.12509000000E+03 0.  0.
<mgrwt>
<rscale>  2 0.46469530E+03</rscale>
<asrwt>0</asrwt>
<pdfrwt beam="1">  1       21 0.18600781E+00 0.46469530E+03</pdfrwt>
<pdfrwt beam="2">  1       21 0.62766449E-02 0.46469530E+03</pdfrwt>
<totfact> 0.26816420E+04</totfact>
</mgrwt>
</event>
<event>
 7    0  0.4709932E-002  0.4515653E+03  0.7546771E-02  0.1027256E+00
         21   -1    0    0  502  501  0.00000000000E+00  0.00000000000E+00  0.50611393905E+03  0.50611393905E+03  0.00000000000E+00 0.  1.
         21   -1    0    0  501  502 -0.00000000000E+00 -0.00000000000E+00 -0.10072396717E+03  0.10072396717E+03  0.00000000000E+00 0.  1.
      99926    2    1    2    0    0  0.00000000000E+00  0.00000000000E+00  0.40538997188E+03  0.60683790622E+03  0.45156529442E+03 0.  0.
      99925    2    3    3    0    0  0.10383501041E+03 -0.35115270136E+02  0.26931002472E+03  0.39194246257E+03  0.26282353960E+03 0.  0.
         25    1    4    4    0    0  0.76046110239E+02 -0.52324788997E+02  0.14516962162E+03  0.21270313013E+03  0.12509000000E+03 0.  0.
         25    1    3    3    0    0 -0.10383501041E+03  0.35115270136E+02  0.13607994716E+03  0.21489544365E+03  0.12509000000E+03 0.  0.
         25    1    4    4    0    0  0.27788900169E+02  0.17209518861E+02  0.12414040309E+03  0.17923933244E+03  0.12509000000E+03 0.  0.
<mgrwt>
<rscale>  2 0.45156529E+03</rscale>
<asrwt>0</asrwt>
<pdfrwt beam="1">  1       21 0.74428520E-01 0.45156529E+03</pdfrwt>
<pdfrwt beam="2">  1       21 0.14812348E-01 0.45156529E+03</pdfrwt>
<totfact> 0.59867230E+04</totfact>
</mgrwt>
</event>
<event>
 7    0  0.4709932E-002  0.4576071E+03  0.7546771E-02  0.1025478E+00
         21   -1    0    0  502  501  0.00000000000E+00  0.00000000000E+00  0.19230197924E+03  0.19230197924E+03  0.00000000000E+00 0. -1.
         21   -1    0    0  501  502 -0.00000000000E+00 -0.00000000000E+00 -0.27223366251E+03  0.27223366251E+03  0.00000000000E+00 0. -1.
      99926    2    1    2    0    0 -0.14210854715E-13  0.00000000000E+00 -0.79931683264E+02  0.46453564175E+03  0.45760713332E+03 0.  0.
      99925    2    3    3    0    0  0.10121792562E+03 -0.39438003607E+02 -0.90054762959E+02  0.29855248165E+03  0.26310321050E+03 0.  0.
         25    1    4    4    0    0  0.24801621925E+02  0.33199686357E+00 -0.12845119830E+02  0.12817072940E+03  0.12509000000E+03 0.  0.
         25    1    3    3    0    0 -0.10121792562E+03  0.39438003607E+02  0.10123079695E+02  0.16598316010E+03  0.12509000000E+03 0.  0.
         25    1    4    4    0    0  0.76416303691E+02 -0.39770000470E+02 -0.77209643129E+02  0.17038175225E+03  0.12509000000E+03 0.  0.
<mgrwt>
<rscale>  2 0.45760713E+03</rscale>
<asrwt>0</asrwt>
<pdfrwt beam="1">  1       21 0.28279703E-01 0.45760713E+03</pdfrwt>
<pdfrwt beam="2">  1       21 0.40034362E-01 0.45760713E+03</pdfrwt>
<totfact> 0.66456563E+04</totfact>
</mgrwt>
</event>
<event>
 7    0  0.4709932E-002  0.4446399E+03  0.7546771E-02  0.1029333E+00
         21   -1    0    0  502  501  0.00000000000E+00  0.00000000000E+00  0.94364546726E+02  0.94364546726E+02  0.00000000000E+00 0.  1.
         21   -1    0    0  501  502 -0.00000000000E+00 -0.00000000000E+00 -0.52377896857E+03  0.52377896857E+03  0.00000000000E+00 0.  1.
      99926    2    1    2    0    0  0.00000000000E+00  0.00000000000E+00 -0.42941442184E+03  0.61814351529E+03  0.44463992153E+03 0.  0.
      99925    2    3    3    0    0 -0.89212709282E+02 -0.36128813177E+02 -0.32408013232E+03  0.42838835914E+03  0.26310540747E+03 0.  0.
         25    1    3    3    0    0  0.89212709282E+02  0.36128813177E+02 -0.10533428952E+03  0.18975515616E+03  0.12509000000E+03 0.  0.
         25    1    4    4    0    0 -0.60719355511E+02 -0.55984738248E+02 -0.16164583862E+03  0.22044957766E+03  0.12509000000E+03 0.  0.
         25    1    4    4    0    0 -0.28493353771E+02  0.19855925071E+02 -0.16243429370E+03  0.20793878147E+03  0.12509000000E+03 0.  0.
<mgrwt>
<rscale>  2 0.44463992E+03</rscale>
<asrwt>0</asrwt>
<pdfrwt beam="1">  1       21 0.13877139E-01 0.44463992E+03</pdfrwt>
<pdfrwt beam="2">  1       21 0.77026319E-01 0.44463992E+03</pdfrwt>
<totfact> 0.62536239E+04</totfact>
</mgrwt>
</event>
<event>
 7    0  0.4709932E-002  0.4544751E+03  0.7546771E-02  0.1026396E+00
         21   -1    0    0  502  501  0.00000000000E+00  0.00000000000E+00  0.39889006675E+02  0.39889006675E+02  0.00000000000E+00 0.  1.
         21   -1    0    0  501  502 -0.00000000000E+00 -0.00000000000E+00 -0.12945146283E+04  0.12945146283E+04  0.00000000000E+00 0.  1.
      99926    2    1    2    0    0 -0.26645352591E-14  0.00000000000E+00 -0.12546256217E+04  0.13344036350E+04  0.45447509349E+03 0.  0.
      99925    2    3    3    0    0  0.64093092638E+01 -0.51335789574E+02 -0.49607685890E+03  0.56387123717E+03  0.26302486505E+03 0.  0.
         25    1    4    4    0    0 -0.10027860143E+02 -0.94902791837E+00 -0.17603136282E+03  0.21618512305E+03  0.12509000000E+03 0.  0.
         25    1    4    4    0    0  0.16437169407E+02 -0.50386761656E+02 -0.32004549608E+03  0.34768611412E+03  0.12509000000E+03 0.  0.
         25    1    3    3    0    0 -0.64093092638E+01  0.51335789574E+02 -0.75854876276E+03  0.77053239784E+03  0.12509000000E+03 0.  0.
<mgrwt>
<rscale>  2 0.45447509E+03</rscale>
<asrwt>0</asrwt>
<pdfrwt beam="1">  1       21 0.58660298E-02 0.45447509E+03</pdfrwt>
<pdfrwt beam="2">  1       21 0.19036982E+00 0.45447509E+03</pdfrwt>
<totfact> 0.28246839E+04</totfact>
</mgrwt>
</event>
<event>
 7    0  0.4709932E-002  0.4431091E+03  0.7546771E-02  0.1029797E+00
         21   -1    0    0  502  501  0.00000000000E+00  0.00000000000E+00  0.65772206753E+02  0.65772206753E+02  0.00000000000E+00 0.  1.
         21   -1    0    0  501  502 -0.00000000000E+00 -0.00000000000E+00 -0.74630940432E+03  0.74630940432E+03  0.00000000000E+00 0.  1.
      99926    2    1    2    0    0  0.00000000000E+00 -0.17763568394E-14 -0.68053719757E+03  0.81208161107E+03  0.44310909015E+03 0.  0.
      99925    2    3    3    0    0 -0.65869406315E+02  0.72858974698E+01 -0.29158340251E+03  0.39816806240E+03  0.26291645499E+03 0.  0.
         25    1    3    3    0    0  0.65869406315E+02 -0.72858974698E+01 -0.38895379505E+03  0.41391354868E+03  0.12509000000E+03 0.  0.
         25    1    4    4    0    0  0.48409867824E+01 -0.12206907563E+02 -0.14561257776E+03  0.19241355110E+03  0.12509000000E+03 0.  0.
         25    1    4    4    0    0 -0.70710393098E+02  0.19492805033E+02 -0.14597082476E+03  0.20575451130E+03  0.12509000000E+03 0.  0.
<mgrwt>
<rscale>  2 0.44310909E+03</rscale>
<asrwt>0</asrwt>
<pdfrwt beam="1">  1       21 0.96723832E-02 0.44310909E+03</pdfrwt>
<pdfrwt beam="2">  1       21 0.10975139E+00 0.44310909E+03</pdfrwt>
<totfact> 0.51858161E+04</totfact>
</mgrwt>
</event>
<event>
 7    0  0.4709932E-002  0.4489161E+03  0.7546771E-02  0.1028046E+00
         21   -1    0    0  502  501  0.00000000000E+00  0.00000000000E+00  0.22123513376E+04  0.22123513376E+04  0.00000000000E+00 0. -1.
         21   -1    0    0  501  502 -0.00000000000E+00 -0.00000000000E+00 -0.22772793528E+02  0.22772793528E+02  0.00000000000E+00 0. -1.
      99926    2    1    2    0    0 -0.71054273576E-14  0.88817841970E-15  0.21895785440E+04  0.22351241311E+04  0.44891611787E+03 0.  0.
      99925    2    3    3    0    0  0.42685095411E+02  0.52471599227E+00  0.18759878979E+04  0.18948170725E+04  0.26301873011E+03 0.  0.
         25    1    4    4    0    0  0.23373168165E+01 -0.34806016622E+02  0.97380419293E+03  0.98242507913E+03  0.12509000000E+03 0.  0.
         25    1    4    4    0    0  0.40347778595E+02  0.35330732614E+02  0.90218370501E+03  0.91239199338E+03  0.12509000000E+03 0.  0.
         25    1    3    3    0    0 -0.42685095411E+02 -0.52471599227E+00  0.31359064611E+03  0.34030705859E+03  0.12509000000E+03 0.  0.
<mgrwt>
<rscale>  2 0.44891612E+03</rscale>
<asrwt>0</asrwt>
<pdfrwt beam="1">  1       21 0.32534564E+00 0.44891612E+03</pdfrwt>
<pdfrwt beam="2">  1       21 0.33489418E-02 0.44891612E+03</pdfrwt>
<totfact> 0.10735261E+04</totfact>
</mgrwt>
</event>
<event>
 7    0  0.4709932E-002  0.4599047E+03  0.7546771E-02  0.1024809E+00
         21   -1    0    0  502  501  0.00000000000E+00  0.00000000000E+00  0.59988464519E+03  0.59988464519E+03  0.00000000000E+00 0.  1.
         21   -1    0    0  501  502 -0.00000000000E+00 -0.00000000000E+00 -0.88147071130E+02  0.88147071130E+02  0.00000000000E+00 0.  1.
      99926    2    1    2    0    0 -0.14210854715E-13  0.00000000000E+00  0.51173757406E+03  0.68803171632E+03  0.45990466181E+03 0.  0.
      99925    2    3    3    0    0 -0.98297004010E+02  0.63553018676E+02  0.30143105567E+03  0.41677975419E+03  0.26295131679E+03 0.  0.
         25    1    4    4    0    0 -0.15678652746E+02  0.54276120041E+02  0.15455289856E+03  0.20670225909E+03  0.12509000000E+03 0.  0.
         25    1    4    4    0    0 -0.82618351264E+02  0.92768986357E+01  0.14687815711E+03  0.21007749510E+03  0.12509000000E+03 0.  0.
         25    1    3    3    0    0  0.98297004010E+02 -0.63553018676E+02  0.21030651838E+03  0.27125196212E+03  0.12509000000E+03 0.  0.
<mgrwt>
<rscale>  2 0.45990466E+03</rscale>
<asrwt>0</asrwt>
<pdfrwt beam="1">  1       21 0.88218328E-01 0.45990466E+03</pdfrwt>
<pdfrwt beam="2">  1       21 0.12962805E-01 0.45990466E+03</pdfrwt>
<totfact> 0.51538459E+04</totfact>
</mgrwt>
</event>
<event>
 7    0  0.4709932E-002  0.4558973E+03  0.7546771E-02  0.1025978E+00
         21   -1    0    0  502  501  0.00000000000E+00  0.00000000000E+00  0.11413043544E+03  0.11413043544E+03  0.00000000000E+00 0.  1.
         21   -1    0    0  501  502 -0.00000000000E+00 -0.00000000000E+00 -0.45527373517E+03  0.45527373517E+03  0.00000000000E+00 0.  1.
      99926    2    1    2    0    0  0.00000000000E+00 -0.35527136788E-14 -0.34114329973E+03  0.56940417060E+03  0.45589731141E+03 0.  0.
      99925    2    3    3    0    0  0.27989248590E+02  0.29175946556E+02 -0.81157445935E+02  0.27807139495E+03  0.26287361177E+03 0.  0.
         25    1    4    4    0    0  0.44023276973E+02  0.24605884238E+02 -0.68414533989E+02  0.15123344543E+03  0.12509000000E+03 0.  0.
         25    1    3    3    0    0 -0.27989248590E+02 -0.29175946556E+02 -0.25998585380E+03  0.29133277565E+03  0.12509000000E+03 0.  0.
         25    1    4    4    0    0 -0.16034028383E+02  0.45700623180E+01 -0.12742911946E+02  0.12683794953E+03  0.12509000000E+03 0.  0.
<mgrwt>
<rscale>  2 0.45589731E+03</rscale>
<asrwt>0</asrwt>
<pdfrwt beam="1">  1       21 0.16783888E-01 0.45589731E+03</pdfrwt>
<pdfrwt beam="2">  1       21 0.66952019E-01 0.45589731E+03</pdfrwt>
<totfact> 0.60174059E+04</totfact>
</mgrwt>
</event>
<event>
 7    0  0.4709932E-002  0.4589175E+03  0.7546771E-02  0.1025096E+00
         21   -1    0    0  502  501  0.00000000000E+00  0.00000000000E+00  0.77649183513E+03  0.77649183513E+03  0.00000000000E+00 0.  1.
         21   -1    0    0  501  502 -0.00000000000E+00 -0.00000000000E+00 -0.67806646150E+02  0.67806646150E+02  0.00000000000E+00 0.  1.
      99926    2    1    2    0    0  0.00000000000E+00  0.00000000000E+00  0.70868518898E+03  0.84429848128E+03  0.45891745272E+03 0.  0.
      99925    2    3    3    0    0  0.82970043867E+02  0.66661551188E+02  0.53275715799E+03  0.60362033359E+03  0.26305803000E+03 0.  0.
         25    1    4    4    0    0  0.57411741923E+02  0.17636816416E+02  0.19596034120E+03  0.24011482425E+03  0.12509000000E+03 0.  0.
         25    1    3    3    0    0 -0.82970043867E+02 -0.66661551188E+02  0.17592803099E+03  0.24067814768E+03  0.12509000000E+03 0.  0.
         25    1    4    4    0    0  0.25558301944E+02  0.49024734772E+02  0.33679681679E+03  0.36350550934E+03  0.12509000000E+03 0.  0.
<mgrwt>
<rscale>  2 0.45891745E+03</rscale>
<asrwt>0</asrwt>
<pdfrwt beam="1">  1       21 0.11418997E+00 0.45891745E+03</pdfrwt>
<pdfrwt beam="2">  1       21 0.99715661E-02 0.45891745E+03</pdfrwt>
<totfact> 0.44317725E+04</totfact>
</mgrwt>
</event>
<event>
 7    0  0.4709932E-002  0.4559946E+03  0.7546771E-02  0.1025949E+00
         21   -1    0    0  502  501  0.00000000000E+00  0.00000000000E+00  0.10128806195E+03  0.10128806195E+03  0.00000000000E+00 0. -1.
         21   -1    0    0  501  502 -0.00000000000E+00 -0.00000000000E+00 -0.51321710268E+03  0.51321710268E+03  0.00000000000E+00 0. -1.
      99926    2    1    2    0    0  0.00000000000E+00  0.00000000000E+00 -0.41192904073E+03  0.61450516463E+03  0.45599458632E+03 0.  0.
      99925    2    3    3    0    0  0.10138309374E+03 -0.52060075455E+02 -0.25835482245E+03  0.38598529290E+03  0.26315138020E+03 0.  0.
         25    1    4    4    0    0  0.47071718791E+02 -0.11738545717E+02 -0.17715735375E+03  0.22222910757E+03  0.12509000000E+03 0.  0.
         25    1    4    4    0    0  0.54311374953E+02 -0.40321529737E+02 -0.81197468700E+02  0.16375618533E+03  0.12509000000E+03 0.  0.
         25    1    3    3    0    0 -0.10138309374E+03  0.52060075455E+02 -0.15357421828E+03  0.22851987173E+03  0.12509000000E+03 0.  0.
<mgrwt>
<rscale>  2 0.45599459E+03</rscale>
<asrwt>0</asrwt>
<pdfrwt beam="1">  1       21 0.14895303E-01 0.45599459E+03</pdfrwt>
<pdfrwt beam="2">  1       21 0.75473103E-01 0.45599459E+03</pdfrwt>
<totfact> 0.57342444E+04</totfact>
</mgrwt>
</event>
<event>
 7    0  0.4709932E-002  0.4311057E+03  0.7546771E-02  0.1033511E+00
         21   -1    0    0  502  501  0.00000000000E+00  0.00000000000E+00  0.54694851966E+03  0.54694851966E+03  0.00000000000E+00 0. -1.
         21   -1    0    0  501  502 -0.00000000000E+00 -0.00000000000E+00 -0.84949558710E+02  0.84949558710E+02  0.00000000000E+00 0. -1.
      99926    2    1    2    0    0  0.00000000000E+00 -0.35527136788E-14  0.46199896095E+03  0.63189807837E+03  0.43110571967E+03 0.  0.
      99925    2    3    3    0    0  0.81530420652E+02 -0.30821132520E+02  0.27179327257E+03  0.38813002531E+03  0.26301365332E+03 0.  0.
         25    1    4    4    0    0  0.77010236982E+02 -0.37704741685E+02  0.14468407342E+03  0.20960251274E+03  0.12509000000E+03 0.  0.
         25    1    3    3    0    0 -0.81530420652E+02  0.30821132520E+02  0.19020568838E+03  0.24376805306E+03  0.12509000000E+03 0.  0.
         25    1    4    4    0    0  0.45201836699E+01  0.68836091655E+01  0.12710919915E+03  0.17852751257E+03  0.12509000000E+03 0.  0.
<mgrwt>
<rscale>  2 0.43110572E+03</rscale>
<asrwt>0</asrwt>
<pdfrwt beam="1">  1       21 0.80433604E-01 0.43110572E+03</pdfrwt>
<pdfrwt beam="2">  1       21 0.12492582E-01 0.43110572E+03</pdfrwt>
<totfact> 0.68847583E+04</totfact>
</mgrwt>
</event>
<event>
 7    0  0.4709932E-002  0.4500077E+03  0.7546771E-02  0.1027720E+00
         21   -1    0    0  502  501  0.00000000000E+00  0.00000000000E+00  0.81542415415E+02  0.81542415415E+02  0.00000000000E+00 0. -1.
         21   -1    0    0  501  502 -0.00000000000E+00 -0.00000000000E+00 -0.62086383996E+03  0.62086383996E+03  0.00000000000E+00 0. -1.
      99926    2    1    2    0    0 -0.71054273576E-14  0.17763568394E-14 -0.53932142455E+03  0.70240625538E+03  0.45000772062E+03 0.  0.
      99925    2    3    3    0    0 -0.40479642776E+02  0.67941647679E+01 -0.18401837302E+03  0.32349659771E+03  0.26287359122E+03 0.  0.
         25    1    4    4    0    0 -0.48657450499E+02 -0.24002062708E+02 -0.83439688303E+02  0.15985410907E+03  0.12509000000E+03 0.  0.
         25    1    4    4    0    0  0.81778077235E+01  0.30796227476E+02 -0.10057868472E+03  0.16364248863E+03  0.12509000000E+03 0.  0.
         25    1    3    3    0    0  0.40479642776E+02 -0.67941647679E+01 -0.35530305152E+03  0.37890965767E+03  0.12509000000E+03 0.  0.
<mgrwt>
<rscale>  2 0.45000772E+03</rscale>
<asrwt>0</asrwt>
<pdfrwt beam="1">  1       21 0.11991532E-01 0.45000772E+03</pdfrwt>
<pdfrwt beam="2">  1       21 0.91303506E-01 0.45000772E+03</pdfrwt>
<totfact> 0.54897585E+04</totfact>
</mgrwt>
</event>
<event>
 7    0  0.4709932E-002  0.4419201E+03  0.7546771E-02  0.1030159E+00
         21   -1    0    0  502  501  0.00000000000E+00  0.00000000000E+00  0.38888145878E+03  0.38888145878E+03  0.00000000000E+00 0. -1.
         21   -1    0    0  501  502 -0.00000000000E+00 -0.00000000000E+00 -0.12554812765E+03  0.12554812765E+03  0.00000000000E+00 0. -1.
      99926    2    1    2    0    0 -0.71054273576E-14  0.00000000000E+00  0.26333333113E+03  0.51442958643E+03  0.44192007887E+03 0.  0.
      99925    2    3    3    0    0 -0.42853545076E+02  0.55330890548E+02  0.25160651470E+03  0.37061387067E+03  0.26296552839E+03 0.  0.
         25    1    4    4    0    0  0.26006852160E+01  0.57814811943E+02  0.14516872672E+03  0.20017688019E+03  0.12509000000E+03 0.  0.
         25    1    4    4    0    0 -0.45454230292E+02 -0.24839213948E+01  0.10643778797E+03  0.17043699049E+03  0.12509000000E+03 0.  0.
         25    1    3    3    0    0  0.42853545076E+02 -0.55330890548E+02  0.11726816432E+02  0.14381571575E+03  0.12509000000E+03 0.  0.
<mgrwt>
<rscale>  2 0.44192008E+03</rscale>
<asrwt>0</asrwt>
<pdfrwt beam="1">  1       21 0.57188449E-01 0.44192008E+03</pdfrwt>
<pdfrwt beam="2">  1       21 0.18462960E-01 0.44192008E+03</pdfrwt>
<totfact> 0.71392249E+04</totfact>
</mgrwt>
</event>
<event>
 7    0  0.4709932E-002  0.4559675E+03  0.7546771E-02  0.1025957E+00
         21   -1    0    0  502  501  0.00000000000E+00  0.00000000000E+00  0.31281065860E+02  0.31281065860E+02  0.00000000000E+00 0.  1.
         21   -1    0    0  501  502 -0.00000000000E+00 -0.00000000000E+00 -0.16615990998E+04  0.16615990998E+04  0.00000000000E+00 0.  1.
      99926    2    1    2    0    0  0.17763568394E-14 -0.71054273576E-14 -0.16303180339E+04  0.16928801656E+04  0.45596750267E+03 0.  0.
      99925    2    3    3    0    0 -0.94592740357E+01  0.41893482330E+02 -0.14174866871E+04  0.14423023693E+04  0.26291267498E+03 0.  0.
         25    1    4    4    0    0 -0.28826337243E+02  0.34542505252E+02 -0.56436342197E+03  0.57980834984E+03  0.12509000000E+03 0.  0.
         25    1    4    4    0    0  0.19367063207E+02  0.73509770780E+01 -0.85312326513E+03  0.86249401947E+03  0.12509000000E+03 0.  0.
         25    1    3    3    0    0  0.94592740357E+01 -0.41893482330E+02 -0.21283134681E+03  0.25057779632E+03  0.12509000000E+03 0.  0.
<mgrwt>
<rscale>  2 0.45596750E+03</rscale>
<asrwt>0</asrwt>
<pdfrwt beam="1">  1       21 0.46001559E-02 0.45596750E+03</pdfrwt>
<pdfrwt beam="2">  1       21 0.24435285E+00 0.45596750E+03</pdfrwt>
<totfact> 0.19264998E+04</totfact>
</mgrwt>
</event>
<event>
 7    0  0.4709932E-002  0.4559983E+03  0.7546771E-02  0.1025948E+00
         21   -1    0    0  502  501  0.00000000000E+00  0.00000000000E+00  0.50473725779E+02  0.50473725779E+02  0.00000000000E+00 0. -1.
         21   -1    0    0  501  502 -0.00000000000E+00 -0.00000000000E+00 -0.10299144873E+04  0.10299144873E+04  0.00000000000E+00 0. -1.
      99926    2    1    2    0    0 -0.14210854715E-13  0.14210854715E-13 -0.97944076156E+03  0.10803882131E+04  0.45599833951E+03 0.  0.
      99925    2    3    3    0    0  0.44343124681E+02 -0.86021742615E+02 -0.75896086293E+03  0.80904904029E+03  0.26300704407E+03 0.  0.
         25    1    4    4    0    0  0.56679720513E+02 -0.60181134321E+02 -0.45643052442E+03  0.48042761304E+03  0.12509000000E+03 0.  0.
         25    1    3    3    0    0 -0.44343124681E+02  0.86021742615E+02 -0.22047989862E+03  0.27133917282E+03  0.12509000000E+03 0.  0.
         25    1    4    4    0    0 -0.12336595832E+02 -0.25840608294E+02 -0.30253033851E+03  0.32862142726E+03  0.12509000000E+03 0.  0.
<mgrwt>
<rscale>  2 0.45599834E+03</rscale>
<asrwt>0</asrwt>
<pdfrwt beam="1">  1       21 0.74226070E-02 0.45599834E+03</pdfrwt>
<pdfrwt beam="2">  1       21 0.15145801E+00 0.45599834E+03</pdfrwt>
<totfact> 0.35901244E+04</totfact>
</mgrwt>
</event>
<event>
 7    0  0.4709932E-002  0.4179570E+03  0.7546771E-02  0.1037733E+00
         21   -1    0    0  502  501  0.00000000000E+00  0.00000000000E+00  0.73730700713E+02  0.73730700713E+02  0.00000000000E+00 0. -1.
         21   -1    0    0  501  502 -0.00000000000E+00 -0.00000000000E+00 -0.59231801528E+03  0.59231801528E+03  0.00000000000E+00 0. -1.
      99926    2    1    2    0    0  0.00000000000E+00  0.00000000000E+00 -0.51858731456E+03  0.66604871599E+03  0.41795704234E+03 0.  0.
      99925    2    3    3    0    0 -0.39687237854E+02 -0.43105472697E+02 -0.40928388261E+03  0.48990131475E+03  0.26278668727E+03 0.  0.
         25    1    4    4    0    0 -0.29806782757E+02 -0.52104513987E+02 -0.25978031613E+03  0.29451085790E+03  0.12509000000E+03 0.  0.
         25    1    4    4    0    0 -0.98804550973E+01  0.89990412905E+01 -0.14950356648E+03  0.19539045685E+03  0.12509000000E+03 0.  0.
         25    1    3    3    0    0  0.39687237854E+02  0.43105472697E+02 -0.10930343195E+03  0.17614740123E+03  0.12509000000E+03 0.  0.
<mgrwt>
<rscale>  2 0.41795704E+03</rscale>
<asrwt>0</asrwt>
<pdfrwt beam="1">  1       21 0.10842750E-01 0.41795704E+03</pdfrwt>
<pdfrwt beam="2">  1       21 0.87105590E-01 0.41795704E+03</pdfrwt>
<totfact> 0.74174152E+04</totfact>
</mgrwt>
</event>
<event>
 7    0  0.4709932E-002  0.4572643E+03  0.7546771E-02  0.1025578E+00
         21   -1    0    0  502  501  0.00000000000E+00  0.00000000000E+00  0.15881149491E+03  0.15881149491E+03  0.00000000000E+00 0. -1.
         21   -1    0    0  501  502 -0.00000000000E+00 -0.00000000000E+00 -0.32914906920E+03  0.32914906920E+03  0.00000000000E+00 0. -1.
      99926    2    1    2    0    0  0.00000000000E+00  0.00000000000E+00 -0.17033757429E+03  0.48796056411E+03  0.45726428125E+03 0.  0.
      99925    2    3    3    0    0  0.37402301619E+02 -0.83221021710E+02 -0.18215452438E+03  0.33268075528E+03  0.26300483561E+03 0.  0.
         25    1    4    4    0    0  0.10830330659E+02  0.16532128743E+00 -0.87781451311E+02  0.15320057013E+03  0.12509000000E+03 0.  0.
         25    1    4    4    0    0  0.26571970960E+02 -0.83386342998E+02 -0.94373073073E+02  0.17948018515E+03  0.12509000000E+03 0.  0.
         25    1    3    3    0    0 -0.37402301619E+02  0.83221021710E+02  0.11816950098E+02  0.15527980883E+03  0.12509000000E+03 0.  0.
<mgrwt>
<rscale>  2 0.45726428E+03</rscale>
<asrwt>0</asrwt>
<pdfrwt beam="1">  1       21 0.23354632E-01 0.45726428E+03</pdfrwt>
<pdfrwt beam="2">  1       21 0.48404274E-01 0.45726428E+03</pdfrwt>
<totfact> 0.64949691E+04</totfact>
</mgrwt>
</event>
<event>
 7    0  0.4709932E-002  0.4444093E+03  0.7546771E-02  0.1029402E+00
         21   -1    0    0  502  501  0.00000000000E+00  0.00000000000E+00  0.31532550809E+03  0.31532550809E+03  0.00000000000E+00 0. -1.
         21   -1    0    0  501  502 -0.00000000000E+00 -0.00000000000E+00 -0.15658391696E+03  0.15658391696E+03  0.00000000000E+00 0. -1.
      99926    2    1    2    0    0  0.00000000000E+00  0.00000000000E+00  0.15874159113E+03  0.47190942504E+03  0.44440928511E+03 0.  0.
      99925    2    3    3    0    0  0.48607787203E+02  0.62885542847E+02  0.17180493134E+03  0.32312949551E+03  0.26187483262E+03 0.  0.
         25    1    4    4    0    0  0.20928146395E+01  0.15665897285E+02  0.47501114002E+02  0.13473553407E+03  0.12509000000E+03 0.  0.
         25    1    4    4    0    0  0.46514972563E+02  0.47219645562E+02  0.12430381733E+03  0.18839396143E+03  0.12509000000E+03 0.  0.
         25    1    3    3    0    0 -0.48607787203E+02 -0.62885542847E+02 -0.13063340206E+02  0.14877992954E+03  0.12509000000E+03 0.  0.
<mgrwt>
<rscale>  2 0.44440929E+03</rscale>
<asrwt>0</asrwt>
<pdfrwt beam="1">  1       21 0.46371398E-01 0.44440929E+03</pdfrwt>
<pdfrwt beam="2">  1       21 0.23027047E-01 0.44440929E+03</pdfrwt>
<totfact> 0.73261021E+04</totfact>
</mgrwt>
</event>
<event>
 7    0  0.4709932E-002  0.4518276E+03  0.7546771E-02  0.1027178E+00
         21   -1    0    0  502  501  0.00000000000E+00  0.00000000000E+00  0.46307791887E+03  0.46307791887E+03  0.00000000000E+00 0.  1.
         21   -1    0    0  501  502 -0.00000000000E+00 -0.00000000000E+00 -0.11021265595E+03  0.11021265595E+03  0.00000000000E+00 0.  1.
      99926    2    1    2    0    0 -0.35527136788E-14 -0.14210854715E-13  0.35286526292E+03  0.57329057482E+03  0.45182761026E+03 0.  0.
      99925    2    3    3    0    0  0.20874081383E+02  0.83136403421E+02  0.31073361947E+03  0.41590578417E+03  0.26282094701E+03 0.  0.
         25    1    4    4    0    0  0.31318919641E+02  0.36812855489E+02  0.20682876676E+03  0.24649890044E+03  0.12509000000E+03 0.  0.
         25    1    4    4    0    0 -0.10444838258E+02  0.46323547932E+02  0.10390485271E+03  0.16940688373E+03  0.12509000000E+03 0.  0.
         25    1    3    3    0    0 -0.20874081383E+02 -0.83136403421E+02  0.42131643455E+02  0.15738479065E+03  0.12509000000E+03 0.  0.
<mgrwt>
<rscale>  2 0.45182761E+03</rscale>
<asrwt>0</asrwt>
<pdfrwt beam="1">  1       21 0.68099693E-01 0.45182761E+03</pdfrwt>
<pdfrwt beam="2">  1       21 0.16207744E-01 0.45182761E+03</pdfrwt>
<totfact> 0.61891125E+04</totfact>
</mgrwt>
</event>
<event>
 7    0  0.4709932E-002  0.4542623E+03  0.7546771E-02  0.1026459E+00
         21   -1    0    0  502  501  0.00000000000E+00  0.00000000000E+00  0.25306533070E+03  0.25306533070E+03  0.00000000000E+00 0.  1.
         21   -1    0    0  501  502 -0.00000000000E+00 -0.00000000000E+00 -0.20385471973E+03  0.20385471973E+03  0.00000000000E+00 0.  1.
      99926    2    1    2    0    0  0.00000000000E+00  0.14210854715E-13  0.49210610971E+02  0.45692005043E+03  0.45426231217E+03 0.  0.
      99925    2    3    3    0    0  0.33650298447E+02  0.99557003079E+02  0.71283737584E+02  0.29206050274E+03  0.26300955604E+03 0.  0.
         25    1    4    4    0    0  0.50307416935E+02  0.45382224834E+02  0.12931842347E+02  0.14284650215E+03  0.12509000000E+03 0.  0.
         25    1    3    3    0    0 -0.33650298447E+02 -0.99557003079E+02 -0.22073126613E+02  0.16485954769E+03  0.12509000000E+03 0.  0.
         25    1    4    4    0    0 -0.16657118487E+02  0.54174778245E+02  0.58351895237E+02  0.14921400059E+03  0.12509000000E+03 0.  0.
<mgrwt>
<rscale>  2 0.45426231E+03</rscale>
<asrwt>0</asrwt>
<pdfrwt beam="1">  1       21 0.37215490E-01 0.45426231E+03</pdfrwt>
<pdfrwt beam="2">  1       21 0.29978635E-01 0.45426231E+03</pdfrwt>
<totfact> 0.68809411E+04</totfact>
</mgrwt>
</event>
<event>
 7    0  0.4709932E-002  0.4525420E+03  0.7546771E-02  0.1026967E+00
         21   -1    0    0  502  501  0.00000000000E+00  0.00000000000E+00  0.15710059564E+02  0.15710059564E+02  0.00000000000E+00 0. -1.
         21   -1    0    0  501  502 -0.00000000000E+00 -0.00000000000E+00 -0.32589666018E+04  0.32589666018E+04  0.00000000000E+00 0. -1.
      99926    2    1    2    0    0  0.00000000000E+00  0.71054273576E-14 -0.32432565422E+04  0.32746766613E+04  0.45254197343E+03 0.  0.
      99925    2    3    3    0    0  0.31844656848E+02  0.62256773895E+02 -0.26679022603E+04  0.26817432369E+04  0.26297210840E+03 0.  0.
         25    1    4    4    0    0  0.14680420080E+02  0.69712851803E+00 -0.15366684768E+04  0.15418214930E+04  0.12509000000E+03 0.  0.
         25    1    4    4    0    0  0.17164236768E+02  0.61559645377E+02 -0.11312337835E+04  0.11399217438E+04  0.12509000000E+03 0.  0.
         25    1    3    3    0    0 -0.31844656848E+02 -0.62256773895E+02 -0.57535428190E+03  0.59293342448E+03  0.12509000000E+03 0.  0.
<mgrwt>
<rscale>  2 0.45254197E+03</rscale>
<asrwt>0</asrwt>
<pdfrwt beam="1">  1       21 0.23103019E-02 0.45254197E+03</pdfrwt>
<pdfrwt beam="2">  1       21 0.47925999E+00 0.45254197E+03</pdfrwt>
<totfact> 0.20248094E+03</totfact>
</mgrwt>
</event>
<event>
 7    0  0.4709932E-002  0.4539742E+03  0.7546771E-02  0.1026543E+00
         21   -1    0    0  502  501  0.00000000000E+00  0.00000000000E+00  0.43635484939E+02  0.43635484939E+02  0.00000000000E+00 0.  1.
         21   -1    0    0  501  502 -0.00000000000E+00 -0.00000000000E+00 -0.11807626122E+04  0.11807626122E+04  0.00000000000E+00 0.  1.
      99926    2    1    2    0    0  0.00000000000E+00  0.00000000000E+00 -0.11371271272E+04  0.12243980971E+04  0.45397422473E+03 0.  0.
      99925    2    3    3    0    0  0.48419665454E+02 -0.90566865606E+02 -0.83739459191E+03  0.88376057425E+03  0.26316578214E+03 0.  0.
         25    1    3    3    0    0 -0.48419665454E+02  0.90566865606E+02 -0.29973253530E+03  0.34063752284E+03  0.12509000000E+03 0.  0.
         25    1    4    4    0    0  0.42713173735E+02 -0.91463594701E+01 -0.42328295559E+03  0.44353583812E+03  0.12509000000E+03 0.  0.
         25    1    4    4    0    0  0.57064917184E+01 -0.81420506136E+02 -0.41411163632E+03  0.44022473613E+03  0.12509000000E+03 0.  0.
<mgrwt>
<rscale>  2 0.45397422E+03</rscale>
<asrwt>0</asrwt>
<pdfrwt beam="1">  1       21 0.64169831E-02 0.45397422E+03</pdfrwt>
<pdfrwt beam="2">  1       21 0.17364156E+00 0.45397422E+03</pdfrwt>
<totfact> 0.31643755E+04</totfact>
</mgrwt>
</event>
<event>
 6    0  0.4709932E-002  0.4549344E+03  0.7546771E-02  0.1026261E+00
         21   -1    0    0  502  501  0.00000000000E+00  0.00000000000E+00  0.14142670647E+04  0.14142670647E+04  0.00000000000E+00 0. -1.
         21   -1    0    0  501  502 -0.00000000000E+00 -0.00000000000E+00 -0.36585254104E+02  0.36585254104E+02  0.00000000000E+00 0. -1.
      99926    2    1    2    0    0  0.00000000000E+00 -0.71054273576E-14  0.13776818106E+04  0.14508523188E+04  0.45493436860E+03 0.  0.
         25    1    3    3    0    0  0.59405030031E+02  0.26883616410E+02  0.37534391088E+03  0.40097661522E+03  0.12509000000E+03 0.  0.
         25    1    3    3    0    0  0.44743463200E+02 -0.60701956068E+02  0.46118555064E+03  0.48376267445E+03  0.12509000000E+03 0.  0.
         25    1    3    3    0    0 -0.10414849323E+03  0.33818339659E+02  0.54115234907E+03  0.56611302913E+03  0.12509000000E+03 0.  0.
<mgrwt>
<rscale>  2 0.45493437E+03</rscale>
<asrwt>0</asrwt>
<pdfrwt beam="1">  1       21 0.20798041E+00 0.45493437E+03</pdfrwt>
<pdfrwt beam="2">  1       21 0.53801854E-02 0.45493437E+03</pdfrwt>
<totfact> 0.25020559E+04</totfact>
</mgrwt>
</event>
<event>
 7    0  0.4709932E-002  0.4553145E+03  0.7546771E-02  0.1026149E+00
         21   -1    0    0  502  501  0.00000000000E+00  0.00000000000E+00  0.61339246523E+03  0.61339246523E+03  0.00000000000E+00 0.  1.
         21   -1    0    0  501  502 -0.00000000000E+00 -0.00000000000E+00 -0.84493729796E+02  0.84493729796E+02  0.00000000000E+00 0.  1.
      99926    2    1    2    0    0  0.00000000000E+00 -0.14210854715E-13  0.52889873544E+03  0.69788619503E+03  0.45531447250E+03 0.  0.
      99925    2    3    3    0    0  0.52656515777E+01 -0.10679287488E+03  0.39125002959E+03  0.48334687571E+03  0.26289764434E+03 0.  0.
         25    1    4    4    0    0  0.92558387069E+00 -0.98284402473E+01  0.17302824107E+03  0.21373753823E+03  0.12509000000E+03 0.  0.
         25    1    3    3    0    0 -0.52656515777E+01  0.10679287488E+03  0.13764870585E+03  0.21453931931E+03  0.12509000000E+03 0.  0.
         25    1    4    4    0    0  0.43400677070E+01 -0.96964434628E+02  0.21822178852E+03  0.26960933748E+03  0.12509000000E+03 0.  0.
<mgrwt>
<rscale>  2 0.45531447E+03</rscale>
<asrwt>0</asrwt>
<pdfrwt beam="1">  1       21 0.90204772E-01 0.45531447E+03</pdfrwt>
<pdfrwt beam="2">  1       21 0.12425549E-01 0.45531447E+03</pdfrwt>
<totfact> 0.52886867E+04</totfact>
</mgrwt>
</event>
<event>
 7    0  0.4709932E-002  0.4574462E+03  0.7546771E-02  0.1025524E+00
         21   -1    0    0  502  501  0.00000000000E+00  0.00000000000E+00  0.47106656071E+03  0.47106656071E+03  0.00000000000E+00 0. -1.
         21   -1    0    0  501  502 -0.00000000000E+00 -0.00000000000E+00 -0.11105491459E+03  0.11105491459E+03  0.00000000000E+00 0. -1.
      99926    2    1    2    0    0 -0.17763568394E-14  0.71054273576E-14  0.36001164613E+03  0.58212147530E+03  0.45744620083E+03 0.  0.
      99925    2    3    3    0    0  0.15089751996E+02 -0.41534871551E+02  0.36127040826E+03  0.44944917694E+03  0.26369567421E+03 0.  0.
         25    1    4    4    0    0 -0.20925604826E+02 -0.31737310794E+02  0.13305973649E+03  0.18654098587E+03  0.12509000000E+03 0.  0.
         25    1    4    4    0    0  0.36015356822E+02 -0.97975607568E+01  0.22821067177E+03  0.26290819107E+03  0.12509000000E+03 0.  0.
         25    1    3    3    0    0 -0.15089751996E+02  0.41534871551E+02 -0.12587621318E+01  0.13267229836E+03  0.12509000000E+03 0.  0.
<mgrwt>
<rscale>  2 0.45744620E+03</rscale>
<asrwt>0</asrwt>
<pdfrwt beam="1">  1       21 0.69274494E-01 0.45744620E+03</pdfrwt>
<pdfrwt beam="2">  1       21 0.16331605E-01 0.45744620E+03</pdfrwt>
<totfact> 0.58650027E+04</totfact>
</mgrwt>
</event>
<event>
 7    0  0.4709932E-002  0.4630750E+03  0.7546771E-02  0.1023893E+00
         21   -1    0    0  502  501  0.00000000000E+00  0.00000000000E+00  0.15541120362E+04  0.15541120362E+04  0.00000000000E+00 0.  1.
         21   -1    0    0  501  502 -0.00000000000E+00 -0.00000000000E+00 -0.34495327853E+02  0.34495327853E+02  0.00000000000E+00 0.  1.
      99926    2    1    2    0    0  0.00000000000E+00  0.00000000000E+00  0.15196167083E+04  0.15886073640E+04  0.46307495811E+03 0.  0.
      99925    2    3    3    0    0 -0.40293560332E+02 -0.46816547123E+01  0.13390845205E+04  0.13652581580E+04  0.26293914889E+03 0.  0.
         25    1    4    4    0    0 -0.57657391490E+02  0.41714269078E+01  0.77337330707E+03  0.78555429843E+03  0.12509000000E+03 0.  0.
         25    1    4    4    0    0  0.17363831158E+02 -0.88530816201E+01  0.56571121346E+03  0.57970385959E+03  0.12509000000E+03 0.  0.
         25    1    3    3    0    0  0.40293560332E+02  0.46816547123E+01  0.18053218778E+03  0.22334920600E+03  0.12509000000E+03 0.  0.
<mgrwt>
<rscale>  2 0.46307496E+03</rscale>
<asrwt>0</asrwt>
<pdfrwt beam="1">  1       21 0.22854584E+00 0.46307496E+03</pdfrwt>
<pdfrwt beam="2">  1       21 0.50728434E-02 0.46307496E+03</pdfrwt>
<totfact> 0.20380282E+04</totfact>
</mgrwt>
</event>
<event>
 7    0  0.4709932E-002  0.4573808E+03  0.7546771E-02  0.1025544E+00
         21   -1    0    0  502  501  0.00000000000E+00  0.00000000000E+00  0.12615543578E+03  0.12615543578E+03  0.00000000000E+00 0.  1.
         21   -1    0    0  501  502 -0.00000000000E+00 -0.00000000000E+00 -0.41456247369E+03  0.41456247369E+03  0.00000000000E+00 0.  1.
      99926    2    1    2    0    0 -0.71054273576E-14  0.00000000000E+00 -0.28840703791E+03  0.54071790947E+03  0.45738084580E+03 0.  0.
      99925    2    3    3    0    0  0.29754196576E+02 -0.91745553072E+02 -0.25588934242E+03  0.37944960092E+03  0.26305909099E+03 0.  0.
         25    1    3    3    0    0 -0.29754196576E+02  0.91745553072E+02 -0.32517695489E+02  0.16126830855E+03  0.12509000000E+03 0.  0.
         25    1    4    4    0    0 -0.16693762348E+02 -0.63006841884E+02 -0.10405110407E+03  0.17527887547E+03  0.12509000000E+03 0.  0.
         25    1    4    4    0    0  0.46447958924E+02 -0.28738711188E+02 -0.15183823834E+03  0.20417072545E+03  0.12509000000E+03 0.  0.
<mgrwt>
<rscale>  2 0.45738085E+03</rscale>
<asrwt>0</asrwt>
<pdfrwt beam="1">  1       21 0.18552270E-01 0.45738085E+03</pdfrwt>
<pdfrwt beam="2">  1       21 0.60965069E-01 0.45738085E+03</pdfrwt>
<totfact> 0.61320509E+04</totfact>
</mgrwt>
</event>
<event>
 7    0  0.4709932E-002  0.4470952E+03  0.7546771E-02  0.1028592E+00
         21   -1    0    0  502  501  0.00000000000E+00  0.00000000000E+00  0.20423563405E+03  0.20423563405E+03  0.00000000000E+00 0.  1.
         21   -1    0    0  501  502 -0.00000000000E+00 -0.00000000000E+00 -0.24468566955E+03  0.24468566955E+03  0.00000000000E+00 0.  1.
      99926    2    1    2    0    0  0.88817841970E-15  0.17763568394E-14 -0.40450035496E+02  0.44892130360E+03  0.44709521520E+03 0.  0.
      99925    2    3    3    0    0 -0.38356311196E+01 -0.51543539169E+01 -0.13144092934E+03  0.29410486296E+03  0.26302029024E+03 0.  0.
         25    1    4    4    0    0 -0.38394493346E+02  0.13248505599E+02 -0.74944228054E+02  0.15137306708E+03  0.12509000000E+03 0.  0.
         25    1    4    4    0    0  0.34558862226E+02 -0.18402859516E+02 -0.56496701290E+02  0.14273179587E+03  0.12509000000E+03 0.  0.
         25    1    3    3    0    0  0.38356311196E+01  0.51543539169E+01  0.90990893848E+02  0.15481644064E+03  0.12509000000E+03 0.  0.
<mgrwt>
<rscale>  2 0.44709522E+03</rscale>
<asrwt>0</asrwt>
<pdfrwt beam="1">  1       21 0.30034652E-01 0.44709522E+03</pdfrwt>
<pdfrwt beam="2">  1       21 0.35983187E-01 0.44709522E+03</pdfrwt>
<totfact> 0.73522165E+04</totfact>
</mgrwt>
</event>
<event>
 7    0  0.4709932E-002  0.4451027E+03  0.7546771E-02  0.1029193E+00
         21   -1    0    0  502  501  0.00000000000E+00  0.00000000000E+00  0.23196049796E+04  0.23196049796E+04  0.00000000000E+00 0.  1.
         21   -1    0    0  501  502 -0.00000000000E+00 -0.00000000000E+00 -0.21352391172E+02  0.21352391172E+02  0.00000000000E+00 0.  1.
      99926    2    1    2    0    0  0.00000000000E+00 -0.17763568394E-14  0.22982525884E+04  0.23409573707E+04  0.44510274269E+03 0.  0.
      99925    2    3    3    0    0  0.84966204978E+02  0.15931252478E+02  0.11593893919E+04  0.11919882896E+04  0.26301950477E+03 0.  0.
         25    1    4    4    0    0  0.53404830619E+02  0.45992091803E+02  0.64859972737E+03  0.66430148493E+03  0.12509000000E+03 0.  0.
         25    1    3    3    0    0 -0.84966204978E+02 -0.15931252478E+02  0.11388631965E+04  0.11489690811E+04  0.12509000000E+03 0.  0.
         25    1    4    4    0    0  0.31561374359E+02 -0.30060839325E+02  0.51078966449E+03  0.52768680471E+03  0.12509000000E+03 0.  0.
<mgrwt>
<rscale>  2 0.44510274E+03</rscale>
<asrwt>0</asrwt>
<pdfrwt beam="1">  1       21 0.34111821E+00 0.44510274E+03</pdfrwt>
<pdfrwt beam="2">  1       21 0.31400591E-02 0.44510274E+03</pdfrwt>
<totfact> 0.96178798E+03</totfact>
</mgrwt>
</event>
<event>
 7    0  0.4709932E-002  0.4542984E+03  0.7546771E-02  0.1026448E+00
         21   -1    0    0  502  501  0.00000000000E+00  0.00000000000E+00  0.45988433823E+03  0.45988433823E+03  0.00000000000E+00 0. -1.
         21   -1    0    0  501  502 -0.00000000000E+00 -0.00000000000E+00 -0.11219509445E+03  0.11219509445E+03  0.00000000000E+00 0. -1.
      99926    2    1    2    0    0  0.35527136788E-14 -0.14210854715E-13  0.34768924377E+03  0.57207943268E+03  0.45429843392E+03 0.  0.
      99925    2    3    3    0    0  0.23623021053E+02  0.77292530844E+02  0.31753128639E+03  0.42012814792E+03  0.26296265969E+03 0.  0.
         25    1    4    4    0    0  0.20650220522E+02  0.27338279546E+02  0.21392023216E+03  0.25016631860E+03  0.12509000000E+03 0.  0.
         25    1    4    4    0    0  0.29728005312E+01  0.49954251298E+02  0.10361105423E+03  0.16996182932E+03  0.12509000000E+03 0.  0.
         25    1    3    3    0    0 -0.23623021053E+02 -0.77292530844E+02  0.30157957382E+02  0.15195128476E+03  0.12509000000E+03 0.  0.
<mgrwt>
<rscale>  2 0.45429843E+03</rscale>
<asrwt>0</asrwt>
<pdfrwt beam="1">  1       21 0.67630049E-01 0.45429843E+03</pdfrwt>
<pdfrwt beam="2">  1       21 0.16499279E-01 0.45429843E+03</pdfrwt>
<totfact> 0.60767038E+04</totfact>
</mgrwt>
</event>
<event>
 7    0  0.4709932E-002  0.4569999E+03  0.7546771E-02  0.1025655E+00
         21   -1    0    0  502  501  0.00000000000E+00  0.00000000000E+00  0.11694926550E+04  0.11694926550E+04  0.00000000000E+00 0.  1.
         21   -1    0    0  501  502 -0.00000000000E+00 -0.00000000000E+00 -0.44645198652E+02  0.44645198652E+02  0.00000000000E+00 0.  1.
      99926    2    1    2    0    0  0.00000000000E+00  0.00000000000E+00  0.11248474564E+04  0.12141378537E+04  0.45699992081E+03 0.  0.
      99925    2    3    3    0    0 -0.62280457396E+01 -0.75709204672E+02  0.47720347273E+03  0.55016427749E+03  0.26303403889E+03 0.  0.
         25    1    4    4    0    0  0.51768251089E+01 -0.11454460305E+02  0.28714488343E+03  0.31346083704E+03  0.12509000000E+03 0.  0.
         25    1    3    3    0    0  0.62280457396E+01  0.75709204672E+02  0.64764398365E+03  0.66397357619E+03  0.12509000000E+03 0.  0.
         25    1    4    4    0    0 -0.11404870848E+02 -0.64254744367E+02  0.19005858930E+03  0.23670344045E+03  0.12509000000E+03 0.  0.
<mgrwt>
<rscale>  2 0.45699992E+03</rscale>
<asrwt>0</asrwt>
<pdfrwt beam="1">  1       21 0.17198419E+00 0.45699992E+03</pdfrwt>
<pdfrwt beam="2">  1       21 0.65654711E-02 0.45699992E+03</pdfrwt>
<totfact> 0.31221855E+04</totfact>
</mgrwt>
</event>
<event>
 7    0  0.4709932E-002  0.4564833E+03  0.7546771E-02  0.1025806E+00
         21   -1    0    0  502  501  0.00000000000E+00  0.00000000000E+00  0.20792858191E+03  0.20792858191E+03  0.00000000000E+00 0. -1.
         21   -1    0    0  501  502 -0.00000000000E+00 -0.00000000000E+00 -0.25053912551E+03  0.25053912551E+03  0.00000000000E+00 0. -1.
      99926    2    1    2    0    0 -0.14210854715E-13  0.00000000000E+00 -0.42610543604E+02  0.45846770742E+03  0.45648327496E+03 0.  0.
      99925    2    3    3    0    0  0.64536610043E+02  0.44412848402E+02 -0.11069958006E+03  0.29592202115E+03  0.26301705351E+03 0.  0.
         25    1    3    3    0    0 -0.64536610043E+02 -0.44412848402E+02  0.68089036453E+02  0.16254568627E+03  0.12509000000E+03 0.  0.
         25    1    4    4    0    0  0.12401730348E+02 -0.11402017211E+01 -0.82030042422E+02  0.15010509297E+03  0.12509000000E+03 0.  0.
         25    1    4    4    0    0  0.52134879695E+02  0.45553050123E+02 -0.28669537635E+02  0.14581692818E+03  0.12509000000E+03 0.  0.
<mgrwt>
<rscale>  2 0.45648327E+03</rscale>
<asrwt>0</asrwt>
<pdfrwt beam="1">  1       21 0.30577733E-01 0.45648327E+03</pdfrwt>
<pdfrwt beam="2">  1       21 0.36843989E-01 0.45648327E+03</pdfrwt>
<totfact> 0.67490250E+04</totfact>
</mgrwt>
</event>
<event>
 7    0  0.4709932E-002  0.4547151E+03  0.7546771E-02  0.1026325E+00
         21   -1    0    0  502  501  0.00000000000E+00  0.00000000000E+00  0.10095862405E+04  0.10095862405E+04  0.00000000000E+00 0. -1.
         21   -1    0    0  501  502 -0.00000000000E+00 -0.00000000000E+00 -0.51200633491E+02  0.51200633491E+02  0.00000000000E+00 0. -1.
      99926    2    1    2    0    0  0.00000000000E+00  0.00000000000E+00  0.95838560700E+03  0.10607868740E+04  0.45471509795E+03 0.  0.
      99925    2    3    3    0    0  0.26981318213E+02 -0.74127269344E+02  0.41475661043E+03  0.49740171478E+03  0.26298778751E+03 0.  0.
         25    1    3    3    0    0 -0.26981318213E+02  0.74127269344E+02  0.54362899657E+03  0.56338515920E+03  0.12509000000E+03 0.  0.
         25    1    4    4    0    0 -0.72492095490E+01 -0.61502119831E+02  0.16855983534E+03  0.21884923571E+03  0.12509000000E+03 0.  0.
         25    1    4    4    0    0  0.34230527762E+02 -0.12625149514E+02  0.24619677509E+03  0.27855247907E+03  0.12509000000E+03 0.  0.
<mgrwt>
<rscale>  2 0.45471510E+03</rscale>
<asrwt>0</asrwt>
<pdfrwt beam="1">  1       21 0.14846855E+00 0.45471510E+03</pdfrwt>
<pdfrwt beam="2">  1       21 0.75295056E-02 0.45471510E+03</pdfrwt>
<totfact> 0.36966187E+04</totfact>
</mgrwt>
</event>
<event>
 7    0  0.4709932E-002  0.4572560E+03  0.7546771E-02  0.1025580E+00
         21   -1    0    0  502  501  0.00000000000E+00  0.00000000000E+00  0.74790281755E+02  0.74790281755E+02  0.00000000000E+00 0.  1.
         21   -1    0    0  501  502 -0.00000000000E+00 -0.00000000000E+00 -0.69889783444E+03  0.69889783444E+03  0.00000000000E+00 0.  1.
      99926    2    1    2    0    0  0.00000000000E+00  0.00000000000E+00 -0.62410755268E+03  0.77368811619E+03  0.45725601562E+03 0.  0.
      99925    2    3    3    0    0 -0.67913526943E+02  0.46273505337E+02 -0.52868343529E+03  0.59618669446E+03  0.26301885001E+03 0.  0.
         25    1    4    4    0    0 -0.26412412972E+02  0.22118862759E+02 -0.34680980699E+03  0.37028557895E+03  0.12509000000E+03 0.  0.
         25    1    3    3    0    0  0.67913526943E+02 -0.46273505337E+02 -0.95424117391E+02  0.17750142173E+03  0.12509000000E+03 0.  0.
         25    1    4    4    0    0 -0.41501113971E+02  0.24154642578E+02 -0.18187362830E+03  0.22590111551E+03  0.12509000000E+03 0.  0.
<mgrwt>
<rscale>  2 0.45725602E+03</rscale>
<asrwt>0</asrwt>
<pdfrwt beam="1">  1       21 0.10998570E-01 0.45725602E+03</pdfrwt>
<pdfrwt beam="2">  1       21 0.10277910E+00 0.45725602E+03</pdfrwt>
<totfact> 0.48204473E+04</totfact>
</mgrwt>
</event>
<event>
 7    0  0.4709932E-002  0.4506215E+03  0.7546771E-02  0.1027537E+00
         21   -1    0    0  502  501  0.00000000000E+00  0.00000000000E+00  0.57347075626E+03  0.57347075626E+03  0.00000000000E+00 0.  1.
         21   -1    0    0  501  502 -0.00000000000E+00 -0.00000000000E+00 -0.88522290066E+02  0.88522290066E+02  0.00000000000E+00 0.  1.
      99926    2    1    2    0    0 -0.14210854715E-13  0.00000000000E+00  0.48494846619E+03  0.66199304633E+03  0.45062154689E+03 0.  0.
      99925    2    3    3    0    0  0.10654730683E+03 -0.23112007210E+02  0.30725344784E+03  0.41886854917E+03  0.26298229371E+03 0.  0.
         25    1    4    4    0    0  0.10860018642E+02 -0.19539553598E+01  0.12778023602E+03  0.17915650913E+03  0.12509000000E+03 0.  0.
         25    1    4    4    0    0  0.95687288187E+02 -0.21158051850E+02  0.17947321182E+03  0.23971204004E+03  0.12509000000E+03 0.  0.
         25    1    3    3    0    0 -0.10654730683E+03  0.23112007210E+02  0.17769501835E+03  0.24312449716E+03  0.12509000000E+03 0.  0.
<mgrwt>
<rscale>  2 0.45062155E+03</rscale>
<asrwt>0</asrwt>
<pdfrwt beam="1">  1       21 0.84333933E-01 0.45062155E+03</pdfrwt>
<pdfrwt beam="2">  1       21 0.13017984E-01 0.45062155E+03</pdfrwt>
<totfact> 0.56956139E+04</totfact>
</mgrwt>
</event>
<event>
 7    0  0.4709932E-002  0.4570880E+03  0.7546771E-02  0.1025629E+00
         21   -1    0    0  502  501  0.00000000000E+00  0.00000000000E+00  0.17703826847E+03  0.17703826847E+03  0.00000000000E+00 0. -1.
         21   -1    0    0  501  502 -0.00000000000E+00 -0.00000000000E+00 -0.29503431995E+03  0.29503431995E+03  0.00000000000E+00 0. -1.
      99926    2    1    2    0    0  0.00000000000E+00  0.00000000000E+00 -0.11799605148E+03  0.47207258841E+03  0.45708802278E+03 0.  0.
      99925    2    3    3    0    0  0.50911850979E+02 -0.98832751704E+02 -0.43229213508E+02  0.28877633221E+03  0.26298873695E+03 0.  0.
         25    1    4    4    0    0  0.54917683826E+02 -0.73962680218E+02 -0.42934414228E+02  0.16117475636E+03  0.12509000000E+03 0.  0.
         25    1    4    4    0    0 -0.40058328465E+01 -0.24870071487E+02 -0.29479927950E+00  0.12760157585E+03  0.12509000000E+03 0.  0.
         25    1    3    3    0    0 -0.50911850979E+02  0.98832751704E+02 -0.74766837971E+02  0.18329625621E+03  0.12509000000E+03 0.  0.
<mgrwt>
<rscale>  2 0.45708802E+03</rscale>
<asrwt>0</asrwt>
<pdfrwt beam="1">  1       21 0.26035040E-01 0.45708802E+03</pdfrwt>
<pdfrwt beam="2">  1       21 0.43387399E-01 0.45708802E+03</pdfrwt>
<totfact> 0.66178830E+04</totfact>
</mgrwt>
</event>
<event>
 7    0  0.4709932E-002  0.4584610E+03  0.7546771E-02  0.1025229E+00
         21   -1    0    0  502  501  0.00000000000E+00  0.00000000000E+00  0.71705931922E+03  0.71705931922E+03  0.00000000000E+00 0.  1.
         21   -1    0    0  501  502 -0.00000000000E+00 -0.00000000000E+00 -0.73280733669E+02  0.73280733669E+02  0.00000000000E+00 0.  1.
      99926    2    1    2    0    0  0.00000000000E+00  0.00000000000E+00  0.64377858555E+03  0.79034005288E+03  0.45846104740E+03 0.  0.
      99925    2    3    3    0    0  0.60455353357E+02 -0.65338024128E+02  0.27449998286E+03  0.39041743331E+03  0.26296696465E+03 0.  0.
         25    1    3    3    0    0 -0.60455353357E+02  0.65338024128E+02  0.36927860268E+03  0.39992261957E+03  0.12509000000E+03 0.  0.
         25    1    4    4    0    0  0.35904223865E+02 -0.10260723368E+02  0.18037013746E+03  0.22265509274E+03  0.12509000000E+03 0.  0.
         25    1    4    4    0    0  0.24551129492E+02 -0.55077300760E+02  0.94129845401E+02  0.16776234057E+03  0.12509000000E+03 0.  0.
<mgrwt>
<rscale>  2 0.45846105E+03</rscale>
<asrwt>0</asrwt>
<pdfrwt beam="1">  1       21 0.10544990E+00 0.45846105E+03</pdfrwt>
<pdfrwt beam="2">  1       21 0.10776579E-01 0.45846105E+03</pdfrwt>
<totfact> 0.46947310E+04</totfact>
</mgrwt>
</event>
<event>
 7    0  0.4709932E-002  0.4770849E+03  0.7546771E-02  0.1019939E+00
         21   -1    0    0  502  501  0.00000000000E+00  0.00000000000E+00  0.43825943187E+02  0.43825943187E+02  0.00000000000E+00 0.  1.
         21   -1    0    0  501  502 -0.00000000000E+00 -0.00000000000E+00 -0.12983745627E+04  0.12983745627E+04  0.00000000000E+00 0.  1.
      99926    2    1    2    0    0  0.00000000000E+00  0.35527136788E-14 -0.12545486195E+04  0.13422005059E+04  0.47708485544E+03 0.  0.
      99925    2    3    3    0    0  0.12456585983E+03  0.23489479816E+02 -0.66252854098E+03  0.72397426042E+03  0.26291871946E+03 0.  0.
         25    1    3    3    0    0 -0.12456585983E+03 -0.23489479816E+02 -0.59202007856E+03  0.61822624549E+03  0.12509000000E+03 0.  0.
         25    1    4    4    0    0  0.82236642619E+02 -0.21366667222E+02 -0.37724207507E+03  0.40642156828E+03  0.12509000000E+03 0.  0.
         25    1    4    4    0    0  0.42329217215E+02  0.44856147038E+02 -0.28528646591E+03  0.31755269215E+03  0.12509000000E+03 0.  0.
<mgrwt>
<rscale>  2 0.47708486E+03</rscale>
<asrwt>0</asrwt>
<pdfrwt beam="1">  1       21 0.64449918E-02 0.47708486E+03</pdfrwt>
<pdfrwt beam="2">  1       21 0.19093743E+00 0.47708486E+03</pdfrwt>
<totfact> 0.23593214E+04</totfact>
</mgrwt>
</event>
<event>
 7    0  0.4709932E-002  0.4520860E+03  0.7546771E-02  0.1027102E+00
         21   -1    0    0  502  501  0.00000000000E+00  0.00000000000E+00  0.55042976347E+03  0.55042976347E+03  0.00000000000E+00 0.  1.
         21   -1    0    0  501  502 -0.00000000000E+00 -0.00000000000E+00 -0.92828276677E+02  0.92828276677E+02  0.00000000000E+00 0.  1.
      99926    2    1    2    0    0  0.00000000000E+00  0.00000000000E+00  0.45760148679E+03  0.64325804014E+03  0.45208603772E+03 0.  0.
      99925    2    3    3    0    0  0.75662162068E+02  0.78860538471E+02  0.27156711281E+03  0.39385867427E+03  0.26349992645E+03 0.  0.
         25    1    4    4    0    0  0.16643273377E+02  0.37239917493E+02  0.80160908706E+02  0.15406845682E+03  0.12509000000E+03 0.  0.
         25    1    3    3    0    0 -0.75662162068E+02 -0.78860538471E+02  0.18603437398E+03  0.24939936587E+03  0.12509000000E+03 0.  0.
         25    1    4    4    0    0  0.59018888692E+02  0.41620620978E+02  0.19140620411E+03  0.23979021745E+03  0.12509000000E+03 0.  0.
<mgrwt>
<rscale>  2 0.45208604E+03</rscale>
<asrwt>0</asrwt>
<pdfrwt beam="1">  1       21 0.80945552E-01 0.45208604E+03</pdfrwt>
<pdfrwt beam="2">  1       21 0.13651217E-01 0.45208604E+03</pdfrwt>
<totfact> 0.57400010E+04</totfact>
</mgrwt>
</event>
<event>
 7    0  0.4709932E-002  0.4634404E+03  0.7546771E-02  0.1023788E+00
         21   -1    0    0  502  501  0.00000000000E+00  0.00000000000E+00  0.11602697716E+03  0.11602697716E+03  0.00000000000E+00 0.  1.
         21   -1    0    0  501  502 -0.00000000000E+00 -0.00000000000E+00 -0.46277386394E+03  0.46277386394E+03  0.00000000000E+00 0.  1.
      99926    2    1    2    0    0  0.00000000000E+00  0.00000000000E+00 -0.34674688678E+03  0.57880084110E+03  0.46344040627E+03 0.  0.
      99925    2    3    3    0    0  0.74257929586E+02 -0.64918375087E+02 -0.30376444911E+03  0.41380498182E+03  0.26312181002E+03 0.  0.
         25    1    3    3    0    0 -0.74257929586E+02  0.64918375087E+02 -0.42982437666E+02  0.16499585928E+03  0.12509000000E+03 0.  0.
         25    1    4    4    0    0  0.37477609838E+01 -0.29986904209E+02 -0.17864893284E+03  0.22017313515E+03  0.12509000000E+03 0.  0.
         25    1    4    4    0    0  0.70510168602E+02 -0.34931470877E+02 -0.12511551627E+03  0.19363184667E+03  0.12509000000E+03 0.  0.
<mgrwt>
<rscale>  2 0.46344041E+03</rscale>
<asrwt>0</asrwt>
<pdfrwt beam="1">  1       21 0.17062791E-01 0.46344041E+03</pdfrwt>
<pdfrwt beam="2">  1       21 0.68054979E-01 0.46344041E+03</pdfrwt>
<totfact> 0.56159962E+04</totfact>
</mgrwt>
</event>
<event>
 7    0  0.4709932E-002  0.4508674E+03  0.7546771E-02  0.1027464E+00
         21   -1    0    0  502  501  0.00000000000E+00  0.00000000000E+00  0.19809834443E+03  0.19809834443E+03  0.00000000000E+00 0. -1.
         21   -1    0    0  501  502 -0.00000000000E+00 -0.00000000000E+00 -0.25654103841E+03  0.25654103841E+03  0.00000000000E+00 0. -1.
      99926    2    1    2    0    0  0.15543122345E-14  0.00000000000E+00 -0.58442693979E+02  0.45463938285E+03  0.45086740840E+03 0.  0.
      99925    2    3    3    0    0 -0.13393376451E+01 -0.10904070284E+03 -0.28233925023E+02  0.28596292769E+03  0.26284210620E+03 0.  0.
         25    1    3    3    0    0  0.13393376451E+01  0.10904070284E+03 -0.30208768956E+02  0.16867645515E+03  0.12509000000E+03 0.  0.
         25    1    4    4    0    0 -0.13012856417E+02 -0.17968913270E+02  0.55265373291E+01  0.12716236468E+03  0.12509000000E+03 0.  0.
         25    1    4    4    0    0  0.11673518772E+02 -0.91071789566E+02 -0.33760462352E+02  0.15880056301E+03  0.12509000000E+03 0.  0.
<mgrwt>
<rscale>  2 0.45086741E+03</rscale>
<asrwt>0</asrwt>
<pdfrwt beam="1">  1       21 0.29132109E-01 0.45086741E+03</pdfrwt>
<pdfrwt beam="2">  1       21 0.37726623E-01 0.45086741E+03</pdfrwt>
<totfact> 0.70880339E+04</totfact>
</mgrwt>
</event>
<event>
 7    0  0.4709932E-002  0.4526442E+03  0.7546771E-02  0.1026936E+00
         21   -1    0    0  502  501  0.00000000000E+00  0.00000000000E+00  0.57369954329E+02  0.57369954329E+02  0.00000000000E+00 0.  1.
         21   -1    0    0  501  502 -0.00000000000E+00 -0.00000000000E+00 -0.89283130791E+03  0.89283130791E+03  0.00000000000E+00 0.  1.
      99926    2    1    2    0    0 -0.44408920985E-15  0.00000000000E+00 -0.83546135358E+03  0.95020126224E+03  0.45264419297E+03 0.  0.
      99925    2    3    3    0    0 -0.31449854815E+01  0.99050269722E+02 -0.41999881777E+03  0.50514230701E+03  0.26258121894E+03 0.  0.
         25    1    4    4    0    0 -0.18842387312E+02  0.46883362220E+02 -0.14437425479E+03  0.19759685918E+03  0.12509000000E+03 0.  0.
         25    1    4    4    0    0  0.15697401831E+02  0.52166907501E+02 -0.27562456298E+03  0.30754544783E+03  0.12509000000E+03 0.  0.
         25    1    3    3    0    0  0.31449854815E+01 -0.99050269722E+02 -0.41546253581E+03  0.44505895522E+03  0.12509000000E+03 0.  0.
<mgrwt>
<rscale>  2 0.45264419E+03</rscale>
<asrwt>0</asrwt>
<pdfrwt beam="1">  1       21 0.84367580E-02 0.45264419E+03</pdfrwt>
<pdfrwt beam="2">  1       21 0.13129872E+00 0.45264419E+03</pdfrwt>
<totfact> 0.41899208E+04</totfact>
</mgrwt>
</event>
<event>
 7    0  0.4709932E-002  0.4623172E+03  0.7546771E-02  0.1024111E+00
         21   -1    0    0  502  501  0.00000000000E+00  0.00000000000E+00  0.10157190118E+04  0.10157190118E+04  0.00000000000E+00 0. -1.
         21   -1    0    0  501  502 -0.00000000000E+00 -0.00000000000E+00 -0.52607364706E+02  0.52607364706E+02  0.00000000000E+00 0. -1.
      99926    2    1    2    0    0  0.00000000000E+00  0.00000000000E+00  0.96311164708E+03  0.10683263765E+04  0.46231720925E+03 0.  0.
      99925    2    3    3    0    0 -0.38531985094E+02  0.12408162801E+02  0.86292731999E+03  0.90302941985E+03  0.26302071622E+03 0.  0.
         25    1    4    4    0    0 -0.46661069162E+02 -0.50872844043E+01  0.53746976354E+03  0.55382704038E+03  0.12509000000E+03 0.  0.
         25    1    3    3    0    0  0.38531985094E+02 -0.12408162801E+02  0.10018432710E+03  0.16529695664E+03  0.12509000000E+03 0.  0.
         25    1    4    4    0    0  0.81290840687E+01  0.17495447205E+02  0.32545755645E+03  0.34920237947E+03  0.12509000000E+03 0.  0.
<mgrwt>
<rscale>  2 0.46231721E+03</rscale>
<asrwt>0</asrwt>
<pdfrwt beam="1">  1       21 0.14937043E+00 0.46231721E+03</pdfrwt>
<pdfrwt beam="2">  1       21 0.77363778E-02 0.46231721E+03</pdfrwt>
<totfact> 0.34594034E+04</totfact>
</mgrwt>
</event>
<event>
 7    0  0.4709932E-002  0.4301962E+03  0.7546771E-02  0.1033798E+00
         21   -1    0    0  502  501  0.00000000000E+00  0.00000000000E+00  0.69822239099E+03  0.69822239099E+03  0.00000000000E+00 0.  1.
         21   -1    0    0  501  502 -0.00000000000E+00 -0.00000000000E+00 -0.66264265646E+02  0.66264265646E+02  0.00000000000E+00 0.  1.
      99926    2    1    2    0    0  0.00000000000E+00  0.00000000000E+00  0.63195812535E+03  0.76448665664E+03  0.43019620638E+03 0.  0.
      99925    2    3    3    0    0 -0.84475865888E+02 -0.24052027762E+02  0.39656833344E+03  0.48382576840E+03  0.26288069369E+03 0.  0.
         25    1    4    4    0    0 -0.55698733105E+02  0.21018971882E+02  0.23305304927E+03  0.27111875244E+03  0.12509000000E+03 0.  0.
         25    1    3    3    0    0  0.84475865888E+02  0.24052027762E+02  0.23538979191E+03  0.28066088824E+03  0.12509000000E+03 0.  0.
         25    1    4    4    0    0 -0.28777132783E+02 -0.45070999644E+02  0.16351528417E+03  0.21270701596E+03  0.12509000000E+03 0.  0.
<mgrwt>
<rscale>  2 0.43019621E+03</rscale>
<asrwt>0</asrwt>
<pdfrwt beam="1">  1       21 0.10267976E+00 0.43019621E+03</pdfrwt>
<pdfrwt beam="2">  1       21 0.97447453E-02 0.43019621E+03</pdfrwt>
<totfact> 0.60474841E+04</totfact>
</mgrwt>
</event>
<event>
 7    0  0.4709932E-002  0.4608824E+03  0.7546771E-02  0.1024526E+00
         21   -1    0    0  502  501  0.00000000000E+00  0.00000000000E+00  0.77100037732E+03  0.77100037732E+03  0.00000000000E+00 0. -1.
         21   -1    0    0  501  502 -0.00000000000E+00 -0.00000000000E+00 -0.68875639508E+02  0.68875639508E+02  0.00000000000E+00 0. -1.
      99926    2    1    2    0    0  0.00000000000E+00 -0.35527136788E-14  0.70212473782E+03  0.83987601683E+03  0.46088238868E+03 0.  0.
      99925    2    3    3    0    0 -0.52828970033E+02  0.31219783897E+02  0.25473029953E+03  0.37128785385E+03  0.26306191274E+03 0.  0.
         25    1    4    4    0    0 -0.54546807092E+02  0.24604858021E+01  0.94640020679E+02  0.16608928252E+03  0.12509000000E+03 0.  0.
         25    1    3    3    0    0  0.52828970033E+02 -0.31219783897E+02  0.44739443828E+03  0.46858816298E+03  0.12509000000E+03 0.  0.
         25    1    4    4    0    0  0.17178370589E+01  0.28759298095E+02  0.16009027885E+03  0.20519857133E+03  0.12509000000E+03 0.  0.
<mgrwt>
<rscale>  2 0.46088239E+03</rscale>
<asrwt>0</asrwt>
<pdfrwt beam="1">  1       21 0.11338240E+00 0.46088239E+03</pdfrwt>
<pdfrwt beam="2">  1       21 0.10128771E-01 0.46088239E+03</pdfrwt>
<totfact> 0.43837326E+04</totfact>
</mgrwt>
</event>
<event>
 7    0  0.4709932E-002  0.4517696E+03  0.7546771E-02  0.1027196E+00
         21   -1    0    0  502  501  0.00000000000E+00  0.00000000000E+00  0.20882304113E+04  0.20882304113E+04  0.00000000000E+00 0.  1.
         21   -1    0    0  501  502 -0.00000000000E+00 -0.00000000000E+00 -0.24434055554E+02  0.24434055554E+02  0.00000000000E+00 0.  1.
      99926    2    1    2    0    0  0.35527136788E-14  0.00000000000E+00  0.20637963557E+04  0.21126644669E+04  0.45176957790E+03 0.  0.
      99925    2    3    3    0    0 -0.28271805601E+02  0.77268145864E+02  0.95974528669E+03  0.99850741664E+03  0.26293798585E+03 0.  0.
         25    1    4    4    0    0 -0.32165535046E+02  0.37576609196E+02  0.35396929607E+03  0.37866659988E+03  0.12509000000E+03 0.  0.
         25    1    4    4    0    0  0.38937294454E+01  0.39691536669E+02  0.60577599061E+03  0.61984081676E+03  0.12509000000E+03 0.  0.
         25    1    3    3    0    0  0.28271805601E+02 -0.77268145864E+02  0.11040510691E+04  0.11141570502E+04  0.12509000000E+03 0.  0.
<mgrwt>
<rscale>  2 0.45176958E+03</rscale>
<asrwt>0</asrwt>
<pdfrwt beam="1">  1       21 0.30709259E+00 0.45176958E+03</pdfrwt>
<pdfrwt beam="2">  1       21 0.35932449E-02 0.45176958E+03</pdfrwt>
<totfact> 0.12260804E+04</totfact>
</mgrwt>
</event>
<event>
 7    0  0.4709932E-002  0.4471576E+03  0.7546771E-02  0.1028573E+00
         21   -1    0    0  502  501  0.00000000000E+00  0.00000000000E+00  0.26303928907E+04  0.26303928907E+04  0.00000000000E+00 0. -1.
         21   -1    0    0  501  502 -0.00000000000E+00 -0.00000000000E+00 -0.19003809193E+02  0.19003809193E+02  0.00000000000E+00 0. -1.
      99926    2    1    2    0    0  0.00000000000E+00  0.00000000000E+00  0.26113890816E+04  0.26493966999E+04  0.44715762142E+03 0.  0.
      99925    2    3    3    0    0  0.44875331443E+02  0.93356991616E+02  0.17840395392E+04  0.18062572710E+04  0.26275259932E+03 0.  0.
         25    1    4    4    0    0 -0.26347911712E+01  0.18993771307E+02  0.93529680307E+03  0.94381953964E+03  0.12509000000E+03 0.  0.
         25    1    4    4    0    0  0.47510122614E+02  0.74363220309E+02  0.84874273615E+03  0.86243773140E+03  0.12509000000E+03 0.  0.
         25    1    3    3    0    0 -0.44875331443E+02 -0.93356991616E+02  0.82734954234E+03  0.84313942890E+03  0.12509000000E+03 0.  0.
<mgrwt>
<rscale>  2 0.44715762E+03</rscale>
<asrwt>0</asrwt>
<pdfrwt beam="1">  1       21 0.38682223E+00 0.44715762E+03</pdfrwt>
<pdfrwt beam="2">  1       21 0.27946796E-02 0.44715762E+03</pdfrwt>
<totfact> 0.60834394E+03</totfact>
</mgrwt>
</event>
<event>
 7    0  0.4709932E-002  0.4585797E+03  0.7546771E-02  0.1025194E+00
         21   -1    0    0  502  501  0.00000000000E+00  0.00000000000E+00  0.96942475563E+03  0.96942475563E+03  0.00000000000E+00 0. -1.
         21   -1    0    0  501  502 -0.00000000000E+00 -0.00000000000E+00 -0.54231994777E+02  0.54231994777E+02  0.00000000000E+00 0. -1.
      99926    2    1    2    0    0  0.00000000000E+00  0.00000000000E+00  0.91519276085E+03  0.10236567504E+04  0.45857971296E+03 0.  0.
      99925    2    3    3    0    0 -0.82763562729E+02 -0.70341577992E+02  0.46989189237E+03  0.54853769534E+03  0.26133784225E+03 0.  0.
         25    1    4    4    0    0 -0.70368232574E+02 -0.12909287927E+02  0.22047696491E+03  0.26339312449E+03  0.12509000000E+03 0.  0.
         25    1    4    4    0    0 -0.12395330155E+02 -0.57432290065E+02  0.24941492745E+03  0.28514457086E+03  0.12509000000E+03 0.  0.
         25    1    3    3    0    0  0.82763562729E+02  0.70341577992E+02  0.44530086848E+03  0.47511905506E+03  0.12509000000E+03 0.  0.
<mgrwt>
<rscale>  2 0.45857971E+03</rscale>
<asrwt>0</asrwt>
<pdfrwt beam="1">  1       21 0.14256245E+00 0.45857971E+03</pdfrwt>
<pdfrwt beam="2">  1       21 0.79752940E-02 0.45857971E+03</pdfrwt>
<totfact> 0.37208244E+04</totfact>
</mgrwt>
</event>
<event>
 7    0  0.4709932E-002  0.4193956E+03  0.7546771E-02  0.1037263E+00
         21   -1    0    0  502  501  0.00000000000E+00  0.00000000000E+00  0.33950483986E+03  0.33950483986E+03  0.00000000000E+00 0. -1.
         21   -1    0    0  501  502 -0.00000000000E+00 -0.00000000000E+00 -0.12952145441E+03  0.12952145441E+03  0.00000000000E+00 0. -1.
      99926    2    1    2    0    0 -0.35527136788E-14  0.00000000000E+00  0.20998338545E+03  0.46902629427E+03  0.41939556811E+03 0.  0.
      99925    2    3    3    0    0 -0.27852312614E+02  0.61791366024E+02  0.10056480973E+03  0.28954410282E+03  0.26292314902E+03 0.  0.
         25    1    4    4    0    0 -0.29214367475E+02  0.10605831108E+02  0.15455758532E+02  0.12981660715E+03  0.12509000000E+03 0.  0.
         25    1    4    4    0    0  0.13620548614E+01  0.51185534916E+02  0.85109051197E+02  0.15972749567E+03  0.12509000000E+03 0.  0.
         25    1    3    3    0    0  0.27852312614E+02 -0.61791366024E+02  0.10941857572E+03  0.17948219145E+03  0.12509000000E+03 0.  0.
<mgrwt>
<rscale>  2 0.41939557E+03</rscale>
<asrwt>0</asrwt>
<pdfrwt beam="1">  1       21 0.49927182E-01 0.41939557E+03</pdfrwt>
<pdfrwt beam="2">  1       21 0.19047273E-01 0.41939557E+03</pdfrwt>
<totfact> 0.90507841E+04</totfact>
</mgrwt>
</event>
<event>
 7    0  0.4709932E-002  0.4355996E+03  0.7546771E-02  0.1032106E+00
         21   -1    0    0  502  501  0.00000000000E+00  0.00000000000E+00  0.50874941542E+02  0.50874941542E+02  0.00000000000E+00 0.  1.
         21   -1    0    0  501  502 -0.00000000000E+00 -0.00000000000E+00 -0.93241902258E+03  0.93241902258E+03  0.00000000000E+00 0.  1.
      99926    2    1    2    0    0  0.00000000000E+00  0.44408920985E-15 -0.88154408104E+03  0.98329396412E+03  0.43559964769E+03 0.  0.
      99925    2    3    3    0    0 -0.27977441766E+02 -0.18178470433E+01 -0.36308864448E+03  0.44922506443E+03  0.26302804594E+03 0.  0.
         25    1    4    4    0    0  0.24609989611E+02  0.11843822221E+02 -0.18202002184E+03  0.22254151111E+03  0.12509000000E+03 0.  0.
         25    1    4    4    0    0 -0.52587431377E+02 -0.13661669264E+02 -0.18106862263E+03  0.22668355332E+03  0.12509000000E+03 0.  0.
         25    1    3    3    0    0  0.27977441766E+02  0.18178470433E+01 -0.51845543656E+03  0.53406889969E+03  0.12509000000E+03 0.  0.
<mgrwt>
<rscale>  2 0.43559965E+03</rscale>
<asrwt>0</asrwt>
<pdfrwt beam="1">  1       21 0.74816090E-02 0.43559965E+03</pdfrwt>
<pdfrwt beam="2">  1       21 0.13712045E+00 0.43559965E+03</pdfrwt>
<totfact> 0.46476611E+04</totfact>
</mgrwt>
</event>
<event>
 7    0  0.4709932E-002  0.4567347E+03  0.7546771E-02  0.1025733E+00
         21   -1    0    0  502  501  0.00000000000E+00  0.00000000000E+00  0.62137349514E+03  0.62137349514E+03  0.00000000000E+00 0.  1.
         21   -1    0    0  501  502 -0.00000000000E+00 -0.00000000000E+00 -0.83929616104E+02  0.83929616104E+02  0.00000000000E+00 0.  1.
      99926    2    1    2    0    0  0.35527136788E-14  0.00000000000E+00  0.53744387904E+03  0.70530311125E+03  0.45673466654E+03 0.  0.
      99925    2    3    3    0    0 -0.26243463126E+02 -0.10945336843E+03  0.30276895116E+03  0.41653228673E+03  0.26298545375E+03 0.  0.
         25    1    4    4    0    0 -0.48713227824E+02 -0.74258069667E+02  0.17801578262E+03  0.23499865199E+03  0.12509000000E+03 0.  0.
         25    1    3    3    0    0  0.26243463126E+02  0.10945336843E+03  0.23467492788E+03  0.28877082452E+03  0.12509000000E+03 0.  0.
         25    1    4    4    0    0  0.22469764698E+02 -0.35195298764E+02  0.12475316854E+03  0.18153363474E+03  0.12509000000E+03 0.  0.
<mgrwt>
<rscale>  2 0.45673467E+03</rscale>
<asrwt>0</asrwt>
<pdfrwt beam="1">  1       21 0.91378453E-01 0.45673467E+03</pdfrwt>
<pdfrwt beam="2">  1       21 0.12342591E-01 0.45673467E+03</pdfrwt>
<totfact> 0.51903875E+04</totfact>
</mgrwt>
</event>
<event>
 7    0  0.4709932E-002  0.4533633E+03  0.7546771E-02  0.1026724E+00
         21   -1    0    0  502  501  0.00000000000E+00  0.00000000000E+00  0.35927778474E+02  0.35927778474E+02  0.00000000000E+00 0. -1.
         21   -1    0    0  501  502 -0.00000000000E+00 -0.00000000000E+00 -0.14302183816E+04  0.14302183816E+04  0.00000000000E+00 0. -1.
      99926    2    1    2    0    0  0.00000000000E+00  0.00000000000E+00 -0.13942906031E+04  0.14661461601E+04  0.45336329443E+03 0.  0.
      99925    2    3    3    0    0  0.52681195761E+02  0.67547569756E+02 -0.11099498851E+04  0.11439115645E+04  0.26307211438E+03 0.  0.
         25    1    4    4    0    0  0.25950063864E+02  0.32182283445E+02 -0.72115560448E+03  0.73309073050E+03  0.12509000000E+03 0.  0.
         25    1    4    4    0    0  0.26731131896E+02  0.35365286311E+02 -0.38879428064E+03  0.41082083399E+03  0.12509000000E+03 0.  0.
         25    1    3    3    0    0 -0.52681195761E+02 -0.67547569756E+02 -0.28434071802E+03  0.32223459558E+03  0.12509000000E+03 0.  0.
<mgrwt>
<rscale>  2 0.45336329E+03</rscale>
<asrwt>0</asrwt>
<pdfrwt beam="1">  1       21 0.52834970E-02 0.45336329E+03</pdfrwt>
<pdfrwt beam="2">  1       21 0.21032623E+00 0.45336329E+03</pdfrwt>
<totfact> 0.24936674E+04</totfact>
</mgrwt>
</event>
<event>
 7    0  0.4709932E-002  0.4350446E+03  0.7546771E-02  0.1032278E+00
         21   -1    0    0  502  501  0.00000000000E+00  0.00000000000E+00  0.12360718550E+03  0.12360718550E+03  0.00000000000E+00 0.  1.
         21   -1    0    0  501  502 -0.00000000000E+00 -0.00000000000E+00 -0.38279292686E+03  0.38279292686E+03  0.00000000000E+00 0.  1.
      99926    2    1    2    0    0  0.00000000000E+00  0.00000000000E+00 -0.25918574136E+03  0.50640011237E+03  0.43504462447E+03 0.  0.
      99925    2    3    3    0    0 -0.76891800414E+02  0.40032257758E+02 -0.12539055865E+03  0.30375858244E+03  0.26273856507E+03 0.  0.
         25    1    4    4    0    0 -0.59888652047E+02 -0.13676437502E+02 -0.58716794743E+02  0.15122455380E+03  0.12509000000E+03 0.  0.
         25    1    4    4    0    0 -0.17003148367E+02  0.53708695260E+02 -0.66673763904E+02  0.15253402864E+03  0.12509000000E+03 0.  0.
         25    1    3    3    0    0  0.76891800414E+02 -0.40032257758E+02 -0.13379518271E+03  0.20264152992E+03  0.12509000000E+03 0.  0.
<mgrwt>
<rscale>  2 0.43504462E+03</rscale>
<asrwt>0</asrwt>
<pdfrwt beam="1">  1       21 0.18177527E-01 0.43504462E+03</pdfrwt>
<pdfrwt beam="2">  1       21 0.56293078E-01 0.43504462E+03</pdfrwt>
<totfact> 0.76187239E+04</totfact>
</mgrwt>
</event>
<event>
 7    0  0.4709932E-002  0.4558801E+03  0.7546771E-02  0.1025983E+00
         21   -1    0    0  502  501  0.00000000000E+00  0.00000000000E+00  0.25897619707E+03  0.25897619707E+03  0.00000000000E+00 0. -1.
         21   -1    0    0  501  502 -0.00000000000E+00 -0.00000000000E+00 -0.20062332091E+03  0.20062332091E+03  0.00000000000E+00 0. -1.
      99926    2    1    2    0    0  0.00000000000E+00  0.00000000000E+00  0.58352876155E+02  0.45959951798E+03  0.45588009254E+03 0.  0.
      99925    2    3    3    0    0 -0.68635062637E+02 -0.21107021224E+02 -0.52040527318E+02  0.27796667459E+03  0.26344065277E+03 0.  0.
         25    1    4    4    0    0 -0.60677840832E+02  0.20065784826E+02 -0.17256891805E+02  0.14152647987E+03  0.12509000000E+03 0.  0.
         25    1    3    3    0    0  0.68635062637E+02  0.21107021224E+02  0.11039340347E+03  0.18163284339E+03  0.12509000000E+03 0.  0.
         25    1    4    4    0    0 -0.79572218046E+01 -0.41172806050E+02 -0.34783635513E+02  0.13644019472E+03  0.12509000000E+03 0.  0.
<mgrwt>
<rscale>  2 0.45588009E+03</rscale>
<asrwt>0</asrwt>
<pdfrwt beam="1">  1       21 0.38084735E-01 0.45588009E+03</pdfrwt>
<pdfrwt beam="2">  1       21 0.29503429E-01 0.45588009E+03</pdfrwt>
<totfact> 0.67733101E+04</totfact>
</mgrwt>
</event>
<event>
 7    0  0.4709932E-002  0.4578866E+03  0.7546771E-02  0.1025396E+00
         21   -1    0    0  502  501  0.00000000000E+00  0.00000000000E+00  0.54242515393E+02  0.54242515393E+02  0.00000000000E+00 0.  1.
         21   -1    0    0  501  502 -0.00000000000E+00 -0.00000000000E+00 -0.96630905107E+03  0.96630905107E+03  0.00000000000E+00 0.  1.
      99926    2    1    2    0    0 -0.71054273576E-14 -0.14210854715E-13 -0.91206653568E+03  0.10205515665E+04  0.45788659547E+03 0.  0.
      99925    2    3    3    0    0  0.63707205035E+02  0.96149444552E+02 -0.59677682967E+03  0.66228011843E+03  0.26300008969E+03 0.  0.
         25    1    4    4    0    0  0.47156529275E+02  0.82914254005E+02 -0.28222040039E+03  0.32310118271E+03  0.12509000000E+03 0.  0.
         25    1    4    4    0    0  0.16550675760E+02  0.13235190547E+02 -0.31455642928E+03  0.33917893572E+03  0.12509000000E+03 0.  0.
         25    1    3    3    0    0 -0.63707205035E+02 -0.96149444552E+02 -0.31528970601E+03  0.35827144803E+03  0.12509000000E+03 0.  0.
<mgrwt>
<rscale>  2 0.45788660E+03</rscale>
<asrwt>0</asrwt>
<pdfrwt beam="1">  1       21 0.79768413E-02 0.45788660E+03</pdfrwt>
<pdfrwt beam="2">  1       21 0.14210426E+00 0.45788660E+03</pdfrwt>
<totfact> 0.37523950E+04</totfact>
</mgrwt>
</event>
<event>
 7    0  0.4709932E-002  0.4574436E+03  0.7546771E-02  0.1025525E+00
         21   -1    0    0  502  501  0.00000000000E+00  0.00000000000E+00  0.52663762096E+03  0.52663762096E+03  0.00000000000E+00 0.  1.
         21   -1    0    0  501  502 -0.00000000000E+00 -0.00000000000E+00 -0.99335231388E+02  0.99335231388E+02  0.00000000000E+00 0.  1.
      99926    2    1    2    0    0  0.00000000000E+00  0.00000000000E+00  0.42730238957E+03  0.62597285235E+03  0.45744363559E+03 0.  0.
      99925    2    3    3    0    0 -0.85380629054E+02  0.40664989375E+02  0.35884602558E+03  0.45486681782E+03  0.26303965235E+03 0.  0.
         25    1    4    4    0    0 -0.65550298221E+02 -0.13220184707E+02  0.18611044185E+03  0.23400046912E+03  0.12509000000E+03 0.  0.
         25    1    3    3    0    0  0.85380629054E+02 -0.40664989375E+02  0.68456363993E+02  0.17110603452E+03  0.12509000000E+03 0.  0.
         25    1    4    4    0    0 -0.19830330833E+02  0.53885174082E+02  0.17273558373E+03  0.22086634871E+03  0.12509000000E+03 0.  0.
<mgrwt>
<rscale>  2 0.45744364E+03</rscale>
<asrwt>0</asrwt>
<pdfrwt beam="1">  1       21 0.77446708E-01 0.45744364E+03</pdfrwt>
<pdfrwt beam="2">  1       21 0.14608122E-01 0.45744364E+03</pdfrwt>
<totfact> 0.56018770E+04</totfact>
</mgrwt>
</event>
<event>
 7    0  0.4709932E-002  0.4595656E+03  0.7546771E-02  0.1024907E+00
         21   -1    0    0  502  501  0.00000000000E+00  0.00000000000E+00  0.11907944592E+04  0.11907944592E+04  0.00000000000E+00 0.  1.
         21   -1    0    0  501  502 -0.00000000000E+00 -0.00000000000E+00 -0.44340266688E+02  0.44340266688E+02  0.00000000000E+00 0.  1.
      99926    2    1    2    0    0 -0.17763568394E-14  0.00000000000E+00  0.11464541925E+04  0.12351347258E+04  0.45956563792E+03 0.  0.
      99925    2    3    3    0    0  0.13471170326E+02  0.82773034822E+02  0.93954636265E+03  0.97922222935E+03  0.26286110239E+03 0.  0.
         25    1    4    4    0    0 -0.10442920893E+02  0.26229854206E+02  0.57077036209E+03  0.58499861041E+03  0.12509000000E+03 0.  0.
         25    1    4    4    0    0  0.23914091218E+02  0.56543180616E+02  0.36877600057E+03  0.39422361894E+03  0.12509000000E+03 0.  0.
         25    1    3    3    0    0 -0.13471170326E+02 -0.82773034822E+02  0.20690782982E+03  0.25591249650E+03  0.12509000000E+03 0.  0.
<mgrwt>
<rscale>  2 0.45956564E+03</rscale>
<asrwt>0</asrwt>
<pdfrwt beam="1">  1       21 0.17511681E+00 0.45956564E+03</pdfrwt>
<pdfrwt beam="2">  1       21 0.65206282E-02 0.45956564E+03</pdfrwt>
<totfact> 0.29978376E+04</totfact>
</mgrwt>
</event>
<event>
 7    0  0.4709932E-002  0.4539335E+03  0.7546771E-02  0.1026555E+00
         21   -1    0    0  502  501  0.00000000000E+00  0.00000000000E+00  0.10513248590E+04  0.10513248590E+04  0.00000000000E+00 0. -1.
         21   -1    0    0  501  502 -0.00000000000E+00 -0.00000000000E+00 -0.48999033354E+02  0.48999033354E+02  0.00000000000E+00 0. -1.
      99926    2    1    2    0    0  0.00000000000E+00  0.71054273576E-14  0.10023258257E+04  0.11003238924E+04  0.45393348339E+03 0.  0.
      99925    2    3    3    0    0 -0.74281724408E+02 -0.54312732508E+02  0.47607521205E+03  0.55163922526E+03  0.26304102309E+03 0.  0.
         25    1    4    4    0    0 -0.61689669755E+02  0.45800917385E+01  0.25123457454E+03  0.28738982609E+03  0.12509000000E+03 0.  0.
         25    1    4    4    0    0 -0.12592054653E+02 -0.58892824246E+02  0.22484063750E+03  0.26424939917E+03  0.12509000000E+03 0.  0.
         25    1    3    3    0    0  0.74281724408E+02  0.54312732508E+02  0.52625061365E+03  0.54868466714E+03  0.12509000000E+03 0.  0.
<mgrwt>
<rscale>  2 0.45393348E+03</rscale>
<asrwt>0</asrwt>
<pdfrwt beam="1">  1       21 0.15460658E+00 0.45393348E+03</pdfrwt>
<pdfrwt beam="2">  1       21 0.72057409E-02 0.45393348E+03</pdfrwt>
<totfact> 0.35779760E+04</totfact>
</mgrwt>
</event>
<event>
 7    0  0.4709932E-002  0.4541866E+03  0.7546771E-02  0.1026481E+00
         21   -1    0    0  502  501  0.00000000000E+00  0.00000000000E+00  0.84787512406E+03  0.84787512406E+03  0.00000000000E+00 0.  1.
         21   -1    0    0  501  502 -0.00000000000E+00 -0.00000000000E+00 -0.60824251914E+02  0.60824251914E+02  0.00000000000E+00 0.  1.
      99926    2    1    2    0    0  0.00000000000E+00  0.00000000000E+00  0.78705087215E+03  0.90869937598E+03  0.45418661423E+03 0.  0.
      99925    2    3    3    0    0 -0.78513659558E+02  0.66892681099E+02  0.58506647955E+03  0.64969314347E+03  0.26298169073E+03 0.  0.
         25    1    4    4    0    0 -0.22693205006E+02 -0.33020575257E+01  0.23289372661E+03  0.26535425591E+03  0.12509000000E+03 0.  0.
         25    1    4    4    0    0 -0.55820454553E+02  0.70194738625E+02  0.35217275294E+03  0.38433888756E+03  0.12509000000E+03 0.  0.
         25    1    3    3    0    0  0.78513659558E+02 -0.66892681099E+02  0.20198439260E+03  0.25900623250E+03  0.12509000000E+03 0.  0.
<mgrwt>
<rscale>  2 0.45418661E+03</rscale>
<asrwt>0</asrwt>
<pdfrwt beam="1">  1       21 0.12468751E+00 0.45418661E+03</pdfrwt>
<pdfrwt beam="2">  1       21 0.89447435E-02 0.45418661E+03</pdfrwt>
<totfact> 0.43133742E+04</totfact>
</mgrwt>
</event>
<event>
 7    0  0.4709932E-002  0.4533394E+03  0.7546771E-02  0.1026731E+00
         21   -1    0    0  502  501  0.00000000000E+00  0.00000000000E+00  0.57466461683E+03  0.57466461683E+03  0.00000000000E+00 0. -1.
         21   -1    0    0  501  502 -0.00000000000E+00 -0.00000000000E+00 -0.89407188319E+02  0.89407188319E+02  0.00000000000E+00 0. -1.
      99926    2    1    2    0    0  0.00000000000E+00  0.00000000000E+00  0.48525742851E+03  0.66407180514E+03  0.45333937670E+03 0.  0.
      99925    2    3    3    0    0  0.11072144720E+03  0.93798497657E+01  0.28993399241E+03  0.40688321045E+03  0.26295438110E+03 0.  0.
         25    1    3    3    0    0 -0.11072144720E+03 -0.93798497657E+01  0.19532343610E+03  0.25718859470E+03  0.12509000000E+03 0.  0.
         25    1    4    4    0    0  0.46445259228E+02  0.19156428473E+02  0.19447909471E+03  0.23663000071E+03  0.12509000000E+03 0.  0.
         25    1    4    4    0    0  0.64276187975E+02 -0.97765787074E+01  0.95454897698E+02  0.17025320974E+03  0.12509000000E+03 0.  0.
<mgrwt>
<rscale>  2 0.45333938E+03</rscale>
<asrwt>0</asrwt>
<pdfrwt beam="1">  1       21 0.84509501E-01 0.45333938E+03</pdfrwt>
<pdfrwt beam="2">  1       21 0.13148116E-01 0.45333938E+03</pdfrwt>
<totfact> 0.55621837E+04</totfact>
</mgrwt>
</event>
<event>
 7    0  0.4709932E-002  0.4577676E+03  0.7546771E-02  0.1025431E+00
         21   -1    0    0  502  501  0.00000000000E+00  0.00000000000E+00  0.45102451079E+02  0.45102451079E+02  0.00000000000E+00 0.  1.
         21   -1    0    0  501  502 -0.00000000000E+00 -0.00000000000E+00 -0.11615289859E+04  0.11615289859E+04  0.00000000000E+00 0.  1.
      99926    2    1    2    0    0  0.00000000000E+00  0.00000000000E+00 -0.11164265348E+04  0.12066314370E+04  0.45776764526E+03 0.  0.
      99925    2    3    3    0    0 -0.97193059419E+02 -0.42593112460E+02 -0.57876661271E+03  0.64450479291E+03  0.26297332957E+03 0.  0.
         25    1    3    3    0    0  0.97193059419E+02  0.42593112460E+02 -0.53765992210E+03  0.56212664406E+03  0.12509000000E+03 0.  0.
         25    1    4    4    0    0 -0.63931260253E+02 -0.55311882647E+02 -0.35344851626E+03  0.38434356004E+03  0.12509000000E+03 0.  0.
         25    1    4    4    0    0 -0.33261799166E+02  0.12718770187E+02 -0.22531809646E+03  0.26016123287E+03  0.12509000000E+03 0.  0.
<mgrwt>
<rscale>  2 0.45776765E+03</rscale>
<asrwt>0</asrwt>
<pdfrwt beam="1">  1       21 0.66327130E-02 0.45776765E+03</pdfrwt>
<pdfrwt beam="2">  1       21 0.17081310E+00 0.45776765E+03</pdfrwt>
<totfact> 0.31266947E+04</totfact>
</mgrwt>
</event>
<event>
 7    0  0.4709932E-002  0.4703894E+03  0.7546771E-02  0.1021810E+00
         21   -1    0    0  502  501  0.00000000000E+00  0.00000000000E+00  0.85909042830E+03  0.85909042830E+03  0.00000000000E+00 0.  1.
         21   -1    0    0  501  502 -0.00000000000E+00 -0.00000000000E+00 -0.64389675679E+02  0.64389675679E+02  0.00000000000E+00 0.  1.
      99926    2    1    2    0    0 -0.14210854715E-13  0.00000000000E+00  0.79470075262E+03  0.92348010398E+03  0.47038943040E+03 0.  0.
      99925    2    3    3    0    0 -0.91169391776E+02 -0.83110475892E+02  0.43367751567E+03  0.52197730832E+03  0.26299223108E+03 0.  0.
         25    1    4    4    0    0 -0.79475957915E+02 -0.61881015285E+02  0.27514322011E+03  0.31858591873E+03  0.12509000000E+03 0.  0.
         25    1    4    4    0    0 -0.11693433861E+02 -0.21229460607E+02  0.15853429556E+03  0.20339138960E+03  0.12509000000E+03 0.  0.
         25    1    3    3    0    0  0.91169391776E+02  0.83110475892E+02  0.36102323695E+03  0.40150279566E+03  0.12509000000E+03 0.  0.
<mgrwt>
<rscale>  2 0.47038943E+03</rscale>
<asrwt>0</asrwt>
<pdfrwt beam="1">  1       21 0.12633682E+00 0.47038943E+03</pdfrwt>
<pdfrwt beam="2">  1       21 0.94690705E-02 0.47038943E+03</pdfrwt>
<totfact> 0.37507886E+04</totfact>
</mgrwt>
</event>
<event>
 7    0  0.4709932E-002  0.4294002E+03  0.7546771E-02  0.1034050E+00
         21   -1    0    0  502  501  0.00000000000E+00  0.00000000000E+00  0.63624640194E+03  0.63624640194E+03  0.00000000000E+00 0.  1.
         21   -1    0    0  501  502 -0.00000000000E+00 -0.00000000000E+00 -0.72450126399E+02  0.72450126399E+02  0.00000000000E+00 0.  1.
      99926    2    1    2    0    0  0.00000000000E+00  0.00000000000E+00  0.56379627554E+03  0.70869652834E+03  0.42940019675E+03 0.  0.
      99925    2    3    3    0    0  0.36830952452E+02  0.76157971403E+02  0.39666437991E+03  0.48344747883E+03  0.26310127106E+03 0.  0.
         25    1    3    3    0    0 -0.36830952452E+02 -0.76157971403E+02  0.16713189563E+03  0.22524904950E+03  0.12509000000E+03 0.  0.
         25    1    4    4    0    0  0.32746085327E+02  0.18496769149E+02  0.13580363040E+03  0.18842656581E+03  0.12509000000E+03 0.  0.
         25    1    4    4    0    0  0.40848671254E+01  0.57661202254E+02  0.26086074951E+03  0.29502091302E+03  0.12509000000E+03 0.  0.
<mgrwt>
<rscale>  2 0.42940020E+03</rscale>
<asrwt>0</asrwt>
<pdfrwt beam="1">  1       21 0.93565644E-01 0.42940020E+03</pdfrwt>
<pdfrwt beam="2">  1       21 0.10654431E-01 0.42940020E+03</pdfrwt>
<totfact> 0.64469998E+04</totfact>
</mgrwt>
</event>
<event>
 7    0  0.4709932E-002  0.4599756E+03  0.7546771E-02  0.1024788E+00
         21   -1    0    0  502  501  0.00000000000E+00  0.00000000000E+00  0.11365588007E+03  0.11365588007E+03  0.00000000000E+00 0. -1.
         21   -1    0    0  501  502 -0.00000000000E+00 -0.00000000000E+00 -0.46539067091E+03  0.46539067091E+03  0.00000000000E+00 0. -1.
      99926    2    1    2    0    0  0.00000000000E+00  0.35527136788E-14 -0.35173479084E+03  0.57904655098E+03  0.45997559188E+03 0.  0.
      99925    2    3    3    0    0  0.11649257500E+03  0.10828032436E+02 -0.20368857180E+03  0.35265539084E+03  0.26303806586E+03 0.  0.
         25    1    3    3    0    0 -0.11649257500E+03 -0.10828032436E+02 -0.14804621904E+03  0.22639116014E+03  0.12509000000E+03 0.  0.
         25    1    4    4    0    0  0.38319812219E+02 -0.23526257021E+02 -0.68007478616E+02  0.14931315423E+03  0.12509000000E+03 0.  0.
         25    1    4    4    0    0  0.78172762783E+02  0.34354289458E+02 -0.13568109318E+03  0.20334223662E+03  0.12509000000E+03 0.  0.
<mgrwt>
<rscale>  2 0.45997559E+03</rscale>
<asrwt>0</asrwt>
<pdfrwt beam="1">  1       21 0.16714100E-01 0.45997559E+03</pdfrwt>
<pdfrwt beam="2">  1       21 0.68439804E-01 0.45997559E+03</pdfrwt>
<totfact> 0.57684063E+04</totfact>
</mgrwt>
</event>
<event>
 7    0  0.4709932E-002  0.4530774E+03  0.7546771E-02  0.1026808E+00
         21   -1    0    0  502  501  0.00000000000E+00  0.00000000000E+00  0.86091602915E+03  0.86091602915E+03  0.00000000000E+00 0. -1.
         21   -1    0    0  501  502 -0.00000000000E+00 -0.00000000000E+00 -0.59610665119E+02  0.59610665119E+02  0.00000000000E+00 0. -1.
      99926    2    1    2    0    0  0.35527136788E-14  0.00000000000E+00  0.80130536403E+03  0.92052669427E+03  0.45307737577E+03 0.  0.
      99925    2    3    3    0    0 -0.25553822099E+02 -0.22690030924E+02  0.28983933820E+03  0.39287828955E+03  0.26301838928E+03 0.  0.
         25    1    4    4    0    0 -0.52976286081E+01 -0.47958186650E+02  0.12383090002E+03  0.18250932150E+03  0.12509000000E+03 0.  0.
         25    1    4    4    0    0 -0.20256193491E+02  0.25268155726E+02  0.16600843819E+03  0.21036896805E+03  0.12509000000E+03 0.  0.
         25    1    3    3    0    0  0.25553822099E+02  0.22690030924E+02  0.51146602583E+03  0.52764840472E+03  0.12509000000E+03 0.  0.
<mgrwt>
<rscale>  2 0.45307738E+03</rscale>
<asrwt>0</asrwt>
<pdfrwt beam="1">  1       21 0.12660529E+00 0.45307738E+03</pdfrwt>
<pdfrwt beam="2">  1       21 0.87662748E-02 0.45307738E+03</pdfrwt>
<totfact> 0.43001042E+04</totfact>
</mgrwt>
</event>
<event>
 7    0  0.4709932E-002  0.4546004E+03  0.7546771E-02  0.1026359E+00
         21   -1    0    0  502  501  0.00000000000E+00  0.00000000000E+00  0.20179276981E+03  0.20179276981E+03  0.00000000000E+00 0. -1.
         21   -1    0    0  501  502 -0.00000000000E+00 -0.00000000000E+00 -0.25603188794E+03  0.25603188794E+03  0.00000000000E+00 0. -1.
      99926    2    1    2    0    0  0.00000000000E+00  0.00000000000E+00 -0.54239118132E+02  0.45782465775E+03  0.45460041279E+03 0.  0.
      99925    2    3    3    0    0  0.10591806023E+03 -0.37749481095E+02 -0.26101119671E+02  0.28728752437E+03  0.26307640412E+03 0.  0.
         25    1    4    4    0    0  0.48000279492E+02 -0.99312187832E+01 -0.52427512074E+02  0.14421791865E+03  0.12509000000E+03 0.  0.
         25    1    4    4    0    0  0.57917780733E+02 -0.27818262312E+02  0.26326392403E+02  0.14306960572E+03  0.12509000000E+03 0.  0.
         25    1    3    3    0    0 -0.10591806023E+03  0.37749481095E+02 -0.28137998462E+02  0.17053713338E+03  0.12509000000E+03 0.  0.
<mgrwt>
<rscale>  2 0.45460041E+03</rscale>
<asrwt>0</asrwt>
<pdfrwt beam="1">  1       21 0.29675407E-01 0.45460041E+03</pdfrwt>
<pdfrwt beam="2">  1       21 0.37651748E-01 0.45460041E+03</pdfrwt>
<totfact> 0.68557545E+04</totfact>
</mgrwt>
</event>
<event>
 7    0  0.4709932E-002  0.4644253E+03  0.7546771E-02  0.1023506E+00
         21   -1    0    0  502  501  0.00000000000E+00  0.00000000000E+00  0.10268972705E+03  0.10268972705E+03  0.00000000000E+00 0.  1.
         21   -1    0    0  501  502 -0.00000000000E+00 -0.00000000000E+00 -0.52510335271E+03  0.52510335271E+03  0.00000000000E+00 0.  1.
      99926    2    1    2    0    0 -0.71054273576E-14  0.00000000000E+00 -0.42241362566E+03  0.62779307976E+03  0.46442532216E+03 0.  0.
      99925    2    3    3    0    0  0.62338848902E+02  0.10459141711E+03 -0.26732368496E+03  0.39428527600E+03  0.26300842137E+03 0.  0.
         25    1    4    4    0    0  0.31119683710E+02  0.59389660311E+02 -0.81561999875E+02  0.16369311039E+03  0.12509000000E+03 0.  0.
         25    1    4    4    0    0  0.31219165192E+02  0.45201756795E+02 -0.18576168509E+03  0.23059216561E+03  0.12509000000E+03 0.  0.
         25    1    3    3    0    0 -0.62338848902E+02 -0.10459141711E+03 -0.15508994069E+03  0.23350780377E+03  0.12509000000E+03 0.  0.
<mgrwt>
<rscale>  2 0.46442532E+03</rscale>
<asrwt>0</asrwt>
<pdfrwt beam="1">  1       21 0.15101431E-01 0.46442532E+03</pdfrwt>
<pdfrwt beam="2">  1       21 0.77221080E-01 0.46442532E+03</pdfrwt>
<totfact> 0.52947876E+04</totfact>
</mgrwt>
</event>
<event>
 7    0  0.4709932E-002  0.4090097E+03  0.7546771E-02  0.1040704E+00
         21   -1    0    0  502  501  0.00000000000E+00  0.00000000000E+00  0.10609302874E+03  0.10609302874E+03  0.00000000000E+00 0.  1.
         21   -1    0    0  501  502 -0.00000000000E+00 -0.00000000000E+00 -0.39420348848E+03  0.39420348848E+03  0.00000000000E+00 0.  1.
      99926    2    1    2    0    0  0.17763568394E-14  0.00000000000E+00 -0.28811045973E+03  0.50029651722E+03  0.40900974088E+03 0.  0.
      99925    2    3    3    0    0  0.10337901610E+02  0.23269305539E+02 -0.25756836529E+03  0.36903852537E+03  0.26305823998E+03 0.  0.
         25    1    4    4    0    0  0.40599995784E+02  0.28012641655E+02 -0.14787221947E+03  0.19986687855E+03  0.12509000000E+03 0.  0.
         25    1    3    3    0    0 -0.10337901610E+02 -0.23269305539E+02 -0.30542094441E+02  0.13125799184E+03  0.12509000000E+03 0.  0.
         25    1    4    4    0    0 -0.30262094174E+02 -0.47433361168E+01 -0.10969614582E+03  0.16917164683E+03  0.12509000000E+03 0.  0.
<mgrwt>
<rscale>  2 0.40900974E+03</rscale>
<asrwt>0</asrwt>
<pdfrwt beam="1">  1       21 0.15601916E-01 0.40900974E+03</pdfrwt>
<pdfrwt beam="2">  1       21 0.57971101E-01 0.40900974E+03</pdfrwt>
<totfact> 0.95643839E+04</totfact>
</mgrwt>
</event>
<event>
 7    0  0.4709932E-002  0.5172369E+03  0.7546771E-02  0.1009375E+00
         21   -1    0    0  502  501  0.00000000000E+00  0.00000000000E+00  0.16468217438E+03  0.16468217438E+03  0.00000000000E+00 0.  1.
         21   -1    0    0  501  502 -0.00000000000E+00 -0.00000000000E+00 -0.40613685729E+03  0.40613685729E+03  0.00000000000E+00 0.  1.
      99926    2    1    2    0    0  0.00000000000E+00  0.35527136788E-14 -0.24145468291E+03  0.57081903167E+03  0.51723689255E+03 0.  0.
      99925    2    3    3    0    0  0.15822356171E+03  0.31932388789E+02 -0.18116598423E+03  0.35789508228E+03  0.26308440308E+03 0.  0.
         25    1    4    4    0    0  0.11230910930E+03  0.31479672944E+02 -0.71726610555E+02  0.18546298984E+03  0.12509000000E+03 0.  0.
         25    1    4    4    0    0  0.45914452415E+02  0.45271584512E+00 -0.10943937367E+03  0.17243209244E+03  0.12509000000E+03 0.  0.
         25    1    3    3    0    0 -0.15822356171E+03 -0.31932388789E+02 -0.60288698680E+02  0.21292394939E+03  0.12509000000E+03 0.  0.
<mgrwt>
<rscale>  2 0.51723689E+03</rscale>
<asrwt>0</asrwt>
<pdfrwt beam="1">  1       21 0.24217967E-01 0.51723689E+03</pdfrwt>
<pdfrwt beam="2">  1       21 0.59726008E-01 0.51723689E+03</pdfrwt>
<totfact> 0.38020350E+04</totfact>
</mgrwt>
</event>
<event>
 7    0  0.4709932E-002  0.4583035E+03  0.7546771E-02  0.1025274E+00
         21   -1    0    0  502  501  0.00000000000E+00  0.00000000000E+00  0.11689758147E+03  0.11689758147E+03  0.00000000000E+00 0.  1.
         21   -1    0    0  501  502 -0.00000000000E+00 -0.00000000000E+00 -0.44920106945E+03  0.44920106945E+03  0.00000000000E+00 0.  1.
      99926    2    1    2    0    0  0.00000000000E+00  0.00000000000E+00 -0.33230348798E+03  0.56609865092E+03  0.45830347418E+03 0.  0.
      99925    2    3    3    0    0  0.50592022959E+02 -0.10469011826E+03 -0.20770913333E+03  0.35469658149E+03  0.26295818528E+03 0.  0.
         25    1    4    4    0    0  0.24009624536E+02 -0.93552425488E+02 -0.99027191186E+02  0.18650043185E+03  0.12509000000E+03 0.  0.
         25    1    3    3    0    0 -0.50592022959E+02  0.10469011826E+03 -0.12459435465E+03  0.21140206943E+03  0.12509000000E+03 0.  0.
         25    1    4    4    0    0  0.26582398423E+02 -0.11137692771E+02 -0.10868194214E+03  0.16819614964E+03  0.12509000000E+03 0.  0.
<mgrwt>
<rscale>  2 0.45830347E+03</rscale>
<asrwt>0</asrwt>
<pdfrwt beam="1">  1       21 0.17190821E-01 0.45830347E+03</pdfrwt>
<pdfrwt beam="2">  1       21 0.66058981E-01 0.45830347E+03</pdfrwt>
<totfact> 0.59251805E+04</totfact>
</mgrwt>
</event>
<event>
 7    0  0.4709932E-002  0.4577793E+03  0.7546771E-02  0.1025427E+00
         21   -1    0    0  502  501  0.00000000000E+00  0.00000000000E+00  0.22575600475E+03  0.22575600475E+03  0.00000000000E+00 0.  1.
         21   -1    0    0  501  502 -0.00000000000E+00 -0.00000000000E+00 -0.23206677596E+03  0.23206677596E+03  0.00000000000E+00 0.  1.
      99926    2    1    2    0    0  0.00000000000E+00  0.00000000000E+00 -0.63107712094E+01  0.45782278071E+03  0.45777928383E+03 0.  0.
      99925    2    3    3    0    0  0.82562796224E+02  0.18809411005E+02  0.74956639865E+02  0.28629345533E+03  0.26301147397E+03 0.  0.
         25    1    4    4    0    0  0.11791576840E+02  0.94259825244E+01  0.65371704065E+02  0.14194667387E+03  0.12509000000E+03 0.  0.
         25    1    4    4    0    0  0.70771219384E+02  0.93834284805E+01  0.95849358005E+01  0.14434678146E+03  0.12509000000E+03 0.  0.
         25    1    3    3    0    0 -0.82562796224E+02 -0.18809411005E+02 -0.81267411075E+02  0.17152932538E+03  0.12509000000E+03 0.  0.
<mgrwt>
<rscale>  2 0.45777928E+03</rscale>
<asrwt>0</asrwt>
<pdfrwt beam="1">  1       21 0.33199413E-01 0.45777928E+03</pdfrwt>
<pdfrwt beam="2">  1       21 0.34127467E-01 0.45777928E+03</pdfrwt>
<totfact> 0.66844811E+04</totfact>
</mgrwt>
</event>
<event>
 7    0  0.4709932E-002  0.4550457E+03  0.7546771E-02  0.1026228E+00
         21   -1    0    0  502  501  0.00000000000E+00  0.00000000000E+00  0.16904763981E+03  0.16904763981E+03  0.00000000000E+00 0.  1.
         21   -1    0    0  501  502 -0.00000000000E+00 -0.00000000000E+00 -0.30622514774E+03  0.30622514774E+03  0.00000000000E+00 0.  1.
      99926    2    1    2    0    0  0.00000000000E+00  0.35527136788E-14 -0.13717750794E+03  0.47527278755E+03  0.45504566134E+03 0.  0.
      99925    2    3    3    0    0 -0.50552003159E+02 -0.28225964667E+02 -0.18813932088E+03  0.32831420637E+03  0.26275769053E+03 0.  0.
         25    1    4    4    0    0 -0.48321716286E+02 -0.25659872762E+02 -0.59761660979E+02  0.14903818825E+03  0.12509000000E+03 0.  0.
         25    1    3    3    0    0  0.50552003159E+02  0.28225964667E+02  0.50961812947E+02  0.14695858118E+03  0.12509000000E+03 0.  0.
         25    1    4    4    0    0 -0.22302868727E+01 -0.25660919048E+01 -0.12837765990E+03  0.17927601811E+03  0.12509000000E+03 0.  0.
<mgrwt>
<rscale>  2 0.45504566E+03</rscale>
<asrwt>0</asrwt>
<pdfrwt beam="1">  1       21 0.24859947E-01 0.45504566E+03</pdfrwt>
<pdfrwt beam="2">  1       21 0.45033110E-01 0.45504566E+03</pdfrwt>
<totfact> 0.67021563E+04</totfact>
</mgrwt>
</event>
<event>
 7    0  0.4709932E-002  0.4601217E+03  0.7546771E-02  0.1024746E+00
         21   -1    0    0  502  501  0.00000000000E+00  0.00000000000E+00  0.14929671375E+04  0.14929671375E+04  0.00000000000E+00 0. -1.
         21   -1    0    0  501  502 -0.00000000000E+00 -0.00000000000E+00 -0.35451551029E+02  0.35451551029E+02  0.00000000000E+00 0. -1.
      99926    2    1    2    0    0  0.00000000000E+00  0.00000000000E+00  0.14575155865E+04  0.15284186885E+04  0.46012172589E+03 0.  0.
      99925    2    3    3    0    0  0.80102505013E+02 -0.34485829222E+02  0.11763053844E+04  0.12085243785E+04  0.26311809587E+03 0.  0.
         25    1    3    3    0    0 -0.80102505013E+02  0.34485829222E+02  0.28121020203E+03  0.31989430997E+03  0.12509000000E+03 0.  0.
         25    1    4    4    0    0  0.22029668371E+02  0.18017513849E+02  0.60661790991E+03  0.62003446180E+03  0.12509000000E+03 0.  0.
         25    1    4    4    0    0  0.58072836642E+02 -0.52503343072E+02  0.56968747451E+03  0.58848991673E+03  0.12509000000E+03 0.  0.
<mgrwt>
<rscale>  2 0.46012173E+03</rscale>
<asrwt>0</asrwt>
<pdfrwt beam="1">  1       21 0.21955395E+00 0.46012173E+03</pdfrwt>
<pdfrwt beam="2">  1       21 0.52134644E-02 0.46012173E+03</pdfrwt>
<totfact> 0.22195045E+04</totfact>
</mgrwt>
</event>
<event>
 7    0  0.4709932E-002  0.4559997E+03  0.7546771E-02  0.1025948E+00
         21   -1    0    0  502  501  0.00000000000E+00  0.00000000000E+00  0.42835653474E+02  0.42835653474E+02  0.00000000000E+00 0. -1.
         21   -1    0    0  501  502 -0.00000000000E+00 -0.00000000000E+00 -0.12135667975E+04  0.12135667975E+04  0.00000000000E+00 0. -1.
      99926    2    1    2    0    0  0.00000000000E+00  0.17763568394E-14 -0.11707311440E+04  0.12564024510E+04  0.45599967897E+03 0.  0.
      99925    2    3    3    0    0 -0.10389406426E+03  0.92042079188E+01 -0.86353090574E+03  0.90869828284E+03  0.26299857422E+03 0.  0.
         25    1    4    4    0    0 -0.89074868576E+02  0.23772591819E+02 -0.44286830971E+03  0.46933923358E+03  0.12509000000E+03 0.  0.
         25    1    4    4    0    0 -0.14819195683E+02 -0.14568383900E+02 -0.42066259603E+03  0.43935904926E+03  0.12509000000E+03 0.  0.
         25    1    3    3    0    0  0.10389406426E+03 -0.92042079188E+01 -0.30720023828E+03  0.34770416812E+03  0.12509000000E+03 0.  0.
<mgrwt>
<rscale>  2 0.45599968E+03</rscale>
<asrwt>0</asrwt>
<pdfrwt beam="1">  1       21 0.62993604E-02 0.45599968E+03</pdfrwt>
<pdfrwt beam="2">  1       21 0.17846572E+00 0.45599968E+03</pdfrwt>
<totfact> 0.30172124E+04</totfact>
</mgrwt>
</event>
<event>
 7    0  0.4709932E-002  0.4559094E+03  0.7546771E-02  0.1025974E+00
         21   -1    0    0  502  501  0.00000000000E+00  0.00000000000E+00  0.16891320335E+03  0.16891320335E+03  0.00000000000E+00 0. -1.
         21   -1    0    0  501  502 -0.00000000000E+00 -0.00000000000E+00 -0.30763338386E+03  0.30763338386E+03  0.00000000000E+00 0. -1.
      99926    2    1    2    0    0  0.00000000000E+00  0.00000000000E+00 -0.13872018050E+03  0.47654658721E+03  0.45590937839E+03 0.  0.
      99925    2    3    3    0    0  0.70398131145E+02  0.17750544157E+02  0.46755950481E+01  0.27287814284E+03  0.26300121856E+03 0.  0.
         25    1    4    4    0    0 -0.67496376812E+01  0.69954185706E+01  0.92981422675E+00  0.12547057880E+03  0.12509000000E+03 0.  0.
         25    1    3    3    0    0 -0.70398131145E+02 -0.17750544157E+02 -0.14339577555E+03  0.20366844437E+03  0.12509000000E+03 0.  0.
         25    1    4    4    0    0  0.77147768826E+02  0.10755125587E+02  0.37457808214E+01  0.14740756404E+03  0.12509000000E+03 0.  0.
<mgrwt>
<rscale>  2 0.45590938E+03</rscale>
<asrwt>0</asrwt>
<pdfrwt beam="1">  1       21 0.24840177E-01 0.45590938E+03</pdfrwt>
<pdfrwt beam="2">  1       21 0.45240203E-01 0.45590938E+03</pdfrwt>
<totfact> 0.66471332E+04</totfact>
</mgrwt>
</event>
<event>
 6    0  0.5041634E-002  0.4465158E+03  0.7546771E-02  0.1028766E+00
         21   -1    0    0  502  501  0.00000000000E+00  0.00000000000E+00  0.24925648462E+03  0.24925648462E+03  0.00000000000E+00 0.  1.
         21   -1    0    0  501  502 -0.00000000000E+00 -0.00000000000E+00 -0.19997112605E+03  0.19997112605E+03  0.00000000000E+00 0.  1.
      99926    2    1    2    0    0  0.00000000000E+00  0.00000000000E+00  0.49285358569E+02  0.44922761066E+03  0.44651584475E+03 0.  0.
         25    1    3    3    0    0 -0.66441513595E+02  0.34702057518E+02  0.82837766589E+02  0.16771497011E+03  0.12509000000E+03 0.  0.
         25    1    3    3    0    0  0.33947945163E+02 -0.70162620964E+01  0.32416236794E+02  0.13379092429E+03  0.12509000000E+03 0.  0.
         25    1    3    3    0    0  0.32493568432E+02 -0.27685795422E+02 -0.65968644815E+02  0.14772171626E+03  0.12509000000E+03 0.  0.
<mgrwt>
<rscale>  2 0.44651584E+03</rscale>
<asrwt>0</asrwt>
<pdfrwt beam="1">  1       21 0.36655365E-01 0.44651584E+03</pdfrwt>
<pdfrwt beam="2">  1       21 0.29407519E-01 0.44651584E+03</pdfrwt>
<totfact> 0.73844078E+04</totfact>
</mgrwt>
</event>
<event>
 7    0  0.4709932E-002  0.4498459E+03  0.7546771E-02  0.1027768E+00
         21   -1    0    0  502  501  0.00000000000E+00  0.00000000000E+00  0.13201817871E+04  0.13201817871E+04  0.00000000000E+00 0.  1.
         21   -1    0    0  501  502 -0.00000000000E+00 -0.00000000000E+00 -0.38320735911E+02  0.38320735911E+02  0.00000000000E+00 0.  1.
      99926    2    1    2    0    0  0.00000000000E+00  0.71054273576E-14  0.12818610512E+04  0.13585025230E+04  0.44984591859E+03 0.  0.
      99925    2    3    3    0    0  0.10141068282E+03  0.34272680696E+02  0.85878020503E+03  0.90451612044E+03  0.26303465239E+03 0.  0.
         25    1    4    4    0    0  0.65447376539E+02 -0.15418903452E+02  0.37183875198E+03  0.39803601251E+03  0.12509000000E+03 0.  0.
         25    1    3    3    0    0 -0.10141068282E+03 -0.34272680696E+02  0.42308084616E+03  0.45398640257E+03  0.12509000000E+03 0.  0.
         25    1    4    4    0    0  0.35963306279E+02  0.49691584148E+02  0.48694145305E+03  0.50648010794E+03  0.12509000000E+03 0.  0.
<mgrwt>
<rscale>  2 0.44984592E+03</rscale>
<asrwt>0</asrwt>
<pdfrwt beam="1">  1       21 0.19414435E+00 0.44984592E+03</pdfrwt>
<pdfrwt beam="2">  1       21 0.56354032E-02 0.44984592E+03</pdfrwt>
<totfact> 0.28587377E+04</totfact>
</mgrwt>
</event>
<event>
 7    0  0.4709932E-002  0.4519163E+03  0.7546771E-02  0.1027152E+00
         21   -1    0    0  502  501  0.00000000000E+00  0.00000000000E+00  0.45990215826E+03  0.45990215826E+03  0.00000000000E+00 0. -1.
         21   -1    0    0  501  502 -0.00000000000E+00 -0.00000000000E+00 -0.11101729194E+03  0.11101729194E+03  0.00000000000E+00 0. -1.
      99926    2    1    2    0    0 -0.14210854715E-13  0.00000000000E+00  0.34888486632E+03  0.57091945020E+03  0.45191632928E+03 0.  0.
      99925    2    3    3    0    0  0.90155001867E+02  0.87171857631E+01  0.30098003060E+03  0.40922128981E+03  0.26204803286E+03 0.  0.
         25    1    4    4    0    0  0.85804186296E+02  0.49246839385E+01  0.15595030103E+03  0.21761115640E+03  0.12509000000E+03 0.  0.
         25    1    4    4    0    0  0.43508155716E+01  0.37925018246E+01  0.14502972957E+03  0.19161013341E+03  0.12509000000E+03 0.  0.
         25    1    3    3    0    0 -0.90155001867E+02 -0.87171857631E+01  0.47904835720E+02  0.16169816039E+03  0.12509000000E+03 0.  0.
<mgrwt>
<rscale>  2 0.45191633E+03</rscale>
<asrwt>0</asrwt>
<pdfrwt beam="1">  1       21 0.67632669E-01 0.45191633E+03</pdfrwt>
<pdfrwt beam="2">  1       21 0.16326073E-01 0.45191633E+03</pdfrwt>
<totfact> 0.62003065E+04</totfact>
</mgrwt>
</event>
<event>
 7    0  0.4709932E-002  0.4521888E+03  0.7546771E-02  0.1027071E+00
         21   -1    0    0  502  501  0.00000000000E+00  0.00000000000E+00  0.10735231400E+03  0.10735231400E+03  0.00000000000E+00 0.  1.
         21   -1    0    0  501  502 -0.00000000000E+00 -0.00000000000E+00 -0.47617668796E+03  0.47617668796E+03  0.00000000000E+00 0.  1.
      99926    2    1    2    0    0  0.00000000000E+00 -0.17763568394E-14 -0.36882437396E+03  0.58352900196E+03  0.45218876291E+03 0.  0.
      99925    2    3    3    0    0 -0.34565984110E+02 -0.14638852045E+02 -0.98516271599E+02  0.28332393614E+03  0.26297888465E+03 0.  0.
         25    1    4    4    0    0 -0.75142294563E+01  0.24777177422E+02 -0.23679355463E+02  0.12991763599E+03  0.12509000000E+03 0.  0.
         25    1    3    3    0    0  0.34565984110E+02  0.14638852045E+02 -0.27030810236E+03  0.30020506583E+03  0.12509000000E+03 0.  0.
         25    1    4    4    0    0 -0.27051754654E+02 -0.39416029467E+02 -0.74836916136E+02  0.15340630015E+03  0.12509000000E+03 0.  0.
<mgrwt>
<rscale>  2 0.45218876E+03</rscale>
<asrwt>0</asrwt>
<pdfrwt beam="1">  1       21 0.15787105E-01 0.45218876E+03</pdfrwt>
<pdfrwt beam="2">  1       21 0.70025983E-01 0.45218876E+03</pdfrwt>
<totfact> 0.61049120E+04</totfact>
</mgrwt>
</event>
<event>
 7    0  0.4709932E-002  0.4550987E+03  0.7546771E-02  0.1026212E+00
         21   -1    0    0  502  501  0.00000000000E+00  0.00000000000E+00  0.85296986642E+02  0.85296986642E+02  0.00000000000E+00 0.  1.
         21   -1    0    0  501  502 -0.00000000000E+00 -0.00000000000E+00 -0.60704017354E+03  0.60704017354E+03  0.00000000000E+00 0.  1.
      99926    2    1    2    0    0  0.00000000000E+00  0.00000000000E+00 -0.52174318690E+03  0.69233716018E+03  0.45509865996E+03 0.  0.
      99925    2    3    3    0    0  0.71423402922E+02  0.68953049870E+02 -0.24530622236E+03  0.37308689936E+03  0.26298833848E+03 0.  0.
         25    1    3    3    0    0 -0.71423402922E+02 -0.68953049870E+02 -0.27643696455E+03  0.31925026083E+03  0.12509000000E+03 0.  0.
         25    1    4    4    0    0  0.55162798166E+02  0.23845163469E+01 -0.99383569129E+02  0.16903615629E+03  0.12509000000E+03 0.  0.
         25    1    4    4    0    0  0.16260604756E+02  0.66568533523E+02 -0.14592265323E+03  0.20405074307E+03  0.12509000000E+03 0.  0.
<mgrwt>
<rscale>  2 0.45509866E+03</rscale>
<asrwt>0</asrwt>
<pdfrwt beam="1">  1       21 0.12543675E-01 0.45509866E+03</pdfrwt>
<pdfrwt beam="2">  1       21 0.89270613E-01 0.45509866E+03</pdfrwt>
<totfact> 0.53279653E+04</totfact>
</mgrwt>
</event>
<event>
 7    0  0.4709932E-002  0.4572987E+03  0.7546771E-02  0.1025568E+00
         21   -1    0    0  502  501  0.00000000000E+00  0.00000000000E+00  0.52777047242E+03  0.52777047242E+03  0.00000000000E+00 0.  1.
         21   -1    0    0  501  502 -0.00000000000E+00 -0.00000000000E+00 -0.99059192650E+02  0.99059192650E+02  0.00000000000E+00 0.  1.
      99926    2    1    2    0    0  0.00000000000E+00  0.00000000000E+00  0.42871127977E+03  0.62682966507E+03  0.45729866347E+03 0.  0.
      99925    2    3    3    0    0 -0.78737088826E+02  0.29203913604E+02  0.37758296687E+03  0.46772589325E+03  0.26295668202E+03 0.  0.
         25    1    4    4    0    0 -0.13269524131E+02  0.12659302122E+02  0.23224682228E+03  0.26442850217E+03  0.12509000000E+03 0.  0.
         25    1    4    4    0    0 -0.65467564695E+02  0.16544611482E+02  0.14533614459E+03  0.20329739108E+03  0.12509000000E+03 0.  0.
         25    1    3    3    0    0  0.78737088826E+02 -0.29203913604E+02  0.51128312898E+02  0.15910377182E+03  0.12509000000E+03 0.  0.
<mgrwt>
<rscale>  2 0.45729866E+03</rscale>
<asrwt>0</asrwt>
<pdfrwt beam="1">  1       21 0.77613303E-01 0.45729866E+03</pdfrwt>
<pdfrwt beam="2">  1       21 0.14567529E-01 0.45729866E+03</pdfrwt>
<totfact> 0.56032670E+04</totfact>
</mgrwt>
</event>
<event>
 7    0  0.4709932E-002  0.4584367E+03  0.7546771E-02  0.1025236E+00
         21   -1    0    0  502  501  0.00000000000E+00  0.00000000000E+00  0.16347356294E+04  0.16347356294E+04  0.00000000000E+00 0.  1.
         21   -1    0    0  501  502 -0.00000000000E+00 -0.00000000000E+00 -0.32140393639E+02  0.32140393639E+02  0.00000000000E+00 0.  1.
      99926    2    1    2    0    0  0.00000000000E+00  0.71054273576E-14  0.16025952358E+04  0.16668760231E+04  0.45843667665E+03 0.  0.
      99925    2    3    3    0    0  0.24532374174E+02  0.54992434103E+02  0.13677333284E+04  0.13940507514E+04  0.26278705221E+03 0.  0.
         25    1    3    3    0    0 -0.24532374174E+02 -0.54992434103E+02  0.23486190739E+03  0.27282527162E+03  0.12509000000E+03 0.  0.
         25    1    4    4    0    0  0.37713103956E+02 -0.89553550984E-01  0.74362310450E+03  0.75501332165E+03  0.12509000000E+03 0.  0.
         25    1    4    4    0    0 -0.13180729782E+02  0.55081987654E+02  0.62411022389E+03  0.63903742979E+03  0.12509000000E+03 0.  0.
<mgrwt>
<rscale>  2 0.45843668E+03</rscale>
<asrwt>0</asrwt>
<pdfrwt beam="1">  1       21 0.24040224E+00 0.45843668E+03</pdfrwt>
<pdfrwt beam="2">  1       21 0.47265296E-02 0.45843668E+03</pdfrwt>
<totfact> 0.19436105E+04</totfact>
</mgrwt>
</event>
<event>
 7    0  0.4709932E-002  0.4598302E+03  0.7546771E-02  0.1024830E+00
         21   -1    0    0  502  501  0.00000000000E+00  0.00000000000E+00  0.31966935684E+02  0.31966935684E+02  0.00000000000E+00 0. -1.
         21   -1    0    0  501  502 -0.00000000000E+00 -0.00000000000E+00 -0.16536136070E+04  0.16536136070E+04  0.00000000000E+00 0. -1.
      99926    2    1    2    0    0  0.00000000000E+00  0.00000000000E+00 -0.16216466713E+04  0.16855805427E+04  0.45983022876E+03 0.  0.
      99925    2    3    3    0    0  0.11470705523E+03  0.15305691820E+02 -0.10916966999E+04  0.11289060839E+04  0.26312599462E+03 0.  0.
         25    1    4    4    0    0  0.46139100005E+02 -0.16136154989E+02 -0.64839591360E+03  0.66215856177E+03  0.12509000000E+03 0.  0.
         25    1    3    3    0    0 -0.11470705523E+03 -0.15305691820E+02 -0.52994997138E+03  0.55667445872E+03  0.12509000000E+03 0.  0.
         25    1    4    4    0    0  0.68567955226E+02  0.31441846809E+02 -0.44330078631E+03  0.46674752218E+03  0.12509000000E+03 0.  0.
<mgrwt>
<rscale>  2 0.45983023E+03</rscale>
<asrwt>0</asrwt>
<pdfrwt beam="1">  1       21 0.47010202E-02 0.45983023E+03</pdfrwt>
<pdfrwt beam="2">  1       21 0.24317846E+00 0.45983023E+03</pdfrwt>
<totfact> 0.18846504E+04</totfact>
</mgrwt>
</event>
<event>
 7    0  0.4709932E-002  0.4576439E+03  0.7546771E-02  0.1025467E+00
         21   -1    0    0  502  501  0.00000000000E+00  0.00000000000E+00  0.13431053935E+03  0.13431053935E+03  0.00000000000E+00 0. -1.
         21   -1    0    0  501  502 -0.00000000000E+00 -0.00000000000E+00 -0.38983899898E+03  0.38983899898E+03  0.00000000000E+00 0. -1.
      99926    2    1    2    0    0  0.00000000000E+00  0.00000000000E+00 -0.25552845963E+03  0.52414953833E+03  0.45764390617E+03 0.  0.
      99925    2    3    3    0    0 -0.27813417455E+02 -0.10979989270E+03 -0.13628011125E+03  0.31751633839E+03  0.26346679828E+03 0.  0.
         25    1    4    4    0    0 -0.37946574281E+02 -0.86447504474E+02 -0.54552624379E+02  0.16594158748E+03  0.12509000000E+03 0.  0.
         25    1    4    4    0    0  0.10133156826E+02 -0.23352388225E+02 -0.81727486872E+02  0.15157475091E+03  0.12509000000E+03 0.  0.
         25    1    3    3    0    0  0.27813417455E+02  0.10979989270E+03 -0.11924834838E+03  0.20663319994E+03  0.12509000000E+03 0.  0.
<mgrwt>
<rscale>  2 0.45764391E+03</rscale>
<asrwt>0</asrwt>
<pdfrwt beam="1">  1       21 0.19751550E-01 0.45764391E+03</pdfrwt>
<pdfrwt beam="2">  1       21 0.57329264E-01 0.45764391E+03</pdfrwt>
<totfact> 0.62288386E+04</totfact>
</mgrwt>
</event>
<event>
 7    0  0.4709932E-002  0.4576641E+03  0.7546771E-02  0.1025461E+00
         21   -1    0    0  502  501  0.00000000000E+00  0.00000000000E+00  0.10222516469E+04  0.10222516469E+04  0.00000000000E+00 0. -1.
         21   -1    0    0  501  502 -0.00000000000E+00 -0.00000000000E+00 -0.51224274191E+02  0.51224274191E+02  0.00000000000E+00 0. -1.
      99926    2    1    2    0    0  0.35527136788E-14  0.00000000000E+00  0.97102737276E+03  0.10734759211E+04  0.45766406307E+03 0.  0.
      99925    2    3    3    0    0  0.14670010552E+02  0.10762131358E+03  0.51736261430E+03  0.59050927891E+03  0.26313414346E+03 0.  0.
         25    1    3    3    0    0 -0.14670010552E+02 -0.10762131358E+03  0.45366475846E+03  0.48296664223E+03  0.12509000000E+03 0.  0.
         25    1    4    4    0    0 -0.25483897378E+02  0.77337469714E+02  0.25279675525E+03  0.29357149182E+03  0.12509000000E+03 0.  0.
         25    1    4    4    0    0  0.40153907929E+02  0.30283843861E+02  0.26456585905E+03  0.29693778708E+03  0.12509000000E+03 0.  0.
<mgrwt>
<rscale>  2 0.45766406E+03</rscale>
<asrwt>0</asrwt>
<pdfrwt beam="1">  1       21 0.15033111E+00 0.45766406E+03</pdfrwt>
<pdfrwt beam="2">  1       21 0.75329821E-02 0.45766406E+03</pdfrwt>
<totfact> 0.35680083E+04</totfact>
</mgrwt>
</event>
<event>
 7    0  0.4709932E-002  0.4561879E+03  0.7546771E-02  0.1025893E+00
         21   -1    0    0  502  501  0.00000000000E+00  0.00000000000E+00  0.83994757927E+03  0.83994757927E+03  0.00000000000E+00 0. -1.
         21   -1    0    0  501  502 -0.00000000000E+00 -0.00000000000E+00 -0.61940581536E+02  0.61940581536E+02  0.00000000000E+00 0. -1.
      99926    2    1    2    0    0  0.14210854715E-13  0.71054273576E-14  0.77800699774E+03  0.90188816081E+03  0.45618786271E+03 0.  0.
      99925    2    3    3    0    0  0.82130083578E+02  0.49157870000E+02  0.36518021921E+03  0.46003376852E+03  0.26289280871E+03 0.  0.
         25    1    4    4    0    0  0.19544874045E+02  0.58679246721E+02  0.18576970607E+03  0.23234273797E+03  0.12509000000E+03 0.  0.
         25    1    4    4    0    0  0.62585209534E+02 -0.95213767206E+01  0.17941051314E+03  0.22769103055E+03  0.12509000000E+03 0.  0.
         25    1    3    3    0    0 -0.82130083578E+02 -0.49157870000E+02  0.41282677853E+03  0.44185439229E+03  0.12509000000E+03 0.  0.
<mgrwt>
<rscale>  2 0.45618786E+03</rscale>
<asrwt>0</asrwt>
<pdfrwt beam="1">  1       21 0.12352170E+00 0.45618786E+03</pdfrwt>
<pdfrwt beam="2">  1       21 0.91089096E-02 0.45618786E+03</pdfrwt>
<totfact> 0.42753159E+04</totfact>
</mgrwt>
</event>
<event>
 7    0  0.4709932E-002  0.4547533E+03  0.7546771E-02  0.1026314E+00
         21   -1    0    0  502  501  0.00000000000E+00  0.00000000000E+00  0.26286858406E+03  0.26286858406E+03  0.00000000000E+00 0. -1.
         21   -1    0    0  501  502 -0.00000000000E+00 -0.00000000000E+00 -0.19667678062E+03  0.19667678062E+03  0.00000000000E+00 0. -1.
      99926    2    1    2    0    0  0.00000000000E+00  0.00000000000E+00  0.66191803446E+02  0.45954536468E+03  0.45475332583E+03 0.  0.
      99925    2    3    3    0    0 -0.29603434812E+02 -0.10664747220E+03  0.18759682135E+02  0.28591541072E+03  0.26295560411E+03 0.  0.
         25    1    3    3    0    0  0.29603434812E+02  0.10664747220E+03  0.47432121312E+02  0.17362995396E+03  0.12509000000E+03 0.  0.
         25    1    4    4    0    0 -0.98884884313E+01 -0.74631932909E+02  0.44820987420E+02  0.15272241691E+03  0.12509000000E+03 0.  0.
         25    1    4    4    0    0 -0.19714946381E+02 -0.32015539292E+02 -0.26061305285E+02  0.13319299381E+03  0.12509000000E+03 0.  0.
<mgrwt>
<rscale>  2 0.45475333E+03</rscale>
<asrwt>0</asrwt>
<pdfrwt beam="1">  1       21 0.38657145E-01 0.45475333E+03</pdfrwt>
<pdfrwt beam="2">  1       21 0.28923056E-01 0.45475333E+03</pdfrwt>
<totfact> 0.68348072E+04</totfact>
</mgrwt>
</event>
<event>
 7    0  0.4709932E-002  0.4570118E+03  0.7546771E-02  0.1025651E+00
         21   -1    0    0  502  501  0.00000000000E+00  0.00000000000E+00  0.14635560509E+03  0.14635560509E+03  0.00000000000E+00 0.  1.
         21   -1    0    0  501  502 -0.00000000000E+00 -0.00000000000E+00 -0.35676770146E+03  0.35676770146E+03  0.00000000000E+00 0.  1.
      99926    2    1    2    0    0  0.00000000000E+00  0.00000000000E+00 -0.21041209637E+03  0.50312330654E+03  0.45701182839E+03 0.  0.
      99925    2    3    3    0    0  0.51831991135E+02 -0.94598459793E+02 -0.17623021255E+03  0.33444807664E+03  0.26298860099E+03 0.  0.
         25    1    4    4    0    0  0.21800343280E+02 -0.89742865941E+02 -0.98678357079E+02  0.18415744137E+03  0.12509000000E+03 0.  0.
         25    1    3    3    0    0 -0.51831991135E+02  0.94598459793E+02 -0.34181883818E+02  0.16867522990E+03  0.12509000000E+03 0.  0.
         25    1    4    4    0    0  0.30031647855E+02 -0.48555938520E+01 -0.77551855473E+02  0.15029063528E+03  0.12509000000E+03 0.  0.
<mgrwt>
<rscale>  2 0.45701183E+03</rscale>
<asrwt>0</asrwt>
<pdfrwt beam="1">  1       21 0.21522884E-01 0.45701183E+03</pdfrwt>
<pdfrwt beam="2">  1       21 0.52465837E-01 0.45701183E+03</pdfrwt>
<totfact> 0.64023253E+04</totfact>
</mgrwt>
</event>
<event>
 7    0  0.4709932E-002  0.4604598E+03  0.7546771E-02  0.1024648E+00
         21   -1    0    0  502  501  0.00000000000E+00  0.00000000000E+00  0.82706008215E+02  0.82706008215E+02  0.00000000000E+00 0.  1.
         21   -1    0    0  501  502 -0.00000000000E+00 -0.00000000000E+00 -0.64089419369E+03  0.64089419369E+03  0.00000000000E+00 0.  1.
      99926    2    1    2    0    0  0.00000000000E+00  0.00000000000E+00 -0.55818818547E+03  0.72360020190E+03  0.46045977218E+03 0.  0.
      99925    2    3    3    0    0  0.97980238937E+02  0.29978443366E+02 -0.44284358776E+03  0.52497815224E+03  0.26266477272E+03 0.  0.
         25    1    4    4    0    0  0.84960761026E+02  0.32900360782E+01 -0.27117190644E+03  0.31050099226E+03  0.12509000000E+03 0.  0.
         25    1    4    4    0    0  0.13019477911E+02  0.26688407288E+02 -0.17167168132E+03  0.21447715999E+03  0.12509000000E+03 0.  0.
         25    1    3    3    0    0 -0.97980238937E+02 -0.29978443366E+02 -0.11534459771E+03  0.19862204966E+03  0.12509000000E+03 0.  0.
<mgrwt>
<rscale>  2 0.46045977E+03</rscale>
<asrwt>0</asrwt>
<pdfrwt beam="1">  1       21 0.12162648E-01 0.46045977E+03</pdfrwt>
<pdfrwt beam="2">  1       21 0.94249149E-01 0.46045977E+03</pdfrwt>
<totfact> 0.49481088E+04</totfact>
</mgrwt>
</event>
<event>
 7    0  0.4709932E-002  0.4560808E+03  0.7546771E-02  0.1025924E+00
         21   -1    0    0  502  501  0.00000000000E+00  0.00000000000E+00  0.16965992540E+03  0.16965992540E+03  0.00000000000E+00 0. -1.
         21   -1    0    0  501  502 -0.00000000000E+00 -0.00000000000E+00 -0.30650975871E+03  0.30650975871E+03  0.00000000000E+00 0. -1.
      99926    2    1    2    0    0  0.00000000000E+00  0.71054273576E-14 -0.13684983330E+03  0.47616968411E+03  0.45608079459E+03 0.  0.
      99925    2    3    3    0    0  0.10056063670E+03 -0.52836471836E+02 -0.97503824563E+02  0.30267688624E+03  0.26306304806E+03 0.  0.
         25    1    3    3    0    0 -0.10056063670E+03  0.52836471836E+02 -0.39346008741E+02  0.17349279787E+03  0.12509000000E+03 0.  0.
         25    1    4    4    0    0  0.92649129503E+02 -0.37492391154E+02 -0.49635038456E+02  0.16763259150E+03  0.12509000000E+03 0.  0.
         25    1    4    4    0    0  0.79115071948E+01 -0.15344080682E+02 -0.47868786107E+02  0.13504429474E+03  0.12509000000E+03 0.  0.
<mgrwt>
<rscale>  2 0.45608079E+03</rscale>
<asrwt>0</asrwt>
<pdfrwt beam="1">  1       21 0.24949989E-01 0.45608079E+03</pdfrwt>
<pdfrwt beam="2">  1       21 0.45074964E-01 0.45608079E+03</pdfrwt>
<totfact> 0.66408563E+04</totfact>
</mgrwt>
</event>
<event>
 7    0  0.4709932E-002  0.4545284E+03  0.7546771E-02  0.1026380E+00
         21   -1    0    0  502  501  0.00000000000E+00  0.00000000000E+00  0.16047425186E+04  0.16047425186E+04  0.00000000000E+00 0.  1.
         21   -1    0    0  501  502 -0.00000000000E+00 -0.00000000000E+00 -0.32185240650E+02  0.32185240650E+02  0.00000000000E+00 0.  1.
      99926    2    1    2    0    0 -0.35527136788E-14  0.71054273576E-14  0.15725572779E+04  0.16369277592E+04  0.45452843318E+03 0.  0.
      99925    2    3    3    0    0 -0.30030983859E+02  0.39185027082E+02  0.62476794864E+03  0.67964543559E+03  0.26295551360E+03 0.  0.
         25    1    4    4    0    0 -0.29072325762E+01  0.43743346818E+02  0.24068174564E+03  0.27476743471E+03  0.12509000000E+03 0.  0.
         25    1    3    3    0    0  0.30030983859E+02 -0.39185027082E+02  0.94778932928E+03  0.95728232363E+03  0.12509000000E+03 0.  0.
         25    1    4    4    0    0 -0.27123751283E+02 -0.45583197359E+01  0.38408620299E+03  0.40487800088E+03  0.12509000000E+03 0.  0.
<mgrwt>
<rscale>  2 0.45452843E+03</rscale>
<asrwt>0</asrwt>
<pdfrwt beam="1">  1       21 0.23599149E+00 0.45452843E+03</pdfrwt>
<pdfrwt beam="2">  1       21 0.47331247E-02 0.45452843E+03</pdfrwt>
<totfact> 0.20683649E+04</totfact>
</mgrwt>
</event>
<event>
 7    0  0.4709932E-002  0.4527922E+03  0.7546771E-02  0.1026893E+00
         21   -1    0    0  502  501  0.00000000000E+00  0.00000000000E+00  0.53941814075E+02  0.53941814075E+02  0.00000000000E+00 0.  1.
         21   -1    0    0  501  502 -0.00000000000E+00 -0.00000000000E+00 -0.95019427890E+03  0.95019427890E+03  0.00000000000E+00 0.  1.
      99926    2    1    2    0    0  0.00000000000E+00  0.00000000000E+00 -0.89625246483E+03  0.10041360930E+04  0.45279223990E+03 0.  0.
      99925    2    3    3    0    0 -0.50914902956E+02 -0.20453765247E+02 -0.77935298808E+03  0.82434821903E+03  0.26296049576E+03 0.  0.
         25    1    3    3    0    0  0.50914902956E+02  0.20453765247E+02 -0.11689947675E+03  0.17978787395E+03  0.12509000000E+03 0.  0.
         25    1    4    4    0    0 -0.33946516220E+02 -0.42784904452E+02 -0.33127808908E+03  0.35829540106E+03  0.12509000000E+03 0.  0.
         25    1    4    4    0    0 -0.16968386736E+02  0.22331139204E+02 -0.44807489900E+03  0.46605281797E+03  0.12509000000E+03 0.  0.
<mgrwt>
<rscale>  2 0.45279224E+03</rscale>
<asrwt>0</asrwt>
<pdfrwt beam="1">  1       21 0.79326202E-02 0.45279224E+03</pdfrwt>
<pdfrwt beam="2">  1       21 0.13973444E+00 0.45279224E+03</pdfrwt>
<totfact> 0.39686136E+04</totfact>
</mgrwt>
</event>
<event>
 7    0  0.4709932E-002  0.4569042E+03  0.7546771E-02  0.1025683E+00
         21   -1    0    0  502  501  0.00000000000E+00  0.00000000000E+00  0.23770592195E+03  0.23770592195E+03  0.00000000000E+00 0. -1.
         21   -1    0    0  501  502 -0.00000000000E+00 -0.00000000000E+00 -0.21955849384E+03  0.21955849384E+03  0.00000000000E+00 0. -1.
      99926    2    1    2    0    0  0.00000000000E+00  0.28421709430E-13  0.18147428111E+02  0.45726441579E+03  0.45690416588E+03 0.  0.
      99925    2    3    3    0    0  0.32196843020E+02  0.11023585442E+03  0.17736981038E+02  0.28745199908E+03  0.26291723218E+03 0.  0.
         25    1    3    3    0    0 -0.32196843020E+02 -0.11023585442E+03  0.41044707313E+00  0.16981241671E+03  0.12509000000E+03 0.  0.
         25    1    4    4    0    0 -0.19041862235E+01  0.18436927547E+02 -0.71206554332E+01  0.12665606206E+03  0.12509000000E+03 0.  0.
         25    1    4    4    0    0  0.34101029244E+02  0.91798926877E+02  0.24857636471E+02  0.16079593702E+03  0.12509000000E+03 0.  0.
<mgrwt>
<rscale>  2 0.45690417E+03</rscale>
<asrwt>0</asrwt>
<pdfrwt beam="1">  1       21 0.34956753E-01 0.45690417E+03</pdfrwt>
<pdfrwt beam="2">  1       21 0.32288014E-01 0.45690417E+03</pdfrwt>
<totfact> 0.67351133E+04</totfact>
</mgrwt>
</event>
<event>
 7    0  0.4709932E-002  0.4720896E+03  0.7546771E-02  0.1021332E+00
         21   -1    0    0  502  501  0.00000000000E+00  0.00000000000E+00  0.20023669085E+03  0.20023669085E+03  0.00000000000E+00 0. -1.
         21   -1    0    0  501  502 -0.00000000000E+00 -0.00000000000E+00 -0.27825647434E+03  0.27825647434E+03  0.00000000000E+00 0. -1.
      99926    2    1    2    0    0  0.00000000000E+00  0.00000000000E+00 -0.78019783494E+02  0.47849316519E+03  0.47208963399E+03 0.  0.
      99925    2    3    3    0    0  0.79491371920E+02  0.11576908456E+02  0.53348152826E+02  0.28010479403E+03  0.26298244658E+03 0.  0.
         25    1    4    4    0    0  0.31710202667E+02  0.12734164991E+02 -0.13613143674E+02  0.13038604869E+03  0.12509000000E+03 0.  0.
         25    1    4    4    0    0  0.47781169254E+02 -0.11572565348E+01  0.66961296500E+02  0.14971874534E+03  0.12509000000E+03 0.  0.
         25    1    3    3    0    0 -0.79491371920E+02 -0.11576908456E+02 -0.13136793632E+03  0.19838837116E+03  0.12509000000E+03 0.  0.
<mgrwt>
<rscale>  2 0.47208963E+03</rscale>
<asrwt>0</asrwt>
<pdfrwt beam="1">  1       21 0.29446572E-01 0.47208963E+03</pdfrwt>
<pdfrwt beam="2">  1       21 0.40920070E-01 0.47208963E+03</pdfrwt>
<totfact> 0.58464673E+04</totfact>
</mgrwt>
</event>
<event>
 6    0  0.4709932E-002  0.4543452E+03  0.7546771E-02  0.1026434E+00
         21   -1    0    0  502  501  0.00000000000E+00  0.00000000000E+00  0.68470218508E+03  0.68470218508E+03  0.00000000000E+00 0.  1.
         21   -1    0    0  501  502 -0.00000000000E+00 -0.00000000000E+00 -0.75372023712E+02  0.75372023712E+02  0.00000000000E+00 0.  1.
      99926    2    1    2    0    0  0.00000000000E+00  0.71054273576E-14  0.60933016137E+03  0.76007420879E+03  0.45434519621E+03 0.  0.
         25    1    3    3    0    0  0.37482762073E+02  0.39284718980E+01  0.31658802982E+03  0.34248485962E+03  0.12509000000E+03 0.  0.
         25    1    3    3    0    0  0.11496192094E+02 -0.64347820484E+02  0.19536029650E+03  0.24101028605E+03  0.12509000000E+03 0.  0.
         25    1    3    3    0    0 -0.48978954168E+02  0.60419348586E+02  0.97381835047E+02  0.17657906312E+03  0.12509000000E+03 0.  0.
<mgrwt>
<rscale>  2 0.45434520E+03</rscale>
<asrwt>0</asrwt>
<pdfrwt beam="1">  1       21 0.10069149E+00 0.45434520E+03</pdfrwt>
<pdfrwt beam="2">  1       21 0.11084121E-01 0.45434520E+03</pdfrwt>
<totfact> 0.50012774E+04</totfact>
</mgrwt>
</event>
<event>
 7    0  0.4709932E-002  0.4576266E+03  0.7546771E-02  0.1025472E+00
         21   -1    0    0  502  501  0.00000000000E+00  0.00000000000E+00  0.16736985202E+04  0.16736985202E+04  0.00000000000E+00 0. -1.
         21   -1    0    0  501  502 -0.00000000000E+00 -0.00000000000E+00 -0.31281336638E+02  0.31281336638E+02  0.00000000000E+00 0. -1.
      99926    2    1    2    0    0  0.00000000000E+00  0.00000000000E+00  0.16424171836E+04  0.17049798569E+04  0.45762660256E+03 0.  0.
      99925    2    3    3    0    0  0.99335671214E+02 -0.56052301821E+02  0.96100306310E+03  0.10028529824E+04  0.26301669329E+03 0.  0.
         25    1    4    4    0    0  0.86982844252E+02 -0.49803272579E+02  0.56855116473E+03  0.59071508883E+03  0.12509000000E+03 0.  0.
         25    1    3    3    0    0 -0.99335671214E+02  0.56052301821E+02  0.68141412050E+03  0.70212687446E+03  0.12509000000E+03 0.  0.
         25    1    4    4    0    0  0.12352826962E+02 -0.62490292422E+01  0.39245189837E+03  0.41213789359E+03  0.12509000000E+03 0.  0.
<mgrwt>
<rscale>  2 0.45762660E+03</rscale>
<asrwt>0</asrwt>
<pdfrwt beam="1">  1       21 0.24613207E+00 0.45762660E+03</pdfrwt>
<pdfrwt beam="2">  1       21 0.46001977E-02 0.45762660E+03</pdfrwt>
<totfact> 0.18772558E+04</totfact>
</mgrwt>
</event>
<event>
 7    0  0.4709932E-002  0.4732880E+03  0.7546771E-02  0.1020996E+00
         21   -1    0    0  502  501  0.00000000000E+00  0.00000000000E+00  0.47357538454E+02  0.47357538454E+02  0.00000000000E+00 0.  1.
         21   -1    0    0  501  502 -0.00000000000E+00 -0.00000000000E+00 -0.11825020368E+04  0.11825020368E+04  0.00000000000E+00 0.  1.
      99926    2    1    2    0    0 -0.17763568394E-14 -0.14210854715E-13 -0.11351444984E+04  0.12298595753E+04  0.47328801244E+03 0.  0.
      99925    2    3    3    0    0  0.10902665966E+02  0.12763656065E+03 -0.64304299922E+03  0.70619808795E+03  0.26230036379E+03 0.  0.
         25    1    3    3    0    0 -0.10902665966E+02 -0.12763656065E+03 -0.49210149914E+03  0.52366148731E+03  0.12509000000E+03 0.  0.
         25    1    4    4    0    0 -0.80868528662E+01  0.99501947565E+02 -0.31122044303E+03  0.34995957912E+03  0.12509000000E+03 0.  0.
         25    1    4    4    0    0  0.18989518832E+02  0.28134613088E+02 -0.33182255619E+03  0.35623850883E+03  0.12509000000E+03 0.  0.
<mgrwt>
<rscale>  2 0.47328801E+03</rscale>
<asrwt>0</asrwt>
<pdfrwt beam="1">  1       21 0.69643443E-02 0.47328801E+03</pdfrwt>
<pdfrwt beam="2">  1       21 0.17389735E+00 0.47328801E+03</pdfrwt>
<totfact> 0.27145510E+04</totfact>
</mgrwt>
</event>
<event>
 7    0  0.4709932E-002  0.4637066E+03  0.7546771E-02  0.1023712E+00
         21   -1    0    0  502  501  0.00000000000E+00  0.00000000000E+00  0.61066591223E+02  0.61066591223E+02  0.00000000000E+00 0.  1.
         21   -1    0    0  501  502 -0.00000000000E+00 -0.00000000000E+00 -0.88028420914E+03  0.88028420914E+03  0.00000000000E+00 0.  1.
      99926    2    1    2    0    0  0.00000000000E+00  0.00000000000E+00 -0.81921761792E+03  0.94135080037E+03  0.46370661397E+03 0.  0.
      99925    2    3    3    0    0  0.34595552166E+02 -0.75917605688E+02 -0.69004070484E+03  0.74312235121E+03  0.26289602402E+03 0.  0.
         25    1    4    4    0    0  0.47881420914E+02 -0.46121659514E+02 -0.29070351346E+03  0.32338193948E+03  0.12509000000E+03 0.  0.
         25    1    3    3    0    0 -0.34595552166E+02  0.75917605688E+02 -0.12917691308E+03  0.19822844916E+03  0.12509000000E+03 0.  0.
         25    1    4    4    0    0 -0.13285868748E+02 -0.29795946174E+02 -0.39933719138E+03  0.41974041172E+03  0.12509000000E+03 0.  0.
<mgrwt>
<rscale>  2 0.46370661E+03</rscale>
<asrwt>0</asrwt>
<pdfrwt beam="1">  1       21 0.89803819E-02 0.46370661E+03</pdfrwt>
<pdfrwt beam="2">  1       21 0.12945355E+00 0.46370661E+03</pdfrwt>
<totfact> 0.38783666E+04</totfact>
</mgrwt>
</event>
<event>
 7    0  0.4709932E-002  0.4539427E+03  0.7546771E-02  0.1026553E+00
         21   -1    0    0  502  501  0.00000000000E+00  0.00000000000E+00  0.79144193052E+02  0.79144193052E+02  0.00000000000E+00 0.  1.
         21   -1    0    0  501  502 -0.00000000000E+00 -0.00000000000E+00 -0.65091299654E+03  0.65091299654E+03  0.00000000000E+00 0.  1.
      99926    2    1    2    0    0 -0.44408920985E-15  0.00000000000E+00 -0.57176880348E+03  0.73005718959E+03  0.45394265655E+03 0.  0.
      99925    2    3    3    0    0  0.36403193454E+01  0.10873186219E+03 -0.40335614255E+03  0.49373917876E+03  0.26314697248E+03 0.  0.
         25    1    4    4    0    0  0.40410822093E+02  0.64627489051E+02 -0.22428531809E+03  0.26788273348E+03  0.12509000000E+03 0.  0.
         25    1    3    3    0    0 -0.36403193454E+01 -0.10873186219E+03 -0.16841266094E+03  0.23631801083E+03  0.12509000000E+03 0.  0.
         25    1    4    4    0    0 -0.36770502747E+02  0.44104373140E+02 -0.17907082445E+03  0.22585644528E+03  0.12509000000E+03 0.  0.
<mgrwt>
<rscale>  2 0.45394266E+03</rscale>
<asrwt>0</asrwt>
<pdfrwt beam="1">  1       21 0.11638852E-01 0.45394266E+03</pdfrwt>
<pdfrwt beam="2">  1       21 0.95722500E-01 0.45394266E+03</pdfrwt>
<totfact> 0.51730044E+04</totfact>
</mgrwt>
</event>
<event>
 7    0  0.4709932E-002  0.4549722E+03  0.7546771E-02  0.1026250E+00
         21   -1    0    0  502  501  0.00000000000E+00  0.00000000000E+00  0.47517643070E+03  0.47517643070E+03  0.00000000000E+00 0. -1.
         21   -1    0    0  501  502 -0.00000000000E+00 -0.00000000000E+00 -0.10890674562E+03  0.10890674562E+03  0.00000000000E+00 0. -1.
      99926    2    1    2    0    0  0.00000000000E+00  0.00000000000E+00  0.36626968509E+03  0.58408317632E+03  0.45497216909E+03 0.  0.
      99925    2    3    3    0    0  0.63894603013E+02  0.43155823247E+02  0.12420700360E+03  0.30091044592E+03  0.26301097191E+03 0.  0.
         25    1    3    3    0    0 -0.63894603013E+02 -0.43155823247E+02  0.24206268149E+03  0.28317273040E+03  0.12509000000E+03 0.  0.
         25    1    4    4    0    0  0.24671849287E+02  0.26896940300E+02  0.18271976513E+02  0.13158084500E+03  0.12509000000E+03 0.  0.
         25    1    4    4    0    0  0.39222753726E+02  0.16258882947E+02  0.10593502708E+03  0.16932960092E+03  0.12509000000E+03 0.  0.
<mgrwt>
<rscale>  2 0.45497217E+03</rscale>
<asrwt>0</asrwt>
<pdfrwt beam="1">  1       21 0.69878886E-01 0.45497217E+03</pdfrwt>
<pdfrwt beam="2">  1       21 0.16015698E-01 0.45497217E+03</pdfrwt>
<totfact> 0.59681971E+04</totfact>
</mgrwt>
</event>
<event>
 7    0  0.4709932E-002  0.4469132E+03  0.7546771E-02  0.1028647E+00
         21   -1    0    0  502  501  0.00000000000E+00  0.00000000000E+00  0.31082100089E+03  0.31082100089E+03  0.00000000000E+00 0.  1.
         21   -1    0    0  501  502 -0.00000000000E+00 -0.00000000000E+00 -0.16064823116E+03  0.16064823116E+03  0.00000000000E+00 0.  1.
      99926    2    1    2    0    0  0.00000000000E+00 -0.17763568394E-14  0.15017276972E+03  0.47146923205E+03  0.44691316383E+03 0.  0.
      99925    2    3    3    0    0  0.18851977350E+02  0.74072807224E+01  0.20436500605E+03  0.33364843741E+03  0.26295619260E+03 0.  0.
         25    1    4    4    0    0  0.36445288349E+01 -0.20619038546E+02  0.61025078124E+02  0.14074798613E+03  0.12509000000E+03 0.  0.
         25    1    3    3    0    0 -0.18851977350E+02 -0.74072807224E+01 -0.54192236327E+02  0.13782079464E+03  0.12509000000E+03 0.  0.
         25    1    4    4    0    0  0.15207448515E+02  0.28026319268E+02  0.14333992793E+03  0.19290045127E+03  0.12509000000E+03 0.  0.
<mgrwt>
<rscale>  2 0.44691316E+03</rscale>
<asrwt>0</asrwt>
<pdfrwt beam="1">  1       21 0.45708971E-01 0.44691316E+03</pdfrwt>
<pdfrwt beam="2">  1       21 0.23624740E-01 0.44691316E+03</pdfrwt>
<totfact> 0.71826782E+04</totfact>
</mgrwt>
</event>
<event>
 7    0  0.4709932E-002  0.4366309E+03  0.7546771E-02  0.1031786E+00
         21   -1    0    0  502  501  0.00000000000E+00  0.00000000000E+00  0.30206751075E+02  0.30206751075E+02  0.00000000000E+00 0.  1.
         21   -1    0    0  501  502 -0.00000000000E+00 -0.00000000000E+00 -0.15778471291E+04  0.15778471291E+04  0.00000000000E+00 0.  1.
      99926    2    1    2    0    0  0.00000000000E+00  0.00000000000E+00 -0.15476403780E+04  0.16080538802E+04  0.43663089888E+03 0.  0.
      99925    2    3    3    0    0 -0.20077196698E+02 -0.67987310791E+02 -0.12235797603E+04  0.12535286197E+04  0.26298517511E+03 0.  0.
         25    1    4    4    0    0  0.27374546332E+02 -0.44493212922E+02 -0.55813303745E+03  0.57435964985E+03  0.12509000000E+03 0.  0.
         25    1    3    3    0    0  0.20077196698E+02  0.67987310791E+02 -0.32406061770E+03  0.35452526046E+03  0.12509000000E+03 0.  0.
         25    1    4    4    0    0 -0.47451743030E+02 -0.23494097869E+02 -0.66544672290E+03  0.67916896989E+03  0.12509000000E+03 0.  0.
<mgrwt>
<rscale>  2 0.43663090E+03</rscale>
<asrwt>0</asrwt>
<pdfrwt beam="1">  1       21 0.44421678E-02 0.43663090E+03</pdfrwt>
<pdfrwt beam="2">  1       21 0.23203642E+00 0.43663090E+03</pdfrwt>
<totfact> 0.24570678E+04</totfact>
</mgrwt>
</event>
<event>
 7    0  0.4709932E-002  0.4557797E+03  0.7546771E-02  0.1026012E+00
         21   -1    0    0  502  501  0.00000000000E+00  0.00000000000E+00  0.12731103153E+04  0.12731103153E+04  0.00000000000E+00 0.  1.
         21   -1    0    0  501  502 -0.00000000000E+00 -0.00000000000E+00 -0.40792835315E+02  0.40792835315E+02  0.00000000000E+00 0.  1.
      99926    2    1    2    0    0  0.00000000000E+00  0.71054273576E-14  0.12323174800E+04  0.13139031507E+04  0.45577968113E+03 0.  0.
      99925    2    3    3    0    0  0.10038854435E+03  0.50186341211E+02  0.83073156169E+03  0.87856961579E+03  0.26300782024E+03 0.  0.
         25    1    3    3    0    0 -0.10038854435E+03 -0.50186341211E+02  0.40158591833E+03  0.43533353487E+03  0.12509000000E+03 0.  0.
         25    1    4    4    0    0  0.46221818436E+02  0.59430187099E+02  0.36204241065E+03  0.39037241045E+03  0.12509000000E+03 0.  0.
         25    1    4    4    0    0  0.54166725912E+02 -0.92438458879E+01  0.46868915105E+03  0.48819720533E+03  0.12509000000E+03 0.  0.
<mgrwt>
<rscale>  2 0.45577968E+03</rscale>
<asrwt>0</asrwt>
<pdfrwt beam="1">  1       21 0.18722208E+00 0.45577968E+03</pdfrwt>
<pdfrwt beam="2">  1       21 0.59989472E-02 0.45577968E+03</pdfrwt>
<totfact> 0.28540144E+04</totfact>
</mgrwt>
</event>
<event>
 7    0  0.4709932E-002  0.4544972E+03  0.7546771E-02  0.1026389E+00
         21   -1    0    0  502  501  0.00000000000E+00  0.00000000000E+00  0.18963333755E+03  0.18963333755E+03  0.00000000000E+00 0.  1.
         21   -1    0    0  501  502 -0.00000000000E+00 -0.00000000000E+00 -0.27232512287E+03  0.27232512287E+03  0.00000000000E+00 0.  1.
      99926    2    1    2    0    0  0.17763568394E-14 -0.14210854715E-13 -0.82691785327E+02  0.46195846042E+03  0.45449718128E+03 0.  0.
      99925    2    3    3    0    0  0.13356199506E+02 -0.70083029050E+02 -0.14075903071E+03  0.30668665965E+03  0.26297068935E+03 0.  0.
         25    1    4    4    0    0  0.44776091688E+01  0.23436874921E+01 -0.44818822057E+02  0.13297284221E+03  0.12509000000E+03 0.  0.
         25    1    3    3    0    0 -0.13356199506E+02  0.70083029050E+02  0.58067245380E+02  0.15527180076E+03  0.12509000000E+03 0.  0.
         25    1    4    4    0    0  0.88785903376E+01 -0.72426716542E+02 -0.95940208650E+02  0.17371381744E+03  0.12509000000E+03 0.  0.
<mgrwt>
<rscale>  2 0.45449718E+03</rscale>
<asrwt>0</asrwt>
<pdfrwt beam="1">  1       21 0.27887256E-01 0.45449718E+03</pdfrwt>
<pdfrwt beam="2">  1       21 0.40047812E-01 0.45449718E+03</pdfrwt>
<totfact> 0.68309134E+04</totfact>
</mgrwt>
</event>
<event>
 7    0  0.4709932E-002  0.4524934E+03  0.7546771E-02  0.1026981E+00
         21   -1    0    0  502  501  0.00000000000E+00  0.00000000000E+00  0.22236862628E+03  0.22236862628E+03  0.00000000000E+00 0. -1.
         21   -1    0    0  501  502 -0.00000000000E+00 -0.00000000000E+00 -0.23019244642E+03  0.23019244642E+03  0.00000000000E+00 0. -1.
      99926    2    1    2    0    0  0.71054273576E-14 -0.71054273576E-14 -0.78238201403E+01  0.45256107270E+03  0.45249343903E+03 0.  0.
      99925    2    3    3    0    0 -0.37767444943E+02  0.59975218020E+02 -0.90205712576E+02  0.28685744880E+03  0.26291960497E+03 0.  0.
         25    1    3    3    0    0  0.37767444943E+02 -0.59975218020E+02  0.82381892435E+02  0.16570362391E+03  0.12509000000E+03 0.  0.
         25    1    4    4    0    0  0.16856299860E+02  0.46502495501E+02 -0.54424829857E+02  0.14510750200E+03  0.12509000000E+03 0.  0.
         25    1    4    4    0    0 -0.54623744803E+02  0.13472722519E+02 -0.35780882719E+02  0.14174994680E+03  0.12509000000E+03 0.  0.
<mgrwt>
<rscale>  2 0.45249344E+03</rscale>
<asrwt>0</asrwt>
<pdfrwt beam="1">  1       21 0.32701269E-01 0.45249344E+03</pdfrwt>
<pdfrwt beam="2">  1       21 0.33851830E-01 0.45249344E+03</pdfrwt>
<totfact> 0.70116695E+04</totfact>
</mgrwt>
</event>
<event>
 7    0  0.4709932E-002  0.4510687E+03  0.7546771E-02  0.1027404E+00
         21   -1    0    0  502  501  0.00000000000E+00  0.00000000000E+00  0.46457161896E+02  0.46457161896E+02  0.00000000000E+00 0. -1.
         21   -1    0    0  501  502 -0.00000000000E+00 -0.00000000000E+00 -0.10948955040E+04  0.10948955040E+04  0.00000000000E+00 0. -1.
      99926    2    1    2    0    0  0.00000000000E+00  0.00000000000E+00 -0.10484383421E+04  0.11413526659E+04  0.45106867633E+03 0.  0.
      99925    2    3    3    0    0 -0.72308708764E+02  0.46323817257E+02 -0.49218102402E+03  0.56477295985E+03  0.26334747077E+03 0.  0.
         25    1    4    4    0    0 -0.26688682676E+02  0.47907239401E+02 -0.31324905989E+03  0.34173069952E+03  0.12509000000E+03 0.  0.
         25    1    4    4    0    0 -0.45620026087E+02 -0.15834221444E+01 -0.17893196413E+03  0.22304226033E+03  0.12509000000E+03 0.  0.
         25    1    3    3    0    0  0.72308708764E+02 -0.46323817257E+02 -0.55625731812E+03  0.57657970609E+03  0.12509000000E+03 0.  0.
<mgrwt>
<rscale>  2 0.45106868E+03</rscale>
<asrwt>0</asrwt>
<pdfrwt beam="1">  1       21 0.68319356E-02 0.45106868E+03</pdfrwt>
<pdfrwt beam="2">  1       21 0.16101404E+00 0.45106868E+03</pdfrwt>
<totfact> 0.35136780E+04</totfact>
</mgrwt>
</event>
<event>
 7    0  0.4709932E-002  0.4547929E+03  0.7546771E-02  0.1026302E+00
         21   -1    0    0  502  501  0.00000000000E+00  0.00000000000E+00  0.43456486470E+02  0.43456486470E+02  0.00000000000E+00 0.  1.
         21   -1    0    0  501  502 -0.00000000000E+00 -0.00000000000E+00 -0.11899063400E+04  0.11899063400E+04  0.00000000000E+00 0.  1.
      99926    2    1    2    0    0  0.00000000000E+00  0.00000000000E+00 -0.11464498536E+04  0.12333628265E+04  0.45479291449E+03 0.  0.
      99925    2    3    3    0    0  0.44578793028E+02  0.40217979626E+02 -0.98106927531E+03  0.10174855502E+04  0.26301172441E+03 0.  0.
         25    1    3    3    0    0 -0.44578793028E+02 -0.40217979626E+02 -0.16538057825E+03  0.21587727633E+03  0.12509000000E+03 0.  0.
         25    1    4    4    0    0  0.26345897289E+02 -0.46784079441E+01 -0.60025766299E+03  0.61373672196E+03  0.12509000000E+03 0.  0.
         25    1    4    4    0    0  0.18232895738E+02  0.44896387571E+02 -0.38081161231E+03  0.40374882821E+03  0.12509000000E+03 0.  0.
<mgrwt>
<rscale>  2 0.45479291E+03</rscale>
<asrwt>0</asrwt>
<pdfrwt beam="1">  1       21 0.63906602E-02 0.45479291E+03</pdfrwt>
<pdfrwt beam="2">  1       21 0.17498621E+00 0.45479291E+03</pdfrwt>
<totfact> 0.31163260E+04</totfact>
</mgrwt>
</event>
<event>
 7    0  0.4709932E-002  0.4603521E+03  0.7546771E-02  0.1024679E+00
         21   -1    0    0  502  501  0.00000000000E+00  0.00000000000E+00  0.41133206745E+03  0.41133206745E+03  0.00000000000E+00 0.  1.
         21   -1    0    0  501  502 -0.00000000000E+00 -0.00000000000E+00 -0.12880349821E+03  0.12880349821E+03  0.00000000000E+00 0.  1.
      99926    2    1    2    0    0  0.00000000000E+00  0.17763568394E-14  0.28252856925E+03  0.54013556566E+03  0.46035207923E+03 0.  0.
      99925    2    3    3    0    0  0.47566489969E+02 -0.11461870901E+02  0.50659636572E+02  0.27217165859E+03  0.26290125049E+03 0.  0.
         25    1    4    4    0    0  0.11844607973E+02  0.44323871625E+01 -0.13134703529E+02  0.12641190344E+03  0.12509000000E+03 0.  0.
         25    1    3    3    0    0 -0.47566489969E+02  0.11461870901E+02  0.23186893268E+03  0.26796390707E+03  0.12509000000E+03 0.  0.
         25    1    4    4    0    0  0.35721881996E+02 -0.15894258064E+02  0.63794340100E+02  0.14575975515E+03  0.12509000000E+03 0.  0.
<mgrwt>
<rscale>  2 0.46035208E+03</rscale>
<asrwt>0</asrwt>
<pdfrwt beam="1">  1       21 0.60490010E-01 0.46035208E+03</pdfrwt>
<pdfrwt beam="2">  1       21 0.18941691E-01 0.46035208E+03</pdfrwt>
<totfact> 0.59942496E+04</totfact>
</mgrwt>
</event>
<event>
 7    0  0.4709932E-002  0.4575291E+03  0.7546771E-02  0.1025500E+00
         21   -1    0    0  502  501  0.00000000000E+00  0.00000000000E+00  0.23362176400E+03  0.23362176400E+03  0.00000000000E+00 0. -1.
         21   -1    0    0  501  502 -0.00000000000E+00 -0.00000000000E+00 -0.22400829489E+03  0.22400829489E+03  0.00000000000E+00 0. -1.
      99926    2    1    2    0    0 -0.17763568394E-14  0.00000000000E+00  0.96134691094E+01  0.45763005889E+03  0.45752907231E+03 0.  0.
      99925    2    3    3    0    0 -0.25676883458E+01  0.21758151115E+02 -0.10752397609E+03  0.28486229763E+03  0.26287851379E+03 0.  0.
         25    1    3    3    0    0  0.25676883458E+01 -0.21758151115E+02  0.11713744520E+03  0.17276776126E+03  0.12509000000E+03 0.  0.
         25    1    4    4    0    0  0.36053387222E+02 -0.41178055595E+01 -0.49313697100E+02  0.13927006812E+03  0.12509000000E+03 0.  0.
         25    1    4    4    0    0 -0.38621075568E+02  0.25875956674E+02 -0.58210278993E+02  0.14559222951E+03  0.12509000000E+03 0.  0.
<mgrwt>
<rscale>  2 0.45752907E+03</rscale>
<asrwt>0</asrwt>
<pdfrwt beam="1">  1       21 0.34356142E-01 0.45752907E+03</pdfrwt>
<pdfrwt beam="2">  1       21 0.32942396E-01 0.45752907E+03</pdfrwt>
<totfact> 0.66991465E+04</totfact>
</mgrwt>
</event>
<event>
 7    0  0.4709932E-002  0.4266477E+03  0.7546771E-02  0.1034924E+00
         21   -1    0    0  502  501  0.00000000000E+00  0.00000000000E+00  0.46391715938E+02  0.46391715938E+02  0.00000000000E+00 0.  1.
         21   -1    0    0  501  502 -0.00000000000E+00 -0.00000000000E+00 -0.98093063412E+03  0.98093063412E+03  0.00000000000E+00 0.  1.
      99926    2    1    2    0    0  0.00000000000E+00  0.00000000000E+00 -0.93453891818E+03  0.10273223501E+04  0.42664765478E+03 0.  0.
      99925    2    3    3    0    0 -0.54867499262E+02  0.41436342874E+02 -0.48925796979E+03  0.55972204629E+03  0.26303610990E+03 0.  0.
         25    1    4    4    0    0  0.22360478879E+01  0.15269424609E+02 -0.17464077674E+03  0.21537192073E+03  0.12509000000E+03 0.  0.
         25    1    4    4    0    0 -0.57103547150E+02  0.26166918266E+02 -0.31461719306E+03  0.34435012556E+03  0.12509000000E+03 0.  0.
         25    1    3    3    0    0  0.54867499262E+02 -0.41436342874E+02 -0.44528094838E+03  0.46760030376E+03  0.12509000000E+03 0.  0.
<mgrwt>
<rscale>  2 0.42664765E+03</rscale>
<asrwt>0</asrwt>
<pdfrwt beam="1">  1       21 0.68223118E-02 0.42664765E+03</pdfrwt>
<pdfrwt beam="2">  1       21 0.14425449E+00 0.42664765E+03</pdfrwt>
<totfact> 0.47871162E+04</totfact>
</mgrwt>
</event>
<event>
 7    0  0.4709932E-002  0.4348983E+03  0.7546771E-02  0.1032324E+00
         21   -1    0    0  502  501  0.00000000000E+00  0.00000000000E+00  0.11905471323E+03  0.11905471323E+03  0.00000000000E+00 0. -1.
         21   -1    0    0  501  502 -0.00000000000E+00 -0.00000000000E+00 -0.39716307704E+03  0.39716307704E+03  0.00000000000E+00 0. -1.
      99926    2    1    2    0    0  0.00000000000E+00 -0.14210854715E-13 -0.27810836381E+03  0.51621779026E+03  0.43489831566E+03 0.  0.
      99925    2    3    3    0    0  0.38898173010E+02  0.84466881222E+02 -0.18232143613E+03  0.33326871128E+03  0.26301940225E+03 0.  0.
         25    1    4    4    0    0  0.38011278053E+02  0.19789930606E+02 -0.12255152278E+03  0.18028555807E+03  0.12509000000E+03 0.  0.
         25    1    4    4    0    0  0.88689495689E+00  0.64676950617E+02 -0.59769913346E+02  0.15298315321E+03  0.12509000000E+03 0.  0.
         25    1    3    3    0    0 -0.38898173010E+02 -0.84466881222E+02 -0.95786927682E+02  0.18294907899E+03  0.12509000000E+03 0.  0.
<mgrwt>
<rscale>  2 0.43489832E+03</rscale>
<asrwt>0</asrwt>
<pdfrwt beam="1">  1       21 0.17508046E-01 0.43489832E+03</pdfrwt>
<pdfrwt beam="2">  1       21 0.58406335E-01 0.43489832E+03</pdfrwt>
<totfact> 0.75470238E+04</totfact>
</mgrwt>
</event>
<event>
 7    0  0.4709932E-002  0.4502587E+03  0.7546771E-02  0.1027645E+00
         21   -1    0    0  502  501  0.00000000000E+00  0.00000000000E+00  0.35677712542E+02  0.35677712542E+02  0.00000000000E+00 0.  1.
         21   -1    0    0  501  502 -0.00000000000E+00 -0.00000000000E+00 -0.14205848227E+04  0.14205848227E+04  0.00000000000E+00 0.  1.
      99926    2    1    2    0    0  0.17763568394E-14  0.00000000000E+00 -0.13849071101E+04  0.14562625352E+04  0.45025866763E+03 0.  0.
      99925    2    3    3    0    0 -0.15423835617E+02 -0.36452640428E+02 -0.12025074345E+04  0.12315764442E+04  0.26303938550E+03 0.  0.
         25    1    4    4    0    0 -0.36563638596E+02 -0.37123070948E+02 -0.51923570684E+03  0.53662673193E+03  0.12509000000E+03 0.  0.
         25    1    4    4    0    0  0.21139802979E+02  0.67043052037E+00 -0.68327172765E+03  0.69494971232E+03  0.12509000000E+03 0.  0.
         25    1    3    3    0    0  0.15423835617E+02  0.36452640428E+02 -0.18239967564E+03  0.22468609097E+03  0.12509000000E+03 0.  0.
<mgrwt>
<rscale>  2 0.45025867E+03</rscale>
<asrwt>0</asrwt>
<pdfrwt beam="1">  1       21 0.52467239E-02 0.45025867E+03</pdfrwt>
<pdfrwt beam="2">  1       21 0.20890947E+00 0.45025867E+03</pdfrwt>
<totfact> 0.25808146E+04</totfact>
</mgrwt>
</event>
<event>
 7    0  0.4709932E-002  0.4548432E+03  0.7546771E-02  0.1026288E+00
         21   -1    0    0  502  501  0.00000000000E+00  0.00000000000E+00  0.23007985916E+02  0.23007985916E+02  0.00000000000E+00 0. -1.
         21   -1    0    0  501  502 -0.00000000000E+00 -0.00000000000E+00 -0.22479408196E+04  0.22479408196E+04  0.00000000000E+00 0. -1.
      99926    2    1    2    0    0 -0.22204460493E-14 -0.14210854715E-13 -0.22249328337E+04  0.22709488056E+04  0.45484322890E+03 0.  0.
      99925    2    3    3    0    0  0.36355650880E+01  0.11274420928E+03 -0.13576013151E+04  0.13874127591E+04  0.26288468829E+03 0.  0.
         25    1    3    3    0    0 -0.36355650880E+01 -0.11274420928E+03 -0.86733151864E+03  0.88353604646E+03  0.12509000000E+03 0.  0.
         25    1    4    4    0    0 -0.24343990931E+02  0.28931991964E+02 -0.71217434980E+03  0.72406457078E+03  0.12509000000E+03 0.  0.
         25    1    4    4    0    0  0.27979556019E+02  0.83812217315E+02 -0.64542696528E+03  0.66334818831E+03  0.12509000000E+03 0.  0.
<mgrwt>
<rscale>  2 0.45484323E+03</rscale>
<asrwt>0</asrwt>
<pdfrwt beam="1">  1       21 0.33835279E-02 0.45484323E+03</pdfrwt>
<pdfrwt beam="2">  1       21 0.33057947E+00 0.45484323E+03</pdfrwt>
<totfact> 0.97808307E+03</totfact>
</mgrwt>
</event>
<event>
 7    0  0.4709932E-002  0.4536561E+03  0.7546771E-02  0.1026637E+00
         21   -1    0    0  502  501  0.00000000000E+00  0.00000000000E+00  0.35064606347E+02  0.35064606347E+02  0.00000000000E+00 0. -1.
         21   -1    0    0  501  502 -0.00000000000E+00 -0.00000000000E+00 -0.14673191954E+04  0.14673191954E+04  0.00000000000E+00 0. -1.
      99926    2    1    2    0    0 -0.14210854715E-13  0.00000000000E+00 -0.14322545891E+04  0.15023838018E+04  0.45365612515E+03 0.  0.
      99925    2    3    3    0    0 -0.67731606558E+02 -0.81670754041E+02 -0.76841952569E+03  0.81858399037E+03  0.26144502143E+03 0.  0.
         25    1    4    4    0    0 -0.30541453890E+02 -0.73357377144E+02 -0.34637913201E+03  0.37674938139E+03  0.12509000000E+03 0.  0.
         25    1    4    4    0    0 -0.37190152668E+02 -0.83133768971E+01 -0.42204039368E+03  0.44183460898E+03  0.12509000000E+03 0.  0.
         25    1    3    3    0    0  0.67731606558E+02  0.81670754041E+02 -0.66383506338E+03  0.68379981140E+03  0.12509000000E+03 0.  0.
<mgrwt>
<rscale>  2 0.45365613E+03</rscale>
<asrwt>0</asrwt>
<pdfrwt beam="1">  1       21 0.51565599E-02 0.45365613E+03</pdfrwt>
<pdfrwt beam="2">  1       21 0.21578223E+00 0.45365613E+03</pdfrwt>
<totfact> 0.23969987E+04</totfact>
</mgrwt>
</event>
<event>
 7    0  0.4709932E-002  0.4439873E+03  0.7546771E-02  0.1029530E+00
         21   -1    0    0  502  501  0.00000000000E+00  0.00000000000E+00  0.53946599788E+02  0.53946599788E+02  0.00000000000E+00 0.  1.
         21   -1    0    0  501  502 -0.00000000000E+00 -0.00000000000E+00 -0.91351796981E+03  0.91351796981E+03  0.00000000000E+00 0.  1.
      99926    2    1    2    0    0  0.00000000000E+00  0.00000000000E+00 -0.85957137002E+03  0.96746456959E+03  0.44398733458E+03 0.  0.
      99925    2    3    3    0    0 -0.80238072679E+01 -0.68322551748E+02 -0.71216680105E+03  0.76226230934E+03  0.26292569894E+03 0.  0.
         25    1    4    4    0    0  0.33988258306E+01 -0.85273124124E+01 -0.42585738918E+03  0.44394401797E+03  0.12509000000E+03 0.  0.
         25    1    3    3    0    0  0.80238072679E+01  0.68322551748E+02 -0.14740456897E+03  0.20520226025E+03  0.12509000000E+03 0.  0.
         25    1    4    4    0    0 -0.11422633099E+02 -0.59795239336E+02 -0.28630941188E+03  0.31831829137E+03  0.12509000000E+03 0.  0.
<mgrwt>
<rscale>  2 0.44398733E+03</rscale>
<asrwt>0</asrwt>
<pdfrwt beam="1">  1       21 0.79333237E-02 0.44398733E+03</pdfrwt>
<pdfrwt beam="2">  1       21 0.13434087E+00 0.44398733E+03</pdfrwt>
<totfact> 0.44119478E+04</totfact>
</mgrwt>
</event>
<event>
 7    0  0.4709932E-002  0.4547648E+03  0.7546771E-02  0.1026311E+00
         21   -1    0    0  502  501  0.00000000000E+00  0.00000000000E+00  0.25407827937E+04  0.25407827937E+04  0.00000000000E+00 0. -1.
         21   -1    0    0  501  502 -0.00000000000E+00 -0.00000000000E+00 -0.20349145564E+02  0.20349145564E+02  0.00000000000E+00 0. -1.
      99926    2    1    2    0    0  0.35527136788E-14  0.00000000000E+00  0.25204336482E+04  0.25611319393E+04  0.45476481357E+03 0.  0.
      99925    2    3    3    0    0  0.14647955784E+02 -0.78765677278E+02  0.20347948552E+04  0.20532824145E+04  0.26298284414E+03 0.  0.
         25    1    4    4    0    0 -0.26593269422E+02 -0.41396202092E+02  0.84303597250E+03  0.85368495743E+03  0.12509000000E+03 0.  0.
         25    1    4    4    0    0  0.41241225205E+02 -0.37369475186E+02  0.11917588827E+04  0.11995974571E+04  0.12509000000E+03 0.  0.
         25    1    3    3    0    0 -0.14647955784E+02  0.78765677278E+02  0.48563879294E+03  0.50784952479E+03  0.12509000000E+03 0.  0.
<mgrwt>
<rscale>  2 0.45476481E+03</rscale>
<asrwt>0</asrwt>
<pdfrwt beam="1">  1       21 0.37364431E+00 0.45476481E+03</pdfrwt>
<pdfrwt beam="2">  1       21 0.29925232E-02 0.45476481E+03</pdfrwt>
<totfact> 0.65383687E+03</totfact>
</mgrwt>
</event>
<event>
 7    0  0.4709932E-002  0.4232248E+03  0.7546771E-02  0.1036022E+00
         21   -1    0    0  502  501  0.00000000000E+00  0.00000000000E+00  0.28282831173E+03  0.28282831173E+03  0.00000000000E+00 0.  1.
         21   -1    0    0  501  502 -0.00000000000E+00 -0.00000000000E+00 -0.15832858149E+03  0.15832858149E+03  0.00000000000E+00 0.  1.
      99926    2    1    2    0    0 -0.88817841970E-15  0.71054273576E-14  0.12449973024E+03  0.44115689322E+03  0.42322478850E+03 0.  0.
      99925    2    3    3    0    0 -0.54601237969E+01 -0.33697012409E+02  0.56635051289E+01  0.26527381246E+03  0.26300725976E+03 0.  0.
         25    1    4    4    0    0 -0.77178350219E+01  0.20734899327E+02 -0.12441810460E+02  0.12763936609E+03  0.12509000000E+03 0.  0.
         25    1    4    4    0    0  0.22577112250E+01 -0.54431911736E+02  0.18105315589E+02  0.13763444637E+03  0.12509000000E+03 0.  0.
         25    1    3    3    0    0  0.54601237969E+01  0.33697012409E+02  0.11883622512E+03  0.17588308076E+03  0.12509000000E+03 0.  0.
<mgrwt>
<rscale>  2 0.42322479E+03</rscale>
<asrwt>0</asrwt>
<pdfrwt beam="1">  1       21 0.41592399E-01 0.42322479E+03</pdfrwt>
<pdfrwt beam="2">  1       21 0.23283615E-01 0.42322479E+03</pdfrwt>
<totfact> 0.90358950E+04</totfact>
</mgrwt>
</event>
<event>
 7    0  0.4709932E-002  0.4546731E+03  0.7546771E-02  0.1026338E+00
         21   -1    0    0  502  501  0.00000000000E+00  0.00000000000E+00  0.14399035342E+03  0.14399035342E+03  0.00000000000E+00 0. -1.
         21   -1    0    0  501  502 -0.00000000000E+00 -0.00000000000E+00 -0.35892620249E+03  0.35892620249E+03  0.00000000000E+00 0. -1.
      99926    2    1    2    0    0 -0.17763568394E-14  0.00000000000E+00 -0.21493584907E+03  0.50291655592E+03  0.45467311665E+03 0.  0.
      99925    2    3    3    0    0 -0.31536436733E+01  0.26723088916E+02 -0.25652128896E+03  0.36837687456E+03  0.26301003987E+03 0.  0.
         25    1    3    3    0    0  0.31536436733E+01 -0.26723088916E+02  0.41585439888E+02  0.13453968136E+03  0.12509000000E+03 0.  0.
         25    1    4    4    0    0 -0.32964218323E+02 -0.12168015629E+02 -0.13133393643E+03  0.18474526043E+03  0.12509000000E+03 0.  0.
         25    1    4    4    0    0  0.29810574650E+02  0.38891104546E+02 -0.12518735253E+03  0.18363161413E+03  0.12509000000E+03 0.  0.
<mgrwt>
<rscale>  2 0.45467312E+03</rscale>
<asrwt>0</asrwt>
<pdfrwt beam="1">  1       21 0.21175052E-01 0.45467312E+03</pdfrwt>
<pdfrwt beam="2">  1       21 0.52783264E-01 0.45467312E+03</pdfrwt>
<totfact> 0.65235348E+04</totfact>
</mgrwt>
</event>
<event>
 7    0  0.4709932E-002  0.5008287E+03  0.7546771E-02  0.1013563E+00
         21   -1    0    0  502  501  0.00000000000E+00  0.00000000000E+00  0.34547761744E+03  0.34547761744E+03  0.00000000000E+00 0. -1.
         21   -1    0    0  501  502 -0.00000000000E+00 -0.00000000000E+00 -0.18150917721E+03  0.18150917721E+03  0.00000000000E+00 0. -1.
      99926    2    1    2    0    0  0.00000000000E+00 -0.71054273576E-14  0.16396844023E+03  0.52698679465E+03  0.50082874553E+03 0.  0.
      99925    2    3    3    0    0 -0.57126865928E+02 -0.33120403151E+02 -0.44886532696E+02  0.27474019362E+03  0.26288197591E+03 0.  0.
         25    1    3    3    0    0  0.57126865928E+02  0.33120403151E+02  0.20885497292E+03  0.25224660103E+03  0.12509000000E+03 0.  0.
         25    1    4    4    0    0 -0.18329624795E+02  0.23107123335E+02 -0.21518168120E+02  0.13030907088E+03  0.12509000000E+03 0.  0.
         25    1    4    4    0    0 -0.38797241133E+02 -0.56227526486E+02 -0.23368364576E+02  0.14443112274E+03  0.12509000000E+03 0.  0.
<mgrwt>
<rscale>  2 0.50082875E+03</rscale>
<asrwt>0</asrwt>
<pdfrwt beam="1">  1       21 0.50805532E-01 0.50082875E+03</pdfrwt>
<pdfrwt beam="2">  1       21 0.26692526E-01 0.50082875E+03</pdfrwt>
<totfact> 0.44773832E+04</totfact>
</mgrwt>
</event>
<event>
 7    0  0.4709932E-002  0.4487450E+03  0.7546771E-02  0.1028097E+00
         21   -1    0    0  502  501  0.00000000000E+00  0.00000000000E+00  0.14065343598E+04  0.14065343598E+04  0.00000000000E+00 0. -1.
         21   -1    0    0  501  502 -0.00000000000E+00 -0.00000000000E+00 -0.35792241694E+02  0.35792241694E+02  0.00000000000E+00 0. -1.
      99926    2    1    2    0    0 -0.71054273576E-14  0.00000000000E+00  0.13707421181E+04  0.14423266015E+04  0.44874499555E+03 0.  0.
      99925    2    3    3    0    0 -0.58730055321E+02  0.53730941392E+02  0.63693917737E+03  0.69369418342E+03  0.26302827031E+03 0.  0.
         25    1    3    3    0    0  0.58730055321E+02 -0.53730941392E+02  0.73380294076E+03  0.74863241810E+03  0.12509000000E+03 0.  0.
         25    1    4    4    0    0 -0.10987843758E+02  0.21968007600E+02  0.39853235202E+03  0.41842427006E+03  0.12509000000E+03 0.  0.
         25    1    4    4    0    0 -0.47742211563E+02  0.31762933792E+02  0.23840682535E+03  0.27526991336E+03  0.12509000000E+03 0.  0.
<mgrwt>
<rscale>  2 0.44874500E+03</rscale>
<asrwt>0</asrwt>
<pdfrwt beam="1">  1       21 0.20684325E+00 0.44874500E+03</pdfrwt>
<pdfrwt beam="2">  1       21 0.52635659E-02 0.44874500E+03</pdfrwt>
<totfact> 0.26489816E+04</totfact>
</mgrwt>
</event>
<event>
 7    0  0.4709932E-002  0.4609760E+03  0.7546771E-02  0.1024499E+00
         21   -1    0    0  502  501  0.00000000000E+00  0.00000000000E+00  0.32040717534E+02  0.32040717534E+02  0.00000000000E+00 0.  1.
         21   -1    0    0  501  502 -0.00000000000E+00 -0.00000000000E+00 -0.16580379376E+04  0.16580379376E+04  0.00000000000E+00 0.  1.
      99926    2    1    2    0    0  0.00000000000E+00  0.00000000000E+00 -0.16259972201E+04  0.16900786551E+04  0.46097603070E+03 0.  0.
      99925    2    3    3    0    0  0.97494531711E+02  0.65941676170E+02 -0.10740692708E+04  0.11120427932E+04  0.26298457583E+03 0.  0.
         25    1    3    3    0    0 -0.97494531711E+02 -0.65941676170E+02 -0.55192794931E+03  0.57803586195E+03  0.12509000000E+03 0.  0.
         25    1    4    4    0    0  0.70588720620E+02  0.15859546769E+02 -0.66480274399E+03  0.68032675181E+03  0.12509000000E+03 0.  0.
         25    1    4    4    0    0  0.26905811091E+02  0.50082129402E+02 -0.40926652676E+03  0.43171604138E+03  0.12509000000E+03 0.  0.
<mgrwt>
<rscale>  2 0.46097603E+03</rscale>
<asrwt>0</asrwt>
<pdfrwt beam="1">  1       21 0.47118701E-02 0.46097603E+03</pdfrwt>
<pdfrwt beam="2">  1       21 0.24382911E+00 0.46097603E+03</pdfrwt>
<totfact> 0.18591115E+04</totfact>
</mgrwt>
</event>
<event>
 7    0  0.4709932E-002  0.4580516E+03  0.7546771E-02  0.1025348E+00
         21   -1    0    0  502  501  0.00000000000E+00  0.00000000000E+00  0.10592274049E+03  0.10592274049E+03  0.00000000000E+00 0. -1.
         21   -1    0    0  501  502 -0.00000000000E+00 -0.00000000000E+00 -0.49519881817E+03  0.49519881817E+03  0.00000000000E+00 0. -1.
      99926    2    1    2    0    0 -0.35527136788E-14  0.00000000000E+00 -0.38927607768E+03  0.60112155866E+03  0.45805159495E+03 0.  0.
      99925    2    3    3    0    0 -0.26556544518E+02  0.11152854916E+03 -0.22110272546E+03  0.36222063394E+03  0.26300856472E+03 0.  0.
         25    1    4    4    0    0 -0.70369925903E+01  0.12025239362E+02 -0.99142419038E+02  0.16022126263E+03  0.12509000000E+03 0.  0.
         25    1    4    4    0    0 -0.19519551928E+02  0.99503309799E+02 -0.12196030642E+03  0.20199937131E+03  0.12509000000E+03 0.  0.
         25    1    3    3    0    0  0.26556544518E+02 -0.11152854916E+03 -0.16817335222E+03  0.23890092472E+03  0.12509000000E+03 0.  0.
<mgrwt>
<rscale>  2 0.45805159E+03</rscale>
<asrwt>0</asrwt>
<pdfrwt beam="1">  1       21 0.15576874E-01 0.45805159E+03</pdfrwt>
<pdfrwt beam="2">  1       21 0.72823355E-01 0.45805159E+03</pdfrwt>
<totfact> 0.57217191E+04</totfact>
</mgrwt>
</event>
<event>
 7    0  0.4709932E-002  0.4560570E+03  0.7546771E-02  0.1025931E+00
         21   -1    0    0  502  501  0.00000000000E+00  0.00000000000E+00  0.83508278659E+02  0.83508278659E+02  0.00000000000E+00 0.  1.
         21   -1    0    0  501  502 -0.00000000000E+00 -0.00000000000E+00 -0.62265678217E+03  0.62265678217E+03  0.00000000000E+00 0.  1.
      99926    2    1    2    0    0 -0.71054273576E-14 -0.14210854715E-13 -0.53914850351E+03  0.70616506083E+03  0.45605699676E+03 0.  0.
      99925    2    3    3    0    0 -0.29494584353E+02 -0.93187932632E+02 -0.42979070208E+03  0.51339432102E+03  0.26324847571E+03 0.  0.
         25    1    3    3    0    0  0.29494584353E+02  0.93187932632E+02 -0.10935780143E+03  0.19277073981E+03  0.12509000000E+03 0.  0.
         25    1    4    4    0    0 -0.55358526637E+02 -0.42422544706E+02 -0.22728716640E+03  0.26864698562E+03  0.12509000000E+03 0.  0.
         25    1    4    4    0    0  0.25863942284E+02 -0.50765387926E+02 -0.20250353568E+03  0.24474733540E+03  0.12509000000E+03 0.  0.
<mgrwt>
<rscale>  2 0.45605700E+03</rscale>
<asrwt>0</asrwt>
<pdfrwt beam="1">  1       21 0.12280629E-01 0.45605700E+03</pdfrwt>
<pdfrwt beam="2">  1       21 0.91567173E-01 0.45605700E+03</pdfrwt>
<totfact> 0.52134555E+04</totfact>
</mgrwt>
</event>
<event>
 7    0  0.4709932E-002  0.4558156E+03  0.7546771E-02  0.1026002E+00
         21   -1    0    0  502  501  0.00000000000E+00  0.00000000000E+00  0.27635174858E+03  0.27635174858E+03  0.00000000000E+00 0. -1.
         21   -1    0    0  501  502 -0.00000000000E+00 -0.00000000000E+00 -0.18795602046E+03  0.18795602046E+03  0.00000000000E+00 0. -1.
      99926    2    1    2    0    0  0.71054273576E-14  0.00000000000E+00  0.88395728120E+02  0.46430776905E+03  0.45581564217E+03 0.  0.
      99925    2    3    3    0    0 -0.59310339579E+02  0.11029280035E+02 -0.42829735397E+02  0.27323973987E+03  0.26303271243E+03 0.  0.
         25    1    4    4    0    0 -0.70372074956E+02  0.12547532243E+02 -0.28144204231E+02  0.14679670920E+03  0.12509000000E+03 0.  0.
         25    1    3    3    0    0  0.59310339579E+02 -0.11029280035E+02  0.13122546352E+03  0.19106802918E+03  0.12509000000E+03 0.  0.
         25    1    4    4    0    0  0.11061735378E+02 -0.15182522077E+01 -0.14685531166E+02  0.12644303067E+03  0.12509000000E+03 0.  0.
<mgrwt>
<rscale>  2 0.45581564E+03</rscale>
<asrwt>0</asrwt>
<pdfrwt beam="1">  1       21 0.40639963E-01 0.45581564E+03</pdfrwt>
<pdfrwt beam="2">  1       21 0.27640591E-01 0.45581564E+03</pdfrwt>
<totfact> 0.67423395E+04</totfact>
</mgrwt>
</event>
<event>
 7    0  0.4709932E-002  0.4183162E+03  0.7546771E-02  0.1037616E+00
         21   -1    0    0  502  501  0.00000000000E+00  0.00000000000E+00  0.58807300465E+03  0.58807300465E+03  0.00000000000E+00 0. -1.
         21   -1    0    0  501  502 -0.00000000000E+00 -0.00000000000E+00 -0.74390627397E+02  0.74390627397E+02  0.00000000000E+00 0. -1.
      99926    2    1    2    0    0  0.00000000000E+00 -0.44408920985E-15  0.51368237725E+03  0.66246363205E+03  0.41831624291E+03 0.  0.
      99925    2    3    3    0    0 -0.68347426097E+02  0.36122558719E+01  0.29200174087E+03  0.39888398243E+03  0.26298097977E+03 0.  0.
         25    1    4    4    0    0 -0.49509063582E+02  0.62400248243E+00  0.20545093622E+03  0.24557917674E+03  0.12509000000E+03 0.  0.
         25    1    3    3    0    0  0.68347426097E+02 -0.36122558719E+01  0.22168063638E+03  0.26357964962E+03  0.12509000000E+03 0.  0.
         25    1    4    4    0    0 -0.18838362515E+02  0.29882533895E+01  0.86550804655E+02  0.15330480569E+03  0.12509000000E+03 0.  0.
<mgrwt>
<rscale>  2 0.41831624E+03</rscale>
<asrwt>0</asrwt>
<pdfrwt beam="1">  1       21 0.86481322E-01 0.41831624E+03</pdfrwt>
<pdfrwt beam="2">  1       21 0.10939798E-01 0.41831624E+03</pdfrwt>
<totfact> 0.74225492E+04</totfact>
</mgrwt>
</event>
<event>
 7    0  0.4709932E-002  0.4554374E+03  0.7546771E-02  0.1026113E+00
         21   -1    0    0  502  501  0.00000000000E+00  0.00000000000E+00  0.26820060566E+03  0.26820060566E+03  0.00000000000E+00 0. -1.
         21   -1    0    0  501  502 -0.00000000000E+00 -0.00000000000E+00 -0.19334712004E+03  0.19334712004E+03  0.00000000000E+00 0. -1.
      99926    2    1    2    0    0  0.00000000000E+00  0.00000000000E+00  0.74853485619E+02  0.46154772569E+03  0.45543743674E+03 0.  0.
      99925    2    3    3    0    0  0.35270612433E+02  0.10572972811E+03  0.68690485156E+02  0.29389247769E+03  0.26311901145E+03 0.  0.
         25    1    4    4    0    0  0.13054258364E+02  0.95410184210E+02  0.45935615979E+02  0.16441139203E+03  0.12509000000E+03 0.  0.
         25    1    3    3    0    0 -0.35270612433E+02 -0.10572972811E+03  0.61630004631E+01  0.16765524800E+03  0.12509000000E+03 0.  0.
         25    1    4    4    0    0  0.22216354069E+02  0.10319543899E+02  0.22754869176E+02  0.12948108567E+03  0.12509000000E+03 0.  0.
<mgrwt>
<rscale>  2 0.45543744E+03</rscale>
<asrwt>0</asrwt>
<pdfrwt beam="1">  1       21 0.39441266E-01 0.45543744E+03</pdfrwt>
<pdfrwt beam="2">  1       21 0.28433400E-01 0.45543744E+03</pdfrwt>
<totfact> 0.67830929E+04</totfact>
</mgrwt>
</event>
<event>
 7    0  0.4709932E-002  0.4391943E+03  0.7546771E-02  0.1030994E+00
         21   -1    0    0  502  501  0.00000000000E+00  0.00000000000E+00  0.36224473262E+03  0.36224473262E+03  0.00000000000E+00 0. -1.
         21   -1    0    0  501  502 -0.00000000000E+00 -0.00000000000E+00 -0.13312246294E+03  0.13312246294E+03  0.00000000000E+00 0. -1.
      99926    2    1    2    0    0 -0.44408920985E-15  0.00000000000E+00  0.22912226968E+03  0.49536719556E+03  0.43919431231E+03 0.  0.
      99925    2    3    3    0    0 -0.30995867439E+01  0.96373558587E+02  0.13134320242E+03  0.30961003061E+03  0.26326766608E+03 0.  0.
         25    1    4    4    0    0 -0.46658669895E+01  0.46640459648E+02  0.20336816487E+02  0.13512289590E+03  0.12509000000E+03 0.  0.
         25    1    3    3    0    0  0.30995867439E+01 -0.96373558587E+02  0.97779067264E+02  0.18575716494E+03  0.12509000000E+03 0.  0.
         25    1    4    4    0    0  0.15662802455E+01  0.49733098938E+02  0.11100638593E+03  0.17448713472E+03  0.12509000000E+03 0.  0.
<mgrwt>
<rscale>  2 0.43919431E+03</rscale>
<asrwt>0</asrwt>
<pdfrwt beam="1">  1       21 0.53271284E-01 0.43919431E+03</pdfrwt>
<pdfrwt beam="2">  1       21 0.19576833E-01 0.43919431E+03</pdfrwt>
<totfact> 0.74516031E+04</totfact>
</mgrwt>
</event>
<event>
 7    0  0.4709932E-002  0.4569178E+03  0.7546771E-02  0.1025679E+00
         21   -1    0    0  502  501  0.00000000000E+00  0.00000000000E+00  0.22932812666E+03  0.22932812666E+03  0.00000000000E+00 0. -1.
         21   -1    0    0  501  502 -0.00000000000E+00 -0.00000000000E+00 -0.22759297082E+03  0.22759297082E+03  0.00000000000E+00 0. -1.
      99926    2    1    2    0    0  0.00000000000E+00  0.00000000000E+00  0.17351558386E+01  0.45692109747E+03  0.45691780284E+03 0.  0.
      99925    2    3    3    0    0 -0.60460946331E+02 -0.10073949586E+02 -0.96181141583E+02  0.28665037218E+03  0.26298405538E+03 0.  0.
         25    1    4    4    0    0 -0.52129041799E+02  0.88011981073E+01 -0.16238242880E+02  0.13677019675E+03  0.12509000000E+03 0.  0.
         25    1    3    3    0    0  0.60460946331E+02  0.10073949586E+02  0.97916297421E+02  0.17027072529E+03  0.12509000000E+03 0.  0.
         25    1    4    4    0    0 -0.83319045321E+01 -0.18875147693E+02 -0.79942898703E+02  0.14988017543E+03  0.12509000000E+03 0.  0.
<mgrwt>
<rscale>  2 0.45691780E+03</rscale>
<asrwt>0</asrwt>
<pdfrwt beam="1">  1       21 0.33724725E-01 0.45691780E+03</pdfrwt>
<pdfrwt beam="2">  1       21 0.33469554E-01 0.45691780E+03</pdfrwt>
<totfact> 0.67368486E+04</totfact>
</mgrwt>
</event>
<event>
 7    0  0.4709932E-002  0.4573654E+03  0.7546771E-02  0.1025548E+00
         21   -1    0    0  502  501  0.00000000000E+00  0.00000000000E+00  0.54606997297E+03  0.54606997297E+03  0.00000000000E+00 0. -1.
         21   -1    0    0  501  502 -0.00000000000E+00 -0.00000000000E+00 -0.95767525896E+02  0.95767525896E+02  0.00000000000E+00 0. -1.
      99926    2    1    2    0    0  0.00000000000E+00 -0.35527136788E-14  0.45030244707E+03  0.64183749886E+03  0.45736536938E+03 0.  0.
      99925    2    3    3    0    0  0.93163563468E+02  0.18619713999E+02  0.37461368213E+03  0.46747454252E+03  0.26300360027E+03 0.  0.
         25    1    4    4    0    0  0.65202709664E+02  0.40046137894E+02  0.16402492868E+03  0.22001539000E+03  0.12509000000E+03 0.  0.
         25    1    3    3    0    0 -0.93163563468E+02 -0.18619713999E+02  0.75688764946E+02  0.17436295635E+03  0.12509000000E+03 0.  0.
         25    1    4    4    0    0  0.27960853804E+02 -0.21426423895E+02  0.21058875344E+03  0.24745915252E+03  0.12509000000E+03 0.  0.
<mgrwt>
<rscale>  2 0.45736537E+03</rscale>
<asrwt>0</asrwt>
<pdfrwt beam="1">  1       21 0.80304406E-01 0.45736537E+03</pdfrwt>
<pdfrwt beam="2">  1       21 0.14083460E-01 0.45736537E+03</pdfrwt>
<totfact> 0.55137783E+04</totfact>
</mgrwt>
</event>
<event>
 7    0  0.4709932E-002  0.4516141E+03  0.7546771E-02  0.1027242E+00
         21   -1    0    0  502  501  0.00000000000E+00  0.00000000000E+00  0.24222924356E+03  0.24222924356E+03  0.00000000000E+00 0. -1.
         21   -1    0    0  501  502 -0.00000000000E+00 -0.00000000000E+00 -0.21049821038E+03  0.21049821038E+03  0.00000000000E+00 0. -1.
      99926    2    1    2    0    0  0.00000000000E+00  0.00000000000E+00  0.31731033173E+02  0.45272745394E+03  0.45161409310E+03 0.  0.
      99925    2    3    3    0    0 -0.65100744616E+02  0.82091985316E+02 -0.12483175722E+02  0.28367241743E+03  0.26331921641E+03 0.  0.
         25    1    4    4    0    0  0.62679706068E+00  0.21824206286E+02  0.14119612608E+02  0.12776368974E+03  0.12509000000E+03 0.  0.
         25    1    3    3    0    0  0.65100744616E+02 -0.82091985316E+02  0.44214208895E+02  0.16905503651E+03  0.12509000000E+03 0.  0.
         25    1    4    4    0    0 -0.65727541676E+02  0.60267779030E+02 -0.26602788330E+02  0.15590872769E+03  0.12509000000E+03 0.  0.
<mgrwt>
<rscale>  2 0.45161409E+03</rscale>
<asrwt>0</asrwt>
<pdfrwt beam="1">  1       21 0.35621948E-01 0.45161409E+03</pdfrwt>
<pdfrwt beam="2">  1       21 0.30955619E-01 0.45161409E+03</pdfrwt>
<totfact> 0.70600747E+04</totfact>
</mgrwt>
</event>
<event>
 7    0  0.4709932E-002  0.4843542E+03  0.7546771E-02  0.1017945E+00
         21   -1    0    0  502  501  0.00000000000E+00  0.00000000000E+00  0.68401716303E+03  0.68401716303E+03  0.00000000000E+00 0. -1.
         21   -1    0    0  501  502 -0.00000000000E+00 -0.00000000000E+00 -0.85743076596E+02  0.85743076596E+02  0.00000000000E+00 0. -1.
      99926    2    1    2    0    0  0.00000000000E+00  0.00000000000E+00  0.59827408643E+03  0.76976023962E+03  0.48435415143E+03 0.  0.
      99925    2    3    3    0    0 -0.84997796611E+02  0.10980589802E+03  0.36259995067E+03  0.46897498893E+03  0.26301493369E+03 0.  0.
         25    1    3    3    0    0  0.84997796611E+02 -0.10980589802E+03  0.23567413576E+03  0.30078525070E+03  0.12509000000E+03 0.  0.
         25    1    4    4    0    0 -0.39369756418E+02  0.59615900342E+02  0.24570657513E+03  0.28482145715E+03  0.12509000000E+03 0.  0.
         25    1    4    4    0    0 -0.45628040193E+02  0.50189997680E+02  0.11689337554E+03  0.18415353177E+03  0.12509000000E+03 0.  0.
<mgrwt>
<rscale>  2 0.48435415E+03</rscale>
<asrwt>0</asrwt>
<pdfrwt beam="1">  1       21 0.10059076E+00 0.48435415E+03</pdfrwt>
<pdfrwt beam="2">  1       21 0.12609276E-01 0.48435415E+03</pdfrwt>
<totfact> 0.39374251E+04</totfact>
</mgrwt>
</event>
<event>
 7    0  0.4709932E-002  0.4522505E+03  0.7546771E-02  0.1027053E+00
         21   -1    0    0  502  501  0.00000000000E+00  0.00000000000E+00  0.99590928950E+03  0.99590928950E+03  0.00000000000E+00 0.  1.
         21   -1    0    0  501  502 -0.00000000000E+00 -0.00000000000E+00 -0.51342665690E+02  0.51342665690E+02  0.00000000000E+00 0.  1.
      99926    2    1    2    0    0  0.00000000000E+00  0.00000000000E+00  0.94456662381E+03  0.10472519552E+04  0.45225053989E+03 0.  0.
      99925    2    3    3    0    0  0.88587078522E+02 -0.40951304834E+02  0.47551063945E+03  0.55208965411E+03  0.26299798116E+03 0.  0.
         25    1    3    3    0    0 -0.88587078522E+02  0.40951304834E+02  0.46905598436E+03  0.49516230108E+03  0.12509000000E+03 0.  0.
         25    1    4    4    0    0  0.41569776940E+02 -0.35676724930E+02  0.31390332355E+03  0.34232101848E+03  0.12509000000E+03 0.  0.
         25    1    4    4    0    0  0.47017301581E+02 -0.52745799043E+01  0.16160731590E+03  0.20976863563E+03  0.12509000000E+03 0.  0.
<mgrwt>
<rscale>  2 0.45225054E+03</rscale>
<asrwt>0</asrwt>
<pdfrwt beam="1">  1       21 0.14645724E+00 0.45225054E+03</pdfrwt>
<pdfrwt beam="2">  1       21 0.75503926E-02 0.45225054E+03</pdfrwt>
<totfact> 0.38191442E+04</totfact>
</mgrwt>
</event>
<event>
 7    0  0.4709932E-002  0.4542926E+03  0.7546771E-02  0.1026450E+00
         21   -1    0    0  502  501  0.00000000000E+00  0.00000000000E+00  0.15399498544E+03  0.15399498544E+03  0.00000000000E+00 0. -1.
         21   -1    0    0  501  502 -0.00000000000E+00 -0.00000000000E+00 -0.33504628246E+03  0.33504628246E+03  0.00000000000E+00 0. -1.
      99926    2    1    2    0    0 -0.14210854715E-13  0.00000000000E+00 -0.18105129702E+03  0.48904126789E+03  0.45429262546E+03 0.  0.
      99925    2    3    3    0    0 -0.92081064645E+02 -0.12144791495E+02 -0.18234594247E+03  0.33323496945E+03  0.26300015914E+03 0.  0.
         25    1    4    4    0    0 -0.78208766460E+02 -0.24645505967E+02 -0.12240817471E+03  0.19327514442E+03  0.12509000000E+03 0.  0.
         25    1    4    4    0    0 -0.13872298184E+02  0.12500714472E+02 -0.59937767761E+02  0.13995982503E+03  0.12509000000E+03 0.  0.
         25    1    3    3    0    0  0.92081064645E+02  0.12144791495E+02  0.12946454522E+01  0.15580629844E+03  0.12509000000E+03 0.  0.
<mgrwt>
<rscale>  2 0.45429263E+03</rscale>
<asrwt>0</asrwt>
<pdfrwt beam="1">  1       21 0.22646322E-01 0.45429263E+03</pdfrwt>
<pdfrwt beam="2">  1       21 0.49271511E-01 0.45429263E+03</pdfrwt>
<totfact> 0.66419823E+04</totfact>
</mgrwt>
</event>
<event>
 7    0  0.4709932E-002  0.4485759E+03  0.7546771E-02  0.1028148E+00
         21   -1    0    0  502  501  0.00000000000E+00  0.00000000000E+00  0.17605438193E+03  0.17605438193E+03  0.00000000000E+00 0.  1.
         21   -1    0    0  501  502 -0.00000000000E+00 -0.00000000000E+00 -0.28573610740E+03  0.28573610740E+03  0.00000000000E+00 0.  1.
      99926    2    1    2    0    0  0.14210854715E-13  0.00000000000E+00 -0.10968172547E+03  0.46179048933E+03  0.44857594132E+03 0.  0.
      99925    2    3    3    0    0 -0.10250864629E+03 -0.17586765432E+02 -0.93939536433E+02  0.29835046517E+03  0.26338383906E+03 0.  0.
         25    1    4    4    0    0 -0.26088335097E+02 -0.40899341448E+01 -0.79239466912E+02  0.15041186790E+03  0.12509000000E+03 0.  0.
         25    1    3    3    0    0  0.10250864629E+03  0.17586765432E+02 -0.15742189041E+02  0.16344002416E+03  0.12509000000E+03 0.  0.
         25    1    4    4    0    0 -0.76420311192E+02 -0.13496831287E+02 -0.14700069521E+02  0.14793859727E+03  0.12509000000E+03 0.  0.
<mgrwt>
<rscale>  2 0.44857594E+03</rscale>
<asrwt>0</asrwt>
<pdfrwt beam="1">  1       21 0.25890351E-01 0.44857594E+03</pdfrwt>
<pdfrwt beam="2">  1       21 0.42020015E-01 0.44857594E+03</pdfrwt>
<totfact> 0.71632519E+04</totfact>
</mgrwt>
</event>
<event>
 7    0  0.4709932E-002  0.4508957E+03  0.7546771E-02  0.1027455E+00
         21   -1    0    0  502  501  0.00000000000E+00  0.00000000000E+00  0.90866973461E+03  0.90866973461E+03  0.00000000000E+00 0. -1.
         21   -1    0    0  501  502 -0.00000000000E+00 -0.00000000000E+00 -0.55935327199E+02  0.55935327199E+02  0.00000000000E+00 0. -1.
      99926    2    1    2    0    0  0.00000000000E+00  0.00000000000E+00  0.85273440741E+03  0.96460506181E+03  0.45089572596E+03 0.  0.
      99925    2    3    3    0    0  0.71022804580E+02  0.48022026832E+02  0.39291490291E+03  0.48042344438E+03  0.26281973129E+03 0.  0.
         25    1    4    4    0    0  0.37199748472E+02  0.64926414592E+02  0.20890745316E+03  0.25473337567E+03  0.12509000000E+03 0.  0.
         25    1    4    4    0    0  0.33823056108E+02 -0.16904387760E+02  0.18400744975E+03  0.22569006871E+03  0.12509000000E+03 0.  0.
         25    1    3    3    0    0 -0.71022804580E+02 -0.48022026832E+02  0.45981950451E+03  0.48418161743E+03  0.12509000000E+03 0.  0.
<mgrwt>
<rscale>  2 0.45089573E+03</rscale>
<asrwt>0</asrwt>
<pdfrwt beam="1">  1       21 0.13362789E+00 0.45089573E+03</pdfrwt>
<pdfrwt beam="2">  1       21 0.82257840E-02 0.45089573E+03</pdfrwt>
<totfact> 0.41882940E+04</totfact>
</mgrwt>
</event>
<event>
 7    0  0.4709932E-002  0.4222970E+03  0.7546771E-02  0.1036321E+00
         21   -1    0    0  502  501  0.00000000000E+00  0.00000000000E+00  0.57433296266E+02  0.57433296266E+02  0.00000000000E+00 0. -1.
         21   -1    0    0  501  502 -0.00000000000E+00 -0.00000000000E+00 -0.77626888526E+03  0.77626888526E+03  0.00000000000E+00 0. -1.
      99926    2    1    2    0    0  0.00000000000E+00  0.00000000000E+00 -0.71883558899E+03  0.83370218152E+03  0.42229696124E+03 0.  0.
      99925    2    3    3    0    0 -0.72637571513E+02 -0.21288655298E+02 -0.49734408934E+03  0.56830546686E+03  0.26436818419E+03 0.  0.
         25    1    4    4    0    0 -0.23855225271E+02 -0.12775612879E+02 -0.15843502119E+03  0.20366995875E+03  0.12509000000E+03 0.  0.
         25    1    3    3    0    0  0.72637571513E+02  0.21288655298E+02 -0.22149149965E+03  0.26539671467E+03  0.12509000000E+03 0.  0.
         25    1    4    4    0    0 -0.48782346243E+02 -0.85130424182E+01 -0.33890906815E+03  0.36463550811E+03  0.12509000000E+03 0.  0.
<mgrwt>
<rscale>  2 0.42229696E+03</rscale>
<asrwt>0</asrwt>
<pdfrwt beam="1">  1       21 0.84460734E-02 0.42229696E+03</pdfrwt>
<pdfrwt beam="2">  1       21 0.11415718E+00 0.42229696E+03</pdfrwt>
<totfact> 0.60196633E+04</totfact>
</mgrwt>
</event>
<event>
 7    0  0.4709932E-002  0.4528836E+03  0.7546771E-02  0.1026866E+00
         21   -1    0    0  502  501  0.00000000000E+00  0.00000000000E+00  0.15188121745E+03  0.15188121745E+03  0.00000000000E+00 0. -1.
         21   -1    0    0  501  502 -0.00000000000E+00 -0.00000000000E+00 -0.33760520920E+03  0.33760520920E+03  0.00000000000E+00 0. -1.
      99926    2    1    2    0    0  0.00000000000E+00  0.00000000000E+00 -0.18572399175E+03  0.48948642665E+03  0.45288360620E+03 0.  0.
      99925    2    3    3    0    0 -0.34642309478E+02  0.10425525107E+03 -0.13544213785E+03  0.31557547268E+03  0.26300961821E+03 0.  0.
         25    1    4    4    0    0 -0.27183374500E+02  0.12252182102E+02 -0.48359087310E+02  0.13738690345E+03  0.12509000000E+03 0.  0.
         25    1    3    3    0    0  0.34642309478E+02 -0.10425525107E+03 -0.50281853906E+02  0.17391095398E+03  0.12509000000E+03 0.  0.
         25    1    4    4    0    0 -0.74589349780E+01  0.92003068966E+02 -0.87083050539E+02  0.17818856922E+03  0.12509000000E+03 0.  0.
<mgrwt>
<rscale>  2 0.45288361E+03</rscale>
<asrwt>0</asrwt>
<pdfrwt beam="1">  1       21 0.22335473E-01 0.45288361E+03</pdfrwt>
<pdfrwt beam="2">  1       21 0.49647826E-01 0.45288361E+03</pdfrwt>
<totfact> 0.67136689E+04</totfact>
</mgrwt>
</event>
<event>
 7    0  0.4709932E-002  0.4587934E+03  0.7546771E-02  0.1025132E+00
         21   -1    0    0  502  501  0.00000000000E+00  0.00000000000E+00  0.14531094495E+03  0.14531094495E+03  0.00000000000E+00 0. -1.
         21   -1    0    0  501  502 -0.00000000000E+00 -0.00000000000E+00 -0.36213963759E+03  0.36213963759E+03  0.00000000000E+00 0. -1.
      99926    2    1    2    0    0 -0.14210854715E-13  0.00000000000E+00 -0.21682869264E+03  0.50745058254E+03  0.45879343039E+03 0.  0.
      99925    2    3    3    0    0 -0.11011768960E+03 -0.38428753164E+02 -0.13856577758E+03  0.31936744505E+03  0.26304451260E+03 0.  0.
         25    1    4    4    0    0 -0.19896304064E+02 -0.16249929916E+01 -0.82572736578E+02  0.15120935303E+03  0.12509000000E+03 0.  0.
         25    1    4    4    0    0 -0.90221385540E+02 -0.36803760172E+02 -0.55993041006E+02  0.16815809202E+03  0.12509000000E+03 0.  0.
         25    1    3    3    0    0  0.11011768960E+03  0.38428753164E+02 -0.78262915054E+02  0.18808313749E+03  0.12509000000E+03 0.  0.
<mgrwt>
<rscale>  2 0.45879343E+03</rscale>
<asrwt>0</asrwt>
<pdfrwt beam="1">  1       21 0.21369257E-01 0.45879343E+03</pdfrwt>
<pdfrwt beam="2">  1       21 0.53255828E-01 0.45879343E+03</pdfrwt>
<totfact> 0.62836942E+04</totfact>
</mgrwt>
</event>
<event>
 7    0  0.4709932E-002  0.4604120E+03  0.7546771E-02  0.1024662E+00
         21   -1    0    0  502  501  0.00000000000E+00  0.00000000000E+00  0.45400882664E+02  0.45400882664E+02  0.00000000000E+00 0.  1.
         21   -1    0    0  501  502 -0.00000000000E+00 -0.00000000000E+00 -0.11672638877E+04  0.11672638877E+04  0.00000000000E+00 0.  1.
      99926    2    1    2    0    0  0.00000000000E+00 -0.71054273576E-14 -0.11218630050E+04  0.12126647703E+04  0.46041203634E+03 0.  0.
      99925    2    3    3    0    0  0.86736898234E+02  0.63871156653E+02 -0.57556638516E+03  0.64197192903E+03  0.26315105883E+03 0.  0.
         25    1    4    4    0    0  0.34208140849E+02  0.40095701099E+01 -0.20233815375E+03  0.24036328779E+03  0.12509000000E+03 0.  0.
         25    1    3    3    0    0 -0.86736898234E+02 -0.63871156653E+02 -0.54629661985E+03  0.57069284132E+03  0.12509000000E+03 0.  0.
         25    1    4    4    0    0  0.52528757385E+02  0.59861586543E+02 -0.37322823141E+03  0.40160864124E+03  0.12509000000E+03 0.  0.
<mgrwt>
<rscale>  2 0.46041204E+03</rscale>
<asrwt>0</asrwt>
<pdfrwt beam="1">  1       21 0.66765999E-02 0.46041204E+03</pdfrwt>
<pdfrwt beam="2">  1       21 0.17165647E+00 0.46041204E+03</pdfrwt>
<totfact> 0.30452977E+04</totfact>
</mgrwt>
</event>
<event>
 7    0  0.4709932E-002  0.4600485E+03  0.7546771E-02  0.1024767E+00
         21   -1    0    0  502  501  0.00000000000E+00  0.00000000000E+00  0.25883414338E+04  0.25883414338E+04  0.00000000000E+00 0. -1.
         21   -1    0    0  501  502 -0.00000000000E+00 -0.00000000000E+00 -0.20442106021E+02  0.20442106021E+02  0.00000000000E+00 0. -1.
      99926    2    1    2    0    0  0.71054273576E-14 -0.14210854715E-13  0.25678993277E+04  0.26087835398E+04  0.46004847574E+03 0.  0.
      99925    2    3    3    0    0 -0.47690998670E+02  0.94791791187E+02  0.19010346077E+04  0.19220405180E+04  0.26276844967E+03 0.  0.
         25    1    4    4    0    0 -0.30711038714E+02  0.70290114840E+02  0.12366955522E+04  0.12453703325E+04  0.12509000000E+03 0.  0.
         25    1    3    3    0    0  0.47690998670E+02 -0.94791791187E+02  0.66686472008E+03  0.68674302182E+03  0.12509000000E+03 0.  0.
         25    1    4    4    0    0 -0.16979959956E+02  0.24501676347E+02  0.66433905547E+03  0.67667018548E+03  0.12509000000E+03 0.  0.
<mgrwt>
<rscale>  2 0.46004848E+03</rscale>
<asrwt>0</asrwt>
<pdfrwt beam="1">  1       21 0.38063822E+00 0.46004848E+03</pdfrwt>
<pdfrwt beam="2">  1       21 0.30061938E-02 0.46004848E+03</pdfrwt>
<totfact> 0.58486516E+03</totfact>
</mgrwt>
</event>
<event>
 7    0  0.4709932E-002  0.4343418E+03  0.7546771E-02  0.1032497E+00
         21   -1    0    0  502  501  0.00000000000E+00  0.00000000000E+00  0.25433028211E+03  0.25433028211E+03  0.00000000000E+00 0.  1.
         21   -1    0    0  501  502 -0.00000000000E+00 -0.00000000000E+00 -0.18544072248E+03  0.18544072248E+03  0.00000000000E+00 0.  1.
      99926    2    1    2    0    0  0.00000000000E+00  0.00000000000E+00  0.68889559624E+02  0.43977100459E+03  0.43434176066E+03 0.  0.
      99925    2    3    3    0    0  0.47711239133E+02  0.78906513731E+02  0.38121780526E+02  0.28135142064E+03  0.26306415852E+03 0.  0.
         25    1    3    3    0    0 -0.47711239133E+02 -0.78906513731E+02  0.30767779098E+02  0.15841958395E+03  0.12509000000E+03 0.  0.
         25    1    4    4    0    0  0.30869954555E+02  0.49160499852E+01 -0.43328062421E+01  0.12900931343E+03  0.12509000000E+03 0.  0.
         25    1    4    4    0    0  0.16841284578E+02  0.73990463746E+02  0.42454586768E+02  0.15234210721E+03  0.12509000000E+03 0.  0.
<mgrwt>
<rscale>  2 0.43434176E+03</rscale>
<asrwt>0</asrwt>
<pdfrwt beam="1">  1       21 0.37401512E-01 0.43434176E+03</pdfrwt>
<pdfrwt beam="2">  1       21 0.27270694E-01 0.43434176E+03</pdfrwt>
<totfact> 0.82448778E+04</totfact>
</mgrwt>
</event>
<event>
 7    0  0.4709932E-002  0.4113035E+03  0.7546771E-02  0.1039934E+00
         21   -1    0    0  502  501  0.00000000000E+00  0.00000000000E+00  0.65538026250E+03  0.65538026250E+03  0.00000000000E+00 0.  1.
         21   -1    0    0  501  502 -0.00000000000E+00 -0.00000000000E+00 -0.64531450609E+02  0.64531450609E+02  0.00000000000E+00 0.  1.
      99926    2    1    2    0    0 -0.53290705182E-14  0.00000000000E+00  0.59084881189E+03  0.71991171310E+03  0.41130348425E+03 0.  0.
      99925    2    3    3    0    0  0.15756060493E+02  0.26106899825E+02  0.48854630164E+03  0.55546374150E+03  0.26255029160E+03 0.  0.
         25    1    4    4    0    0 -0.26675478954E+02  0.31256079003E+02  0.26012753178E+03  0.29155164987E+03  0.12509000000E+03 0.  0.
         25    1    3    3    0    0 -0.15756060493E+02 -0.26106899825E+02  0.10230251025E+03  0.16444797160E+03  0.12509000000E+03 0.  0.
         25    1    4    4    0    0  0.42431539447E+02 -0.51491791777E+01  0.22841876986E+03  0.26391209163E+03  0.12509000000E+03 0.  0.
<mgrwt>
<rscale>  2 0.41130348E+03</rscale>
<asrwt>0</asrwt>
<pdfrwt beam="1">  1       21 0.96379447E-01 0.41130348E+03</pdfrwt>
<pdfrwt beam="2">  1       21 0.94899196E-02 0.41130348E+03</pdfrwt>
<totfact> 0.74250107E+04</totfact>
</mgrwt>
</event>
<event>
 7    0  0.4709932E-002  0.4294611E+03  0.7546771E-02  0.1034030E+00
         21   -1    0    0  502  501  0.00000000000E+00  0.00000000000E+00  0.12018140900E+03  0.12018140900E+03  0.00000000000E+00 0. -1.
         21   -1    0    0  501  502 -0.00000000000E+00 -0.00000000000E+00 -0.38366338886E+03  0.38366338886E+03  0.00000000000E+00 0. -1.
      99926    2    1    2    0    0  0.00000000000E+00  0.00000000000E+00 -0.26348197986E+03  0.50384479785E+03  0.42946108859E+03 0.  0.
      99925    2    3    3    0    0  0.83989116538E+02 -0.22992222192E+02 -0.17409418443E+03  0.32715156072E+03  0.26293829057E+03 0.  0.
         25    1    4    4    0    0  0.59476588989E+02  0.22199491266E+02 -0.71838845053E+02  0.15760269607E+03  0.12509000000E+03 0.  0.
         25    1    4    4    0    0  0.24512527548E+02 -0.45191713458E+02 -0.10225533937E+03  0.16954886464E+03  0.12509000000E+03 0.  0.
         25    1    3    3    0    0 -0.83989116538E+02  0.22992222192E+02 -0.89387795434E+02  0.17669323714E+03  0.12509000000E+03 0.  0.
<mgrwt>
<rscale>  2 0.42946109E+03</rscale>
<asrwt>0</asrwt>
<pdfrwt beam="1">  1       21 0.17673737E-01 0.42946109E+03</pdfrwt>
<pdfrwt beam="2">  1       21 0.56421086E-01 0.42946109E+03</pdfrwt>
<totfact> 0.80022216E+04</totfact>
</mgrwt>
</event>
<event>
 7    0  0.4709932E-002  0.4548211E+03  0.7546771E-02  0.1026294E+00
         21   -1    0    0  502  501  0.00000000000E+00  0.00000000000E+00  0.15494463532E+04  0.15494463532E+04  0.00000000000E+00 0.  1.
         21   -1    0    0  501  502 -0.00000000000E+00 -0.00000000000E+00 -0.33376794698E+02  0.33376794698E+02  0.00000000000E+00 0.  1.
      99926    2    1    2    0    0  0.88817841970E-15  0.00000000000E+00  0.15160695585E+04  0.15828231479E+04  0.45482107615E+03 0.  0.
      99925    2    3    3    0    0 -0.75049965661E+01  0.57766463809E+01  0.13460576706E+04  0.13715383999E+04  0.26297649169E+03 0.  0.
         25    1    4    4    0    0  0.32638375995E+02  0.11210417648E+02  0.75087107876E+03  0.76200119558E+03  0.12509000000E+03 0.  0.
         25    1    4    4    0    0 -0.40143372561E+02 -0.54337712674E+01  0.59518659182E+03  0.60953720429E+03  0.12509000000E+03 0.  0.
         25    1    3    3    0    0  0.75049965661E+01 -0.57766463809E+01  0.17001188796E+03  0.21128474806E+03  0.12509000000E+03 0.  0.
<mgrwt>
<rscale>  2 0.45482108E+03</rscale>
<asrwt>0</asrwt>
<pdfrwt beam="1">  1       21 0.22785971E+00 0.45482108E+03</pdfrwt>
<pdfrwt beam="2">  1       21 0.49083532E-02 0.45482108E+03</pdfrwt>
<totfact> 0.21850593E+04</totfact>
</mgrwt>
</event>
<event>
 7    0  0.4709932E-002  0.4601747E+03  0.7546771E-02  0.1024731E+00
         21   -1    0    0  502  501  0.00000000000E+00  0.00000000000E+00  0.30252817762E+04  0.30252817762E+04  0.00000000000E+00 0.  1.
         21   -1    0    0  501  502 -0.00000000000E+00 -0.00000000000E+00 -0.17499258059E+02  0.17499258059E+02  0.00000000000E+00 0.  1.
      99926    2    1    2    0    0  0.00000000000E+00  0.00000000000E+00  0.30077825181E+04  0.30427810342E+04  0.46017469075E+03 0.  0.
      99925    2    3    3    0    0  0.26885735984E+02  0.10856642376E+03  0.16374977957E+04  0.16622603934E+04  0.26306096896E+03 0.  0.
         25    1    4    4    0    0 -0.18243653067E+02  0.67070312696E+02  0.95805443001E+03  0.96868315598E+03  0.12509000000E+03 0.  0.
         25    1    4    4    0    0  0.45129389051E+02  0.41496111066E+02  0.67944336564E+03  0.69357723738E+03  0.12509000000E+03 0.  0.
         25    1    3    3    0    0 -0.26885735984E+02 -0.10856642376E+03  0.13702847225E+04  0.13805206409E+04  0.12509000000E+03 0.  0.
<mgrwt>
<rscale>  2 0.46017469E+03</rscale>
<asrwt>0</asrwt>
<pdfrwt beam="1">  1       21 0.44489402E+00 0.46017469E+03</pdfrwt>
<pdfrwt beam="2">  1       21 0.25734224E-02 0.46017469E+03</pdfrwt>
<totfact> 0.28978635E+03</totfact>
</mgrwt>
</event>
<event>
 7    0  0.4709932E-002  0.4445885E+03  0.7546771E-02  0.1029348E+00
         21   -1    0    0  502  501  0.00000000000E+00  0.00000000000E+00  0.15567282426E+03  0.15567282426E+03  0.00000000000E+00 0.  1.
         21   -1    0    0  501  502 -0.00000000000E+00 -0.00000000000E+00 -0.31742690338E+03  0.31742690338E+03  0.00000000000E+00 0.  1.
      99926    2    1    2    0    0 -0.14210854715E-13  0.00000000000E+00 -0.16175407912E+03  0.47309972764E+03  0.44458854032E+03 0.  0.
      99925    2    3    3    0    0 -0.76593947060E+02 -0.59891176635E+02 -0.66029024975E+02  0.28799332620E+03  0.26291964177E+03 0.  0.
         25    1    3    3    0    0  0.76593947060E+02  0.59891176635E+02 -0.95725054140E+02  0.18510640144E+03  0.12509000000E+03 0.  0.
         25    1    4    4    0    0 -0.75623988271E+02 -0.47185984763E+02 -0.24287457508E+02  0.15550849961E+03  0.12509000000E+03 0.  0.
         25    1    4    4    0    0 -0.96995878902E+00 -0.12705191872E+02 -0.41741567467E+02  0.13248482658E+03  0.12509000000E+03 0.  0.
<mgrwt>
<rscale>  2 0.44458854E+03</rscale>
<asrwt>0</asrwt>
<pdfrwt beam="1">  1       21 0.22893062E-01 0.44458854E+03</pdfrwt>
<pdfrwt beam="2">  1       21 0.46680427E-01 0.44458854E+03</pdfrwt>
<totfact> 0.73059217E+04</totfact>
</mgrwt>
</event>
<event>
 7    0  0.4709932E-002  0.4690027E+03  0.7546771E-02  0.1022202E+00
         21   -1    0    0  502  501  0.00000000000E+00  0.00000000000E+00  0.21993642011E+03  0.21993642011E+03  0.00000000000E+00 0. -1.
         21   -1    0    0  501  502 -0.00000000000E+00 -0.00000000000E+00 -0.25003083128E+03  0.25003083128E+03  0.00000000000E+00 0. -1.
      99926    2    1    2    0    0  0.00000000000E+00  0.00000000000E+00 -0.30094411176E+02  0.46996725139E+03  0.46900271193E+03 0.  0.
      99925    2    3    3    0    0 -0.24577872144E+02  0.11849894529E+03  0.16070041607E+02  0.28989855163E+03  0.26293887534E+03 0.  0.
         25    1    4    4    0    0 -0.44982975533E+02  0.34509500676E+02  0.44926180834E+01  0.13741202801E+03  0.12509000000E+03 0.  0.
         25    1    4    4    0    0  0.20405103389E+02  0.83989444609E+02  0.11577423524E+02  0.15248652362E+03  0.12509000000E+03 0.  0.
         25    1    3    3    0    0  0.24577872144E+02 -0.11849894529E+03 -0.46164452783E+02  0.18006869976E+03  0.12509000000E+03 0.  0.
<mgrwt>
<rscale>  2 0.46900271E+03</rscale>
<asrwt>0</asrwt>
<pdfrwt beam="1">  1       21 0.32343592E-01 0.46900271E+03</pdfrwt>
<pdfrwt beam="2">  1       21 0.36769239E-01 0.46900271E+03</pdfrwt>
<totfact> 0.60424551E+04</totfact>
</mgrwt>
</event>
<event>
 7    0  0.4709932E-002  0.4485148E+03  0.7546771E-02  0.1028166E+00
         21   -1    0    0  502  501  0.00000000000E+00  0.00000000000E+00  0.55850345505E+02  0.55850345505E+02  0.00000000000E+00 0.  1.
         21   -1    0    0  501  502 -0.00000000000E+00 -0.00000000000E+00 -0.90046663753E+03  0.90046663753E+03  0.00000000000E+00 0.  1.
      99926    2    1    2    0    0  0.00000000000E+00  0.00000000000E+00 -0.84461629202E+03  0.95631698303E+03  0.44851476150E+03 0.  0.
      99925    2    3    3    0    0 -0.44971590236E+02  0.75017728617E+02 -0.40141624933E+03  0.48756983426E+03  0.26256282015E+03 0.  0.
         25    1    4    4    0    0 -0.32492270165E+02  0.71941317265E+02 -0.25278322332E+03  0.29287909936E+03  0.12509000000E+03 0.  0.
         25    1    3    3    0    0  0.44971590236E+02 -0.75017728617E+02 -0.44320004269E+03  0.46874714877E+03  0.12509000000E+03 0.  0.
         25    1    4    4    0    0 -0.12479320071E+02  0.30764113524E+01 -0.14863302601E+03  0.19469073490E+03  0.12509000000E+03 0.  0.
<mgrwt>
<rscale>  2 0.44851476E+03</rscale>
<asrwt>0</asrwt>
<pdfrwt beam="1">  1       21 0.82132864E-02 0.44851476E+03</pdfrwt>
<pdfrwt beam="2">  1       21 0.13242156E+00 0.44851476E+03</pdfrwt>
<totfact> 0.43026848E+04</totfact>
</mgrwt>
</event>
<event>
 7    0  0.4709932E-002  0.4508091E+03  0.7546771E-02  0.1027481E+00
         21   -1    0    0  502  501  0.00000000000E+00  0.00000000000E+00  0.67076617930E+03  0.67076617930E+03  0.00000000000E+00 0. -1.
         21   -1    0    0  501  502 -0.00000000000E+00 -0.00000000000E+00 -0.75745025362E+02  0.75745025362E+02  0.00000000000E+00 0. -1.
      99926    2    1    2    0    0 -0.71054273576E-14  0.14210854715E-13  0.59502115394E+03  0.74651120466E+03  0.45080905609E+03 0.  0.
      99925    2    3    3    0    0 -0.49270866906E+02  0.94474422236E+02  0.41087925281E+03  0.49971415721E+03  0.26370332523E+03 0.  0.
         25    1    4    4    0    0 -0.60671641106E+02  0.26279054741E+02  0.20463086181E+03  0.24878290628E+03  0.12509000000E+03 0.  0.
         25    1    4    4    0    0  0.11400774200E+02  0.68195367494E+02  0.20624839100E+03  0.25093125092E+03  0.12509000000E+03 0.  0.
         25    1    3    3    0    0  0.49270866906E+02 -0.94474422236E+02  0.18414190112E+03  0.24679704745E+03  0.12509000000E+03 0.  0.
<mgrwt>
<rscale>  2 0.45080906E+03</rscale>
<asrwt>0</asrwt>
<pdfrwt beam="1">  1       21 0.98642082E-01 0.45080906E+03</pdfrwt>
<pdfrwt beam="2">  1       21 0.11138975E-01 0.45080906E+03</pdfrwt>
<totfact> 0.52146023E+04</totfact>
</mgrwt>
</event>
<event>
 7    0  0.4709932E-002  0.4565615E+03  0.7546771E-02  0.1025783E+00
         21   -1    0    0  502  501  0.00000000000E+00  0.00000000000E+00  0.22398530671E+03  0.22398530671E+03  0.00000000000E+00 0. -1.
         21   -1    0    0  501  502 -0.00000000000E+00 -0.00000000000E+00 -0.23265854975E+03  0.23265854975E+03  0.00000000000E+00 0. -1.
      99926    2    1    2    0    0  0.00000000000E+00  0.00000000000E+00 -0.86732430417E+01  0.45664385645E+03  0.45656148161E+03 0.  0.
      99925    2    3    3    0    0  0.77753756719E+02  0.76525681887E+02 -0.40892143947E+02  0.28756579061E+03  0.26290699843E+03 0.  0.
         25    1    4    4    0    0  0.20754117386E+02  0.15079837912E+02 -0.49007256100E+02  0.13677483011E+03  0.12509000000E+03 0.  0.
         25    1    3    3    0    0 -0.77753756719E+02 -0.76525681887E+02  0.32218900905E+02  0.16907806584E+03  0.12509000000E+03 0.  0.
         25    1    4    4    0    0  0.56999639333E+02  0.61445843974E+02  0.81151121532E+01  0.15079096051E+03  0.12509000000E+03 0.  0.
<mgrwt>
<rscale>  2 0.45656148E+03</rscale>
<asrwt>0</asrwt>
<pdfrwt beam="1">  1       21 0.32939016E-01 0.45656148E+03</pdfrwt>
<pdfrwt beam="2">  1       21 0.34214492E-01 0.45656148E+03</pdfrwt>
<totfact> 0.67579629E+04</totfact>
</mgrwt>
</event>
<event>
 7    0  0.4709932E-002  0.4127932E+03  0.7546771E-02  0.1039438E+00
         21   -1    0    0  502  501  0.00000000000E+00  0.00000000000E+00  0.19780338305E+03  0.19780338305E+03  0.00000000000E+00 0.  1.
         21   -1    0    0  501  502 -0.00000000000E+00 -0.00000000000E+00 -0.21536309450E+03  0.21536309450E+03  0.00000000000E+00 0.  1.
      99926    2    1    2    0    0  0.00000000000E+00 -0.11102230246E-14 -0.17559711448E+02  0.41316647755E+03  0.41279316214E+03 0.  0.
      99925    2    3    3    0    0 -0.66013793140E+02 -0.34655271743E+00 -0.16666812629E+02  0.27172303885E+03  0.26305453088E+03 0.  0.
         25    1    4    4    0    0 -0.55369609257E+02 -0.20153465711E+02  0.19356875997E+02  0.13962146167E+03  0.12509000000E+03 0.  0.
         25    1    3    3    0    0  0.66013793140E+02  0.34655271743E+00 -0.89289881914E+00  0.14144343870E+03  0.12509000000E+03 0.  0.
         25    1    4    4    0    0 -0.10644183882E+02  0.19806912993E+02 -0.36023688627E+02  0.13210157719E+03  0.12509000000E+03 0.  0.
<mgrwt>
<rscale>  2 0.41279316E+03</rscale>
<asrwt>0</asrwt>
<pdfrwt beam="1">  1       21 0.29088733E-01 0.41279316E+03</pdfrwt>
<pdfrwt beam="2">  1       21 0.31671043E-01 0.41279316E+03</pdfrwt>
<totfact> 0.10198004E+05</totfact>
</mgrwt>
</event>
<event>
 7    0  0.4709932E-002  0.4121443E+03  0.7546771E-02  0.1039654E+00
         21   -1    0    0  502  501  0.00000000000E+00  0.00000000000E+00  0.16298499619E+03  0.16298499619E+03  0.00000000000E+00 0.  1.
         21   -1    0    0  501  502 -0.00000000000E+00 -0.00000000000E+00 -0.26054991332E+03  0.26054991332E+03  0.00000000000E+00 0.  1.
      99926    2    1    2    0    0  0.00000000000E+00  0.00000000000E+00 -0.97564917131E+02  0.42353490951E+03  0.41214427877E+03 0.  0.
      99925    2    3    3    0    0  0.73621655104E+01 -0.51091689841E+02 -0.22923537128E+02  0.26899233945E+03  0.26299587046E+03 0.  0.
         25    1    3    3    0    0 -0.73621655104E+01  0.51091689841E+02 -0.74641380003E+02  0.15454257006E+03  0.12509000000E+03 0.  0.
         25    1    4    4    0    0  0.39299946415E+02 -0.40375958663E+02  0.13004840081E+01  0.13720023027E+03  0.12509000000E+03 0.  0.
         25    1    4    4    0    0 -0.31937780904E+02 -0.10715731178E+02 -0.24224021136E+02  0.13179210919E+03  0.12509000000E+03 0.  0.
<mgrwt>
<rscale>  2 0.41214428E+03</rscale>
<asrwt>0</asrwt>
<pdfrwt beam="1">  1       21 0.23968382E-01 0.41214428E+03</pdfrwt>
<pdfrwt beam="2">  1       21 0.38316163E-01 0.41214428E+03</pdfrwt>
<totfact> 0.10136533E+05</totfact>
</mgrwt>
</event>
<event>
 6    0  0.4709932E-002  0.4525858E+03  0.7546771E-02  0.1026954E+00
         21   -1    0    0  502  501  0.00000000000E+00  0.00000000000E+00  0.47613701948E+02  0.47613701948E+02  0.00000000000E+00 0. -1.
         21   -1    0    0  501  502 -0.00000000000E+00 -0.00000000000E+00 -0.10754988380E+04  0.10754988380E+04  0.00000000000E+00 0. -1.
      99926    2    1    2    0    0  0.00000000000E+00  0.00000000000E+00 -0.10278851361E+04  0.11231125400E+04  0.45258582001E+03 0.  0.
         25    1    3    3    0    0 -0.23033476481E+02  0.75576179842E+02 -0.41043463427E+03  0.43628705815E+03  0.12509000000E+03 0.  0.
         25    1    3    3    0    0  0.40159767703E+02 -0.21457078318E+02 -0.45504225917E+03  0.47411409901E+03  0.12509000000E+03 0.  0.
         25    1    3    3    0    0 -0.17126291222E+02 -0.54119101524E+02 -0.16240824263E+03  0.21271138280E+03  0.12509000000E+03 0.  0.
<mgrwt>
<rscale>  2 0.45258582E+03</rscale>
<asrwt>0</asrwt>
<pdfrwt beam="1">  1       21 0.70020153E-02 0.45258582E+03</pdfrwt>
<pdfrwt beam="2">  1       21 0.15816159E+00 0.45258582E+03</pdfrwt>
<totfact> 0.35353567E+04</totfact>
</mgrwt>
</event>
<event>
 7    0  0.4709932E-002  0.4687575E+03  0.7546771E-02  0.1022271E+00
         21   -1    0    0  502  501  0.00000000000E+00  0.00000000000E+00  0.78246757701E+03  0.78246757701E+03  0.00000000000E+00 0. -1.
         21   -1    0    0  501  502 -0.00000000000E+00 -0.00000000000E+00 -0.70205349633E+02  0.70205349633E+02  0.00000000000E+00 0. -1.
      99926    2    1    2    0    0  0.71054273576E-14  0.00000000000E+00  0.71226222738E+03  0.85267292664E+03  0.46875754851E+03 0.  0.
      99925    2    3    3    0    0  0.18655867556E+02 -0.20938327287E+01  0.21692136265E+03  0.34143667412E+03  0.26300513175E+03 0.  0.
         25    1    3    3    0    0 -0.18655867556E+02  0.20938327287E+01  0.49534086472E+03  0.51123625252E+03  0.12509000000E+03 0.  0.
         25    1    4    4    0    0 -0.31238493678E+02 -0.18374821946E+01  0.10961730596E+03  0.16924148928E+03  0.12509000000E+03 0.  0.
         25    1    4    4    0    0  0.49894361234E+02 -0.25635053403E+00  0.10730405669E+03  0.17219518484E+03  0.12509000000E+03 0.  0.
<mgrwt>
<rscale>  2 0.46875755E+03</rscale>
<asrwt>0</asrwt>
<pdfrwt beam="1">  1       21 0.11506876E+00 0.46875755E+03</pdfrwt>
<pdfrwt beam="2">  1       21 0.10324317E-01 0.46875755E+03</pdfrwt>
<totfact> 0.40741845E+04</totfact>
</mgrwt>
</event>
<event>
 7    0  0.4709932E-002  0.4570919E+03  0.7546771E-02  0.1025628E+00
         21   -1    0    0  502  501  0.00000000000E+00  0.00000000000E+00  0.43223109432E+03  0.43223109432E+03  0.00000000000E+00 0.  1.
         21   -1    0    0  501  502 -0.00000000000E+00 -0.00000000000E+00 -0.12084567640E+03  0.12084567640E+03  0.00000000000E+00 0.  1.
      99926    2    1    2    0    0  0.14210854715E-13  0.00000000000E+00  0.31138541792E+03  0.55307677073E+03  0.45709193366E+03 0.  0.
      99925    2    3    3    0    0  0.81402992671E+02  0.78425838267E+02  0.16910150014E+03  0.33246561805E+03  0.26298481042E+03 0.  0.
         25    1    4    4    0    0  0.60510118826E+02  0.23414622612E+02  0.48547482075E+02  0.14904390343E+03  0.12509000000E+03 0.  0.
         25    1    4    4    0    0  0.20892873846E+02  0.55011215656E+02  0.12055401806E+03  0.18342171463E+03  0.12509000000E+03 0.  0.
         25    1    3    3    0    0 -0.81402992671E+02 -0.78425838267E+02  0.14228391779E+03  0.22061115267E+03  0.12509000000E+03 0.  0.
<mgrwt>
<rscale>  2 0.45709193E+03</rscale>
<asrwt>0</asrwt>
<pdfrwt beam="1">  1       21 0.63563396E-01 0.45709193E+03</pdfrwt>
<pdfrwt beam="2">  1       21 0.17771423E-01 0.45709193E+03</pdfrwt>
<totfact> 0.60653589E+04</totfact>
</mgrwt>
</event>
<event>
 7    0  0.4709932E-002  0.4605455E+03  0.7546771E-02  0.1024623E+00
         21   -1    0    0  502  501  0.00000000000E+00  0.00000000000E+00  0.15020474751E+03  0.15020474751E+03  0.00000000000E+00 0.  1.
         21   -1    0    0  501  502 -0.00000000000E+00 -0.00000000000E+00 -0.35302173718E+03  0.35302173718E+03  0.00000000000E+00 0.  1.
      99926    2    1    2    0    0  0.00000000000E+00  0.00000000000E+00 -0.20281698968E+03  0.50322648469E+03  0.46054550653E+03 0.  0.
      99925    2    3    3    0    0  0.31557088423E+02  0.38360794416E+02 -0.24424580379E+03  0.36240299546E+03  0.26308272097E+03 0.  0.
         25    1    4    4    0    0  0.48111381827E+02  0.10344557207E+02 -0.93030047218E+02  0.16347419586E+03  0.12509000000E+03 0.  0.
         25    1    4    4    0    0 -0.16554293404E+02  0.28016237209E+02 -0.15121575657E+03  0.19892879961E+03  0.12509000000E+03 0.  0.
         25    1    3    3    0    0 -0.31557088423E+02 -0.38360794416E+02  0.41428814116E+02  0.14082348922E+03  0.12509000000E+03 0.  0.
<mgrwt>
<rscale>  2 0.46054551E+03</rscale>
<asrwt>0</asrwt>
<pdfrwt beam="1">  1       21 0.22088934E-01 0.46054551E+03</pdfrwt>
<pdfrwt beam="2">  1       21 0.51914960E-01 0.46054551E+03</pdfrwt>
<totfact> 0.62258470E+04</totfact>
</mgrwt>
</event>
<event>
 7    0  0.4709932E-002  0.4584542E+03  0.7546771E-02  0.1025230E+00
         21   -1    0    0  502  501  0.00000000000E+00  0.00000000000E+00  0.15000702671E+03  0.15000702671E+03  0.00000000000E+00 0. -1.
         21   -1    0    0  501  502 -0.00000000000E+00 -0.00000000000E+00 -0.35028399724E+03  0.35028399724E+03  0.00000000000E+00 0. -1.
      99926    2    1    2    0    0  0.00000000000E+00  0.35527136788E-14 -0.20027697053E+03  0.50029102395E+03  0.45845418934E+03 0.  0.
      99925    2    3    3    0    0  0.75775301118E+02 -0.53325774592E+01 -0.22184556870E+03  0.35236183424E+03  0.26300774368E+03 0.  0.
         25    1    4    4    0    0  0.56796684822E+02 -0.36835353987E+02 -0.99653757921E+02  0.17366947423E+03  0.12509000000E+03 0.  0.
         25    1    4    4    0    0  0.18978616296E+02  0.31502776528E+02 -0.12219181078E+03  0.17869236002E+03  0.12509000000E+03 0.  0.
         25    1    3    3    0    0 -0.75775301118E+02  0.53325774592E+01  0.21568598178E+02  0.14792918971E+03  0.12509000000E+03 0.  0.
<mgrwt>
<rscale>  2 0.45845419E+03</rscale>
<asrwt>0</asrwt>
<pdfrwt beam="1">  1       21 0.22059857E-01 0.45845419E+03</pdfrwt>
<pdfrwt beam="2">  1       21 0.51512352E-01 0.45845419E+03</pdfrwt>
<totfact> 0.63491335E+04</totfact>
</mgrwt>
</event>
<event>
 7    0  0.4709932E-002  0.4536700E+03  0.7546771E-02  0.1026633E+00
         21   -1    0    0  502  501  0.00000000000E+00  0.00000000000E+00  0.63586666861E+02  0.63586666861E+02  0.00000000000E+00 0.  1.
         21   -1    0    0  501  502 -0.00000000000E+00 -0.00000000000E+00 -0.80919663413E+03  0.80919663413E+03  0.00000000000E+00 0.  1.
      99926    2    1    2    0    0  0.71054273576E-14  0.14210854715E-13 -0.74560996727E+03  0.87278330099E+03  0.45366999812E+03 0.  0.
      99925    2    3    3    0    0  0.37914875827E+02  0.10519882390E+03 -0.47580827083E+03  0.55506519660E+03  0.26305803832E+03 0.  0.
         25    1    4    4    0    0 -0.30582253693E+01  0.75811825036E+02 -0.19735762257E+03  0.24567117219E+03  0.12509000000E+03 0.  0.
         25    1    4    4    0    0  0.40973101196E+02  0.29386998862E+02 -0.27845064826E+03  0.30939402441E+03  0.12509000000E+03 0.  0.
         25    1    3    3    0    0 -0.37914875827E+02 -0.10519882390E+03 -0.26980169644E+03  0.31771810440E+03  0.12509000000E+03 0.  0.
<mgrwt>
<rscale>  2 0.45367000E+03</rscale>
<asrwt>0</asrwt>
<pdfrwt beam="1">  1       21 0.93509807E-02 0.45367000E+03</pdfrwt>
<pdfrwt beam="2">  1       21 0.11899950E+00 0.45367000E+03</pdfrwt>
<totfact> 0.44897295E+04</totfact>
</mgrwt>
</event>
<event>
 7    0  0.4709932E-002  0.4563356E+03  0.7546771E-02  0.1025849E+00
         21   -1    0    0  502  501  0.00000000000E+00  0.00000000000E+00  0.16163798898E+04  0.16163798898E+04  0.00000000000E+00 0. -1.
         21   -1    0    0  501  502 -0.00000000000E+00 -0.00000000000E+00 -0.32208115140E+02  0.32208115140E+02  0.00000000000E+00 0. -1.
      99926    2    1    2    0    0  0.00000000000E+00  0.14210854715E-13  0.15841717747E+04  0.16485880050E+04  0.45633562036E+03 0.  0.
      99925    2    3    3    0    0  0.58184198462E+02 -0.83716124364E+02  0.11842527327E+04  0.12173380326E+04  0.26279946778E+03 0.  0.
         25    1    3    3    0    0 -0.58184198462E+02  0.83716124364E+02  0.39991904202E+03  0.43124997240E+03  0.12509000000E+03 0.  0.
         25    1    4    4    0    0  0.38927197188E+02 -0.56711323281E+02  0.77742409345E+03  0.79042218469E+03  0.12509000000E+03 0.  0.
         25    1    4    4    0    0  0.19257001274E+02 -0.27004801083E+02  0.40682863922E+03  0.42691584788E+03  0.12509000000E+03 0.  0.
<mgrwt>
<rscale>  2 0.45633562E+03</rscale>
<asrwt>0</asrwt>
<pdfrwt beam="1">  1       21 0.23770287E+00 0.45633562E+03</pdfrwt>
<pdfrwt beam="2">  1       21 0.47364886E-02 0.45633562E+03</pdfrwt>
<totfact> 0.20144043E+04</totfact>
</mgrwt>
</event>
<event>
 7    0  0.4709932E-002  0.4512674E+03  0.7546771E-02  0.1027345E+00
         21   -1    0    0  502  501  0.00000000000E+00  0.00000000000E+00  0.30772371472E+02  0.30772371472E+02  0.00000000000E+00 0.  1.
         21   -1    0    0  501  502 -0.00000000000E+00 -0.00000000000E+00 -0.16544243264E+04  0.16544243264E+04  0.00000000000E+00 0.  1.
      99926    2    1    2    0    0  0.00000000000E+00  0.14210854715E-13 -0.16236519549E+04  0.16851966979E+04  0.45126737061E+03 0.  0.
      99925    2    3    3    0    0  0.29665325379E+02 -0.10419396842E+03 -0.10880619536E+04  0.11246250502E+04  0.26299481746E+03 0.  0.
         25    1    4    4    0    0  0.20434006234E+02 -0.92257927097E+02 -0.54209264894E+03  0.56430578755E+03  0.12509000000E+03 0.  0.
         25    1    4    4    0    0  0.92313191449E+01 -0.11936041322E+02 -0.54596930469E+03  0.56031926265E+03  0.12509000000E+03 0.  0.
         25    1    3    3    0    0 -0.29665325379E+02  0.10419396842E+03 -0.53559000129E+03  0.56057164766E+03  0.12509000000E+03 0.  0.
<mgrwt>
<rscale>  2 0.45126737E+03</rscale>
<asrwt>0</asrwt>
<pdfrwt beam="1">  1       21 0.45253488E-02 0.45126737E+03</pdfrwt>
<pdfrwt beam="2">  1       21 0.24329769E+00 0.45126737E+03</pdfrwt>
<totfact> 0.20148984E+04</totfact>
</mgrwt>
</event>
<event>
 7    0  0.4709932E-002  0.4610701E+03  0.7546771E-02  0.1024471E+00
         21   -1    0    0  502  501  0.00000000000E+00  0.00000000000E+00  0.10477967797E+04  0.10477967797E+04  0.00000000000E+00 0.  1.
         21   -1    0    0  501  502 -0.00000000000E+00 -0.00000000000E+00 -0.50722054950E+02  0.50722054950E+02  0.00000000000E+00 0.  1.
      99926    2    1    2    0    0  0.00000000000E+00  0.00000000000E+00  0.99707472477E+03  0.10985188347E+04  0.46107008507E+03 0.  0.
      99925    2    3    3    0    0 -0.36557568901E+02  0.80105002470E+02  0.43426497334E+03  0.51529024169E+03  0.26302984402E+03 0.  0.
         25    1    4    4    0    0 -0.18840582262E+02  0.59370639227E+01  0.15707948310E+03  0.20177137651E+03  0.12509000000E+03 0.  0.
         25    1    4    4    0    0 -0.17716986638E+02  0.74167938548E+02  0.27718549024E+03  0.31351886518E+03  0.12509000000E+03 0.  0.
         25    1    3    3    0    0  0.36557568901E+02 -0.80105002470E+02  0.56280975142E+03  0.58322859297E+03  0.12509000000E+03 0.  0.
<mgrwt>
<rscale>  2 0.46107009E+03</rscale>
<asrwt>0</asrwt>
<pdfrwt beam="1">  1       21 0.15408775E+00 0.46107009E+03</pdfrwt>
<pdfrwt beam="2">  1       21 0.74591264E-02 0.46107009E+03</pdfrwt>
<totfact> 0.33911139E+04</totfact>
</mgrwt>
</event>
<event>
 7    0  0.4709932E-002  0.4537211E+03  0.7546771E-02  0.1026618E+00
         21   -1    0    0  502  501  0.00000000000E+00  0.00000000000E+00  0.72973559228E+02  0.72973559228E+02  0.00000000000E+00 0.  1.
         21   -1    0    0  501  502 -0.00000000000E+00 -0.00000000000E+00 -0.70526512749E+03  0.70526512749E+03  0.00000000000E+00 0.  1.
      99926    2    1    2    0    0  0.00000000000E+00  0.00000000000E+00 -0.63229156826E+03  0.77823868671E+03  0.45372108856E+03 0.  0.
      99925    2    3    3    0    0 -0.14066846787E+02 -0.71787746802E+02 -0.54311218669E+03  0.60808632274E+03  0.26352755416E+03 0.  0.
         25    1    4    4    0    0  0.61412659435E+01 -0.19199849092E+01 -0.30113554617E+03  0.32614648052E+03  0.12509000000E+03 0.  0.
         25    1    4    4    0    0 -0.20208112731E+02 -0.69867761893E+02 -0.24197664052E+03  0.28193984222E+03  0.12509000000E+03 0.  0.
         25    1    3    3    0    0  0.14066846787E+02  0.71787746802E+02 -0.89179381567E+02  0.17015236397E+03  0.12509000000E+03 0.  0.
<mgrwt>
<rscale>  2 0.45372109E+03</rscale>
<asrwt>0</asrwt>
<pdfrwt beam="1">  1       21 0.10731406E-01 0.45372109E+03</pdfrwt>
<pdfrwt beam="2">  1       21 0.10371545E+00 0.45372109E+03</pdfrwt>
<totfact> 0.49328759E+04</totfact>
</mgrwt>
</event>
<event>
 7    0  0.4709932E-002  0.4523837E+03  0.7546771E-02  0.1027014E+00
         21   -1    0    0  502  501  0.00000000000E+00  0.00000000000E+00  0.89684988500E+03  0.89684988500E+03  0.00000000000E+00 0. -1.
         21   -1    0    0  501  502 -0.00000000000E+00 -0.00000000000E+00 -0.57047170648E+02  0.57047170648E+02  0.00000000000E+00 0. -1.
      99926    2    1    2    0    0 -0.35527136788E-14  0.00000000000E+00  0.83980271436E+03  0.95389705565E+03  0.45238367979E+03 0.  0.
      99925    2    3    3    0    0  0.19375349859E+02 -0.72320151504E+02  0.35820455067E+03  0.45071725890E+03  0.26311582783E+03 0.  0.
         25    1    4    4    0    0 -0.12825585559E+02 -0.24816035479E+02  0.22636217919E+03  0.26013011269E+03  0.12509000000E+03 0.  0.
         25    1    3    3    0    0 -0.19375349859E+02  0.72320151504E+02  0.48159816368E+03  0.50317979675E+03  0.12509000000E+03 0.  0.
         25    1    4    4    0    0  0.32200935418E+02 -0.47504116026E+02  0.13184237148E+03  0.19058714620E+03  0.12509000000E+03 0.  0.
<mgrwt>
<rscale>  2 0.45238368E+03</rscale>
<asrwt>0</asrwt>
<pdfrwt beam="1">  1       21 0.13188968E+00 0.45238368E+03</pdfrwt>
<pdfrwt beam="2">  1       21 0.83892903E-02 0.45238368E+03</pdfrwt>
<totfact> 0.41832699E+04</totfact>
</mgrwt>
</event>
<event>
 7    0  0.4709932E-002  0.4422063E+03  0.7546771E-02  0.1030072E+00
         21   -1    0    0  502  501  0.00000000000E+00  0.00000000000E+00  0.42003085522E+03  0.42003085522E+03  0.00000000000E+00 0.  1.
         21   -1    0    0  501  502 -0.00000000000E+00 -0.00000000000E+00 -0.11638809901E+03  0.11638809901E+03  0.00000000000E+00 0.  1.
      99926    2    1    2    0    0  0.00000000000E+00  0.14210854715E-13  0.30364275621E+03  0.53641895423E+03  0.44220625398E+03 0.  0.
      99925    2    3    3    0    0  0.23874623502E+02 -0.67983581521E+02  0.10797095400E+03  0.29325907414E+03  0.26296652383E+03 0.  0.
         25    1    3    3    0    0 -0.23874623502E+02  0.67983581521E+02  0.19567180220E+03  0.24315988008E+03  0.12509000000E+03 0.  0.
         25    1    4    4    0    0  0.18656149334E+02 -0.15798959955E+02  0.90899301846E+02  0.15654983302E+03  0.12509000000E+03 0.  0.
         25    1    4    4    0    0  0.52184741677E+01 -0.52184621565E+02  0.17071652155E+02  0.13670924112E+03  0.12509000000E+03 0.  0.
<mgrwt>
<rscale>  2 0.44220625E+03</rscale>
<asrwt>0</asrwt>
<pdfrwt beam="1">  1       21 0.61769243E-01 0.44220625E+03</pdfrwt>
<pdfrwt beam="2">  1       21 0.17115897E-01 0.44220625E+03</pdfrwt>
<totfact> 0.69552581E+04</totfact>
</mgrwt>
</event>
<event>
 7    0  0.4709932E-002  0.4511209E+03  0.7546771E-02  0.1027388E+00
         21   -1    0    0  502  501  0.00000000000E+00  0.00000000000E+00  0.52126357649E+02  0.52126357649E+02  0.00000000000E+00 0.  1.
         21   -1    0    0  501  502 -0.00000000000E+00 -0.00000000000E+00 -0.97604205106E+03  0.97604205106E+03  0.00000000000E+00 0.  1.
      99926    2    1    2    0    0  0.00000000000E+00 -0.14210854715E-13 -0.92391569341E+03  0.10281684087E+04  0.45112090190E+03 0.  0.
      99925    2    3    3    0    0  0.54557893498E+01 -0.74757780401E+02 -0.40081548677E+03  0.48512160993E+03  0.26281444143E+03 0.  0.
         25    1    4    4    0    0  0.53240201511E+00 -0.69106709529E+02 -0.16666649348E+03  0.21954782828E+03  0.12509000000E+03 0.  0.
         25    1    3    3    0    0 -0.54557893498E+01  0.74757780401E+02 -0.52310020664E+03  0.54304679877E+03  0.12509000000E+03 0.  0.
         25    1    4    4    0    0  0.49233873347E+01 -0.56510708720E+01 -0.23414899328E+03  0.26557378165E+03  0.12509000000E+03 0.  0.
<mgrwt>
<rscale>  2 0.45112090E+03</rscale>
<asrwt>0</asrwt>
<pdfrwt beam="1">  1       21 0.76656413E-02 0.45112090E+03</pdfrwt>
<pdfrwt beam="2">  1       21 0.14353559E+00 0.45112090E+03</pdfrwt>
<totfact> 0.39264490E+04</totfact>
</mgrwt>
</event>
<event>
 7    0  0.4709932E-002  0.4561076E+03  0.7546771E-02  0.1025916E+00
         21   -1    0    0  502  501  0.00000000000E+00  0.00000000000E+00  0.59513969517E+03  0.59513969517E+03  0.00000000000E+00 0.  1.
         21   -1    0    0  501  502 -0.00000000000E+00 -0.00000000000E+00 -0.87388779306E+02  0.87388779306E+02  0.00000000000E+00 0.  1.
      99926    2    1    2    0    0  0.00000000000E+00  0.00000000000E+00  0.50775091586E+03  0.68252847447E+03  0.45610758151E+03 0.  0.
      99925    2    3    3    0    0  0.34301696424E+02 -0.10132429042E+03  0.25967612735E+03  0.38481749550E+03  0.26307716648E+03 0.  0.
         25    1    4    4    0    0  0.55320219571E+01 -0.79851848713E+02  0.10099220997E+03  0.17959358448E+03  0.12509000000E+03 0.  0.
         25    1    4    4    0    0  0.28769674467E+02 -0.21472441704E+02  0.15868391738E+03  0.20522391102E+03  0.12509000000E+03 0.  0.
         25    1    3    3    0    0 -0.34301696424E+02  0.10132429042E+03  0.24807478851E+03  0.29771097897E+03  0.12509000000E+03 0.  0.
<mgrwt>
<rscale>  2 0.45610758E+03</rscale>
<asrwt>0</asrwt>
<pdfrwt beam="1">  1       21 0.87520541E-01 0.45610758E+03</pdfrwt>
<pdfrwt beam="2">  1       21 0.12851291E-01 0.45610758E+03</pdfrwt>
<totfact> 0.53395001E+04</totfact>
</mgrwt>
</event>
<event>
 7    0  0.4709932E-002  0.4589946E+03  0.7546771E-02  0.1025073E+00
         21   -1    0    0  502  501  0.00000000000E+00  0.00000000000E+00  0.50816062001E+03  0.50816062001E+03  0.00000000000E+00 0.  1.
         21   -1    0    0  501  502 -0.00000000000E+00 -0.00000000000E+00 -0.10364636536E+03  0.10364636536E+03  0.00000000000E+00 0.  1.
      99926    2    1    2    0    0  0.00000000000E+00  0.17763568394E-14  0.40451425465E+03  0.61180698538E+03  0.45899455894E+03 0.  0.
      99925    2    3    3    0    0 -0.83872965980E+02 -0.89730915673E+01  0.36146374143E+03  0.45491197085E+03  0.26300888589E+03 0.  0.
         25    1    3    3    0    0  0.83872965980E+02  0.89730915673E+01  0.43050513217E+02  0.15689501453E+03  0.12509000000E+03 0.  0.
         25    1    4    4    0    0 -0.19245072766E+02 -0.30984253285E+02  0.20836597625E+03  0.24575248714E+03  0.12509000000E+03 0.  0.
         25    1    4    4    0    0 -0.64627893215E+02  0.22011161717E+02  0.15309776519E+03  0.20915948371E+03  0.12509000000E+03 0.  0.
<mgrwt>
<rscale>  2 0.45899456E+03</rscale>
<asrwt>0</asrwt>
<pdfrwt beam="1">  1       21 0.74729502E-01 0.45899456E+03</pdfrwt>
<pdfrwt beam="2">  1       21 0.15242113E-01 0.45899456E+03</pdfrwt>
<totfact> 0.56164176E+04</totfact>
</mgrwt>
</event>
<event>
 7    0  0.4709932E-002  0.4579906E+03  0.7546771E-02  0.1025366E+00
         21   -1    0    0  502  501  0.00000000000E+00  0.00000000000E+00  0.20095832485E+03  0.20095832485E+03  0.00000000000E+00 0. -1.
         21   -1    0    0  501  502 -0.00000000000E+00 -0.00000000000E+00 -0.26094386727E+03  0.26094386727E+03  0.00000000000E+00 0. -1.
      99926    2    1    2    0    0 -0.71054273576E-14  0.00000000000E+00 -0.59985542420E+02  0.46190219211E+03  0.45799057826E+03 0.  0.
      99925    2    3    3    0    0  0.39520000744E+02  0.10736867016E+03 -0.18732401854E+02  0.28743388124E+03  0.26301610486E+03 0.  0.
         25    1    3    3    0    0 -0.39520000744E+02 -0.10736867016E+03 -0.41253140566E+02  0.17446831087E+03  0.12509000000E+03 0.  0.
         25    1    4    4    0    0  0.23241022329E+02  0.14561780267E+02 -0.25937552834E+02  0.13066160611E+03  0.12509000000E+03 0.  0.
         25    1    4    4    0    0  0.16278978415E+02  0.92806889895E+02  0.72051509803E+01  0.15677227513E+03  0.12509000000E+03 0.  0.
<mgrwt>
<rscale>  2 0.45799058E+03</rscale>
<asrwt>0</asrwt>
<pdfrwt beam="1">  1       21 0.29552695E-01 0.45799058E+03</pdfrwt>
<pdfrwt beam="2">  1       21 0.38374098E-01 0.45799058E+03</pdfrwt>
<totfact> 0.66443324E+04</totfact>
</mgrwt>
</event>
<event>
 7    0  0.4709932E-002  0.4548564E+03  0.7546771E-02  0.1026284E+00
         21   -1    0    0  502  501  0.00000000000E+00  0.00000000000E+00  0.33993057271E+03  0.33993057271E+03  0.00000000000E+00 0. -1.
         21   -1    0    0  501  502 -0.00000000000E+00 -0.00000000000E+00 -0.15215928892E+03  0.15215928892E+03  0.00000000000E+00 0. -1.
      99926    2    1    2    0    0  0.00000000000E+00  0.17763568394E-14  0.18777128378E+03  0.49208986163E+03  0.45485643549E+03 0.  0.
      99925    2    3    3    0    0 -0.11238307923E+03  0.85540600492E+01  0.10968234803E+03  0.30648674089E+03  0.26306040453E+03 0.  0.
         25    1    3    3    0    0  0.11238307923E+03 -0.85540600492E+01  0.78088935752E+02  0.18560312074E+03  0.12509000000E+03 0.  0.
         25    1    4    4    0    0 -0.47137320611E+02  0.25511599228E+02  0.17748685931E+02  0.13724173069E+03  0.12509000000E+03 0.  0.
         25    1    4    4    0    0 -0.65245758616E+02 -0.16957539179E+02  0.91933662100E+02  0.16924501021E+03  0.12509000000E+03 0.  0.
<mgrwt>
<rscale>  2 0.45485644E+03</rscale>
<asrwt>0</asrwt>
<pdfrwt beam="1">  1       21 0.49989790E-01 0.45485644E+03</pdfrwt>
<pdfrwt beam="2">  1       21 0.22376366E-01 0.45485644E+03</pdfrwt>
<totfact> 0.65905099E+04</totfact>
</mgrwt>
</event>
<event>
 7    0  0.4709932E-002  0.4515961E+03  0.7546771E-02  0.1027247E+00
         21   -1    0    0  502  501  0.00000000000E+00  0.00000000000E+00  0.23702579043E+02  0.23702579043E+02  0.00000000000E+00 0.  1.
         21   -1    0    0  501  502 -0.00000000000E+00 -0.00000000000E+00 -0.21510216449E+04  0.21510216449E+04  0.00000000000E+00 0.  1.
      99926    2    1    2    0    0  0.00000000000E+00  0.00000000000E+00 -0.21273190659E+04  0.21747242240E+04  0.45159610522E+03 0.  0.
      99925    2    3    3    0    0  0.60741026022E+02  0.48122136771E+02 -0.96716357622E+03  0.10052741478E+04  0.26299337794E+03 0.  0.
         25    1    4    4    0    0  0.71639843401E+01 -0.10166447829E+02 -0.47220164886E+03  0.48864771013E+03  0.12509000000E+03 0.  0.
         25    1    4    4    0    0  0.53577041682E+02  0.58288584600E+02 -0.49496192737E+03  0.51662643770E+03  0.12509000000E+03 0.  0.
         25    1    3    3    0    0 -0.60741026022E+02 -0.48122136771E+02 -0.11601554897E+04  0.11694500761E+04  0.12509000000E+03 0.  0.
<mgrwt>
<rscale>  2 0.45159611E+03</rscale>
<asrwt>0</asrwt>
<pdfrwt beam="1">  1       21 0.34856724E-02 0.45159611E+03</pdfrwt>
<pdfrwt beam="2">  1       21 0.31632680E+00 0.45159611E+03</pdfrwt>
<totfact> 0.11358515E+04</totfact>
</mgrwt>
</event>
<event>
 7    0  0.4709932E-002  0.4565660E+03  0.7546771E-02  0.1025782E+00
         21   -1    0    0  502  501  0.00000000000E+00  0.00000000000E+00  0.46339974471E+03  0.46339974471E+03  0.00000000000E+00 0. -1.
         21   -1    0    0  501  502 -0.00000000000E+00 -0.00000000000E+00 -0.11245824996E+03  0.11245824996E+03  0.00000000000E+00 0. -1.
      99926    2    1    2    0    0  0.14210854715E-13 -0.71054273576E-14  0.35094149475E+03  0.57585799467E+03  0.45656598350E+03 0.  0.
      99925    2    3    3    0    0  0.90520019500E+02 -0.62038305358E+02  0.26228938350E+03  0.38731269456E+03  0.26300718130E+03 0.  0.
         25    1    4    4    0    0  0.66960027738E+02  0.30815138369E+01  0.13540744689E+03  0.19615255750E+03  0.12509000000E+03 0.  0.
         25    1    3    3    0    0 -0.90520019500E+02  0.62038305358E+02  0.88652111257E+02  0.18854530011E+03  0.12509000000E+03 0.  0.
         25    1    4    4    0    0  0.23559991762E+02 -0.65119819195E+02  0.12688193661E+03  0.19116013706E+03  0.12509000000E+03 0.  0.
<mgrwt>
<rscale>  2 0.45656598E+03</rscale>
<asrwt>0</asrwt>
<pdfrwt beam="1">  1       21 0.68147021E-01 0.45656598E+03</pdfrwt>
<pdfrwt beam="2">  1       21 0.16537978E-01 0.45656598E+03</pdfrwt>
<totfact> 0.59449921E+04</totfact>
</mgrwt>
</event>
<event>
 7    0  0.4709932E-002  0.4563747E+03  0.7546771E-02  0.1025838E+00
         21   -1    0    0  502  501  0.00000000000E+00  0.00000000000E+00  0.56331732325E+03  0.56331732325E+03  0.00000000000E+00 0.  1.
         21   -1    0    0  501  502 -0.00000000000E+00 -0.00000000000E+00 -0.92433649933E+02  0.92433649933E+02  0.00000000000E+00 0.  1.
      99926    2    1    2    0    0  0.00000000000E+00  0.71054273576E-14  0.47088367332E+03  0.65575097319E+03  0.45637474189E+03 0.  0.
      99925    2    3    3    0    0  0.10047518845E+03 -0.53538473365E+02  0.27895861572E+03  0.39993000560E+03  0.26299138478E+03 0.  0.
         25    1    3    3    0    0 -0.10047518845E+03  0.53538473365E+02  0.19192505760E+03  0.25582096759E+03  0.12509000000E+03 0.  0.
         25    1    4    4    0    0  0.18896483853E+02 -0.17185028172E+01  0.10090467957E+03  0.16183106257E+03  0.12509000000E+03 0.  0.
         25    1    4    4    0    0  0.81578704595E+02 -0.51819970548E+02  0.17805393616E+03  0.23809894303E+03  0.12509000000E+03 0.  0.
<mgrwt>
<rscale>  2 0.45637474E+03</rscale>
<asrwt>0</asrwt>
<pdfrwt beam="1">  1       21 0.82840781E-01 0.45637474E+03</pdfrwt>
<pdfrwt beam="2">  1       21 0.13593184E-01 0.45637474E+03</pdfrwt>
<totfact> 0.54775028E+04</totfact>
</mgrwt>
</event>
<event>
 6    0  0.4709932E-002  0.4503214E+03  0.7546771E-02  0.1027626E+00
         21   -1    0    0  502  501  0.00000000000E+00  0.00000000000E+00  0.91801972412E+03  0.91801972412E+03  0.00000000000E+00 0.  1.
         21   -1    0    0  501  502 -0.00000000000E+00 -0.00000000000E+00 -0.55224686155E+02  0.55224686155E+02  0.00000000000E+00 0.  1.
      99926    2    1    2    0    0  0.00000000000E+00  0.26645352591E-14  0.86279503796E+03  0.97324441027E+03  0.45032144585E+03 0.  0.
         25    1    3    3    0    0  0.53771741102E+02  0.24366923806E+02  0.13329115279E+03  0.19209160999E+03  0.12509000000E+03 0.  0.
         25    1    3    3    0    0  0.24748789455E+02 -0.21847789352E+02  0.29172692487E+03  0.31912683258E+03  0.12509000000E+03 0.  0.
         25    1    3    3    0    0 -0.78520530558E+02 -0.25191344539E+01  0.43777696031E+03  0.46202596771E+03  0.12509000000E+03 0.  0.
<mgrwt>
<rscale>  2 0.45032145E+03</rscale>
<asrwt>0</asrwt>
<pdfrwt beam="1">  1       21 0.13500289E+00 0.45032145E+03</pdfrwt>
<pdfrwt beam="2">  1       21 0.81212779E-02 0.45032145E+03</pdfrwt>
<totfact> 0.41718702E+04</totfact>
</mgrwt>
</event>
<event>
 7    0  0.4709932E-002  0.4364120E+03  0.7546771E-02  0.1031853E+00
         21   -1    0    0  502  501  0.00000000000E+00  0.00000000000E+00  0.30964879755E+03  0.30964879755E+03  0.00000000000E+00 0. -1.
         21   -1    0    0  501  502 -0.00000000000E+00 -0.00000000000E+00 -0.15376726889E+03  0.15376726889E+03  0.00000000000E+00 0. -1.
      99926    2    1    2    0    0  0.00000000000E+00  0.53290705182E-14  0.15588152866E+03  0.46341606644E+03  0.43641196095E+03 0.  0.
      99925    2    3    3    0    0 -0.92281334687E+02  0.15534603026E+02  0.11069916590E+03  0.30079342771E+03  0.26356253945E+03 0.  0.
         25    1    4    4    0    0 -0.77559768108E+02 -0.18826848247E+02  0.47931400646E+02  0.15593234146E+03  0.12509000000E+03 0.  0.
         25    1    3    3    0    0  0.92281334687E+02 -0.15534603026E+02  0.45182362761E+02  0.16262263873E+03  0.12509000000E+03 0.  0.
         25    1    4    4    0    0 -0.14721566579E+02  0.34361451273E+02  0.62767765253E+02  0.14486108625E+03  0.12509000000E+03 0.  0.
<mgrwt>
<rscale>  2 0.43641196E+03</rscale>
<asrwt>0</asrwt>
<pdfrwt beam="1">  1       21 0.45536588E-01 0.43641196E+03</pdfrwt>
<pdfrwt beam="2">  1       21 0.22612834E-01 0.43641196E+03</pdfrwt>
<totfact> 0.78946366E+04</totfact>
</mgrwt>
</event>
<event>
 7    0  0.4709932E-002  0.4581333E+03  0.7546771E-02  0.1025324E+00
         21   -1    0    0  502  501  0.00000000000E+00  0.00000000000E+00  0.20298450802E+03  0.20298450802E+03  0.00000000000E+00 0.  1.
         21   -1    0    0  501  502 -0.00000000000E+00 -0.00000000000E+00 -0.25850016705E+03  0.25850016705E+03  0.00000000000E+00 0.  1.
      99926    2    1    2    0    0  0.00000000000E+00  0.14210854715E-13 -0.55515659038E+02  0.46148467507E+03  0.45813329603E+03 0.  0.
      99925    2    3    3    0    0  0.21031486044E+02 -0.89841417305E+02 -0.10523439840E+03  0.29828766281E+03  0.26341497207E+03 0.  0.
         25    1    4    4    0    0  0.30263044823E+02 -0.70152646909E+02 -0.85801625535E+02  0.16984308286E+03  0.12509000000E+03 0.  0.
         25    1    4    4    0    0 -0.92315587783E+01 -0.19688770396E+02 -0.19432772861E+02  0.12844457995E+03  0.12509000000E+03 0.  0.
         25    1    3    3    0    0 -0.21031486044E+02  0.89841417305E+02  0.49718739358E+02  0.16319701226E+03  0.12509000000E+03 0.  0.
<mgrwt>
<rscale>  2 0.45813330E+03</rscale>
<asrwt>0</asrwt>
<pdfrwt beam="1">  1       21 0.29850663E-01 0.45813330E+03</pdfrwt>
<pdfrwt beam="2">  1       21 0.38014730E-01 0.45813330E+03</pdfrwt>
<totfact> 0.66397745E+04</totfact>
</mgrwt>
</event>
<event>
 7    0  0.4709932E-002  0.4517995E+03  0.7546771E-02  0.1027187E+00
         21   -1    0    0  502  501  0.00000000000E+00  0.00000000000E+00  0.11864937346E+03  0.11864937346E+03  0.00000000000E+00 0. -1.
         21   -1    0    0  501  502 -0.00000000000E+00 -0.00000000000E+00 -0.43009655087E+03  0.43009655087E+03  0.00000000000E+00 0. -1.
      99926    2    1    2    0    0  0.00000000000E+00  0.35527136788E-14 -0.31144717741E+03  0.54874592433E+03  0.45179945236E+03 0.  0.
      99925    2    3    3    0    0  0.10881455261E+03 -0.13536817176E+02 -0.18405626277E+03  0.33922312005E+03  0.26300525667E+03 0.  0.
         25    1    3    3    0    0 -0.10881455261E+03  0.13536817176E+02 -0.12739091464E+03  0.20952280428E+03  0.12509000000E+03 0.  0.
         25    1    4    4    0    0  0.48506880628E+02  0.17166710069E+02 -0.12839967033E+03  0.18649824891E+03  0.12509000000E+03 0.  0.
         25    1    4    4    0    0  0.60307671985E+02 -0.30703527245E+02 -0.55656592438E+02  0.15272487115E+03  0.12509000000E+03 0.  0.
<mgrwt>
<rscale>  2 0.45179945E+03</rscale>
<asrwt>0</asrwt>
<pdfrwt beam="1">  1       21 0.17448437E-01 0.45179945E+03</pdfrwt>
<pdfrwt beam="2">  1       21 0.63249493E-01 0.45179945E+03</pdfrwt>
<totfact> 0.63543348E+04</totfact>
</mgrwt>
</event>
<event>
 7    0  0.4709932E-002  0.4770888E+03  0.7546771E-02  0.1019938E+00
         21   -1    0    0  502  501  0.00000000000E+00  0.00000000000E+00  0.14115555607E+03  0.14115555607E+03  0.00000000000E+00 0. -1.
         21   -1    0    0  501  502 -0.00000000000E+00 -0.00000000000E+00 -0.40312565451E+03  0.40312565451E+03  0.00000000000E+00 0. -1.
      99926    2    1    2    0    0  0.14210854715E-13 -0.35527136788E-14 -0.26197009844E+03  0.54428121058E+03  0.47708877970E+03 0.  0.
      99925    2    3    3    0    0  0.11148127575E+03 -0.12195117438E+02 -0.24275465996E+03  0.37518497494E+03  0.26316752222E+03 0.  0.
         25    1    4    4    0    0  0.56595324828E+02 -0.26035339503E+02 -0.16911911809E+03  0.21938471665E+03  0.12509000000E+03 0.  0.
         25    1    3    3    0    0 -0.11148127575E+03  0.12195117438E+02 -0.19215438474E+02  0.16909623564E+03  0.12509000000E+03 0.  0.
         25    1    4    4    0    0  0.54885950924E+02  0.13840222065E+02 -0.73635541870E+02  0.15580025829E+03  0.12509000000E+03 0.  0.
<mgrwt>
<rscale>  2 0.47708878E+03</rscale>
<asrwt>0</asrwt>
<pdfrwt beam="1">  1       21 0.20758170E-01 0.47708878E+03</pdfrwt>
<pdfrwt beam="2">  1       21 0.59283184E-01 0.47708878E+03</pdfrwt>
<totfact> 0.52448485E+04</totfact>
</mgrwt>
</event>
<event>
 7    0  0.4709932E-002  0.4552208E+03  0.7546771E-02  0.1026176E+00
         21   -1    0    0  502  501  0.00000000000E+00  0.00000000000E+00  0.35136977527E+03  0.35136977527E+03  0.00000000000E+00 0.  1.
         21   -1    0    0  501  502 -0.00000000000E+00 -0.00000000000E+00 -0.14744151786E+03  0.14744151786E+03  0.00000000000E+00 0.  1.
      99926    2    1    2    0    0  0.00000000000E+00  0.00000000000E+00  0.20392825741E+03  0.49881129314E+03  0.45522079477E+03 0.  0.
      99925    2    3    3    0    0 -0.92779697300E+02  0.53245997142E+02  0.84030754097E+02  0.29517895817E+03  0.26196610710E+03 0.  0.
         25    1    4    4    0    0 -0.11928954225E+02  0.25829746367E+02  0.16439225664E+02  0.12933380064E+03  0.12509000000E+03 0.  0.
         25    1    4    4    0    0 -0.80850743075E+02  0.27416250775E+02  0.67591528433E+02  0.16584515754E+03  0.12509000000E+03 0.  0.
         25    1    3    3    0    0  0.92779697300E+02 -0.53245997142E+02  0.11989750331E+03  0.20363233496E+03  0.12509000000E+03 0.  0.
<mgrwt>
<rscale>  2 0.45522079E+03</rscale>
<asrwt>0</asrwt>
<pdfrwt beam="1">  1       21 0.51672026E-01 0.45522079E+03</pdfrwt>
<pdfrwt beam="2">  1       21 0.21682576E-01 0.45522079E+03</pdfrwt>
<totfact> 0.65239829E+04</totfact>
</mgrwt>
</event>
<event>
 7    0  0.4709932E-002  0.4457929E+03  0.7546771E-02  0.1028984E+00
         21   -1    0    0  502  501  0.00000000000E+00  0.00000000000E+00  0.58933909839E+02  0.58933909839E+02  0.00000000000E+00 0. -1.
         21   -1    0    0  501  502 -0.00000000000E+00 -0.00000000000E+00 -0.84302609805E+03  0.84302609805E+03  0.00000000000E+00 0. -1.
      99926    2    1    2    0    0  0.00000000000E+00 -0.35527136788E-14 -0.78409218821E+03  0.90196000789E+03  0.44579288489E+03 0.  0.
      99925    2    3    3    0    0  0.18088229912E+02  0.26094521768E+02 -0.29625208158E+03  0.39733778695E+03  0.26287623128E+03 0.  0.
         25    1    4    4    0    0  0.43316536567E+02 -0.64509453030E+01 -0.13569857887E+03  0.18968276000E+03  0.12509000000E+03 0.  0.
         25    1    4    4    0    0 -0.25228306655E+02  0.32545467071E+02 -0.16055350272E+03  0.20765502695E+03  0.12509000000E+03 0.  0.
         25    1    3    3    0    0 -0.18088229912E+02 -0.26094521768E+02 -0.48784010663E+03  0.50462222094E+03  0.12509000000E+03 0.  0.
<mgrwt>
<rscale>  2 0.44579288E+03</rscale>
<asrwt>0</asrwt>
<pdfrwt beam="1">  1       21 0.86667524E-02 0.44579288E+03</pdfrwt>
<pdfrwt beam="2">  1       21 0.12397441E+00 0.44579288E+03</pdfrwt>
<totfact> 0.46403479E+04</totfact>
</mgrwt>
</event>
<event>
 7    0  0.4709932E-002  0.4561435E+03  0.7546771E-02  0.1025906E+00
         21   -1    0    0  502  501  0.00000000000E+00  0.00000000000E+00  0.10754662082E+04  0.10754662082E+04  0.00000000000E+00 0.  1.
         21   -1    0    0  501  502 -0.00000000000E+00 -0.00000000000E+00 -0.48366678931E+02  0.48366678931E+02  0.00000000000E+00 0.  1.
      99926    2    1    2    0    0  0.00000000000E+00 -0.14210854715E-13  0.10270995293E+04  0.11238328872E+04  0.45614352476E+03 0.  0.
      99925    2    3    3    0    0 -0.61314939381E+02  0.75775448936E+02  0.79255684483E+03  0.84070885182E+03  0.26295167006E+03 0.  0.
         25    1    4    4    0    0 -0.37863334453E+02  0.70060826034E+02  0.50212902176E+03  0.52356777406E+03  0.12509000000E+03 0.  0.
         25    1    3    3    0    0  0.61314939381E+02 -0.75775448936E+02  0.23454268448E+03  0.28312403536E+03  0.12509000000E+03 0.  0.
         25    1    4    4    0    0 -0.23451604928E+02  0.57146229019E+01  0.29042782307E+03  0.31714107776E+03  0.12509000000E+03 0.  0.
<mgrwt>
<rscale>  2 0.45614352E+03</rscale>
<asrwt>0</asrwt>
<pdfrwt beam="1">  1       21 0.15815678E+00 0.45614352E+03</pdfrwt>
<pdfrwt beam="2">  1       21 0.71127476E-02 0.45614352E+03</pdfrwt>
<totfact> 0.34360794E+04</totfact>
</mgrwt>
</event>
<event>
 7    0  0.4709932E-002  0.4631363E+03  0.7546771E-02  0.1023876E+00
         21   -1    0    0  502  501  0.00000000000E+00  0.00000000000E+00  0.52167848004E+03  0.52167848004E+03  0.00000000000E+00 0.  1.
         21   -1    0    0  501  502 -0.00000000000E+00 -0.00000000000E+00 -0.10279092756E+03  0.10279092756E+03  0.00000000000E+00 0.  1.
      99926    2    1    2    0    0  0.00000000000E+00  0.00000000000E+00  0.41888755248E+03  0.62446940760E+03  0.46313632918E+03 0.  0.
      99925    2    3    3    0    0 -0.26984683834E+02  0.11746007382E+03  0.27378569054E+03  0.39813536124E+03  0.26273202969E+03 0.  0.
         25    1    4    4    0    0  0.35670597211E+01  0.45283681114E+02  0.82745025048E+02  0.15670859249E+03  0.12509000000E+03 0.  0.
         25    1    3    3    0    0  0.26984683834E+02 -0.11746007382E+03  0.14510186194E+03  0.22633404636E+03  0.12509000000E+03 0.  0.
         25    1    4    4    0    0 -0.30551743555E+02  0.72176392704E+02  0.19104066549E+03  0.24142676875E+03  0.12509000000E+03 0.  0.
<mgrwt>
<rscale>  2 0.46313633E+03</rscale>
<asrwt>0</asrwt>
<pdfrwt beam="1">  1       21 0.76717422E-01 0.46313633E+03</pdfrwt>
<pdfrwt beam="2">  1       21 0.15116313E-01 0.46313633E+03</pdfrwt>
<totfact> 0.53665205E+04</totfact>
</mgrwt>
</event>
<event>
 7    0  0.4709932E-002  0.4534511E+03  0.7546771E-02  0.1026698E+00
         21   -1    0    0  502  501  0.00000000000E+00  0.00000000000E+00  0.22824339672E+03  0.22824339672E+03  0.00000000000E+00 0. -1.
         21   -1    0    0  501  502 -0.00000000000E+00 -0.00000000000E+00 -0.22521777115E+03  0.22521777115E+03  0.00000000000E+00 0. -1.
      99926    2    1    2    0    0  0.00000000000E+00  0.00000000000E+00  0.30256255756E+01  0.45346116787E+03  0.45345107383E+03 0.  0.
      99925    2    3    3    0    0  0.70781617268E+02  0.27226419442E+02 -0.80236866612E+02  0.28514163257E+03  0.26290013427E+03 0.  0.
         25    1    4    4    0    0  0.11295333567E+02 -0.17376909532E+02 -0.51267762939E+02  0.13676780748E+03  0.12509000000E+03 0.  0.
         25    1    3    3    0    0 -0.70781617268E+02 -0.27226419442E+02  0.83262492187E+02  0.16831953530E+03  0.12509000000E+03 0.  0.
         25    1    4    4    0    0  0.59486283700E+02  0.44603328974E+02 -0.28969103673E+02  0.14837382509E+03  0.12509000000E+03 0.  0.
<mgrwt>
<rscale>  2 0.45345107E+03</rscale>
<asrwt>0</asrwt>
<pdfrwt beam="1">  1       21 0.33565205E-01 0.45345107E+03</pdfrwt>
<pdfrwt beam="2">  1       21 0.33120261E-01 0.45345107E+03</pdfrwt>
<totfact> 0.69513815E+04</totfact>
</mgrwt>
</event>
<event>
 7    0  0.4709932E-002  0.4450097E+03  0.7546771E-02  0.1029221E+00
         21   -1    0    0  502  501  0.00000000000E+00  0.00000000000E+00  0.56302288009E+03  0.56302288009E+03  0.00000000000E+00 0. -1.
         21   -1    0    0  501  502 -0.00000000000E+00 -0.00000000000E+00 -0.87933215597E+02  0.87933215597E+02  0.00000000000E+00 0. -1.
      99926    2    1    2    0    0  0.00000000000E+00  0.00000000000E+00  0.47508966449E+03  0.65095609568E+03  0.44500971810E+03 0.  0.
      99925    2    3    3    0    0  0.18655332930E+02  0.88316297681E+02  0.22740720867E+03  0.35916525124E+03  0.26294077139E+03 0.  0.
         25    1    3    3    0    0 -0.18655332930E+02 -0.88316297681E+02  0.24768245582E+03  0.29179084445E+03  0.12509000000E+03 0.  0.
         25    1    4    4    0    0 -0.68635194668E+01  0.70498999072E+02  0.15466139443E+03  0.21115130072E+03  0.12509000000E+03 0.  0.
         25    1    4    4    0    0  0.25518852396E+02  0.17817298609E+02  0.72745814240E+02  0.14801395051E+03  0.12509000000E+03 0.  0.
<mgrwt>
<rscale>  2 0.44500972E+03</rscale>
<asrwt>0</asrwt>
<pdfrwt beam="1">  1       21 0.82797480E-01 0.44500972E+03</pdfrwt>
<pdfrwt beam="2">  1       21 0.12931356E-01 0.44500972E+03</pdfrwt>
<totfact> 0.60256306E+04</totfact>
</mgrwt>
</event>
<event>
 7    0  0.4709932E-002  0.4530063E+03  0.7546771E-02  0.1026829E+00
         21   -1    0    0  502  501  0.00000000000E+00  0.00000000000E+00  0.12487166957E+03  0.12487166957E+03  0.00000000000E+00 0. -1.
         21   -1    0    0  501  502 -0.00000000000E+00 -0.00000000000E+00 -0.41085117958E+03  0.41085117958E+03  0.00000000000E+00 0. -1.
      99926    2    1    2    0    0  0.00000000000E+00  0.00000000000E+00 -0.28597951000E+03  0.53572284915E+03  0.45300628137E+03 0.  0.
      99925    2    3    3    0    0 -0.36643552561E+02  0.66441950960E+02 -0.84285352530E+02  0.28655358128E+03  0.26315708522E+03 0.  0.
         25    1    4    4    0    0  0.76072616504E-01  0.58076190605E+02 -0.15129546013E+02  0.13874170593E+03  0.12509000000E+03 0.  0.
         25    1    3    3    0    0  0.36643552561E+02 -0.66441950960E+02 -0.20169415747E+03  0.24916926787E+03  0.12509000000E+03 0.  0.
         25    1    4    4    0    0 -0.36719625177E+02  0.83657603554E+01 -0.69155806517E+02  0.14781187535E+03  0.12509000000E+03 0.  0.
<mgrwt>
<rscale>  2 0.45300628E+03</rscale>
<asrwt>0</asrwt>
<pdfrwt beam="1">  1       21 0.18363481E-01 0.45300628E+03</pdfrwt>
<pdfrwt beam="2">  1       21 0.60419291E-01 0.45300628E+03</pdfrwt>
<totfact> 0.63821068E+04</totfact>
</mgrwt>
</event>
<event>
 7    0  0.4709932E-002  0.4558846E+03  0.7546771E-02  0.1025982E+00
         21   -1    0    0  502  501  0.00000000000E+00  0.00000000000E+00  0.56496444866E+02  0.56496444866E+02  0.00000000000E+00 0. -1.
         21   -1    0    0  501  502 -0.00000000000E+00 -0.00000000000E+00 -0.91966317722E+03  0.91966317722E+03  0.00000000000E+00 0. -1.
      99926    2    1    2    0    0  0.17763568394E-14  0.00000000000E+00 -0.86316673235E+03  0.97615962208E+03  0.45588463447E+03 0.  0.
      99925    2    3    3    0    0  0.94371331668E+01  0.48546138319E+02 -0.76265071501E+03  0.80824069858E+03  0.26300404314E+03 0.  0.
         25    1    4    4    0    0 -0.27360976064E+02  0.48207702245E+02 -0.36835994789E+03  0.39294931592E+03  0.12509000000E+03 0.  0.
         25    1    3    3    0    0 -0.94371331668E+01 -0.48546138319E+02 -0.10051601734E+03  0.16791892350E+03  0.12509000000E+03 0.  0.
         25    1    4    4    0    0  0.36798109231E+02  0.33843607419E+00 -0.39429076712E+03  0.41529138267E+03  0.12509000000E+03 0.  0.
<mgrwt>
<rscale>  2 0.45588463E+03</rscale>
<asrwt>0</asrwt>
<pdfrwt beam="1">  1       21 0.83083004E-02 0.45588463E+03</pdfrwt>
<pdfrwt beam="2">  1       21 0.13524459E+00 0.45588463E+03</pdfrwt>
<totfact> 0.39823124E+04</totfact>
</mgrwt>
</event>
<event>
 7    0  0.4709932E-002  0.4522508E+03  0.7546771E-02  0.1027053E+00
         21   -1    0    0  502  501  0.00000000000E+00  0.00000000000E+00  0.12504410253E+04  0.12504410253E+04  0.00000000000E+00 0.  1.
         21   -1    0    0  501  502 -0.00000000000E+00 -0.00000000000E+00 -0.40891723660E+02  0.40891723660E+02  0.00000000000E+00 0.  1.
      99926    2    1    2    0    0  0.00000000000E+00  0.88817841970E-15  0.12095493016E+04  0.12913327489E+04  0.45225076610E+03 0.  0.
      99925    2    3    3    0    0 -0.10887590811E+03 -0.66751638622E+01  0.81363368410E+03  0.86203657439E+03  0.26307558328E+03 0.  0.
         25    1    3    3    0    0  0.10887590811E+03  0.66751638622E+01  0.39591561751E+03  0.42929617453E+03  0.12509000000E+03 0.  0.
         25    1    4    4    0    0 -0.95989562671E+02 -0.43517162314E+01  0.41163371881E+03  0.44082055322E+03  0.12509000000E+03 0.  0.
         25    1    4    4    0    0 -0.12886345441E+02 -0.23234476308E+01  0.40199996529E+03  0.42121602118E+03  0.12509000000E+03 0.  0.
<mgrwt>
<rscale>  2 0.45225077E+03</rscale>
<asrwt>0</asrwt>
<pdfrwt beam="1">  1       21 0.18388836E+00 0.45225077E+03</pdfrwt>
<pdfrwt beam="2">  1       21 0.60134896E-02 0.45225077E+03</pdfrwt>
<totfact> 0.30003929E+04</totfact>
</mgrwt>
</event>
<event>
 7    0  0.4709932E-002  0.4452725E+03  0.7546771E-02  0.1029141E+00
         21   -1    0    0  502  501  0.00000000000E+00  0.00000000000E+00  0.54144039139E+03  0.54144039139E+03  0.00000000000E+00 0.  1.
         21   -1    0    0  501  502 -0.00000000000E+00 -0.00000000000E+00 -0.91546353549E+02  0.91546353549E+02  0.00000000000E+00 0.  1.
      99926    2    1    2    0    0 -0.14210854715E-13  0.14210854715E-13  0.44989403784E+03  0.63298674493E+03  0.44527247162E+03 0.  0.
      99925    2    3    3    0    0  0.64625740980E+02 -0.75578817016E+02  0.32662409295E+03  0.43116595465E+03  0.26330996634E+03 0.  0.
         25    1    4    4    0    0  0.14901822888E+02  0.21880321781E+01  0.14451386289E+03  0.19172536733E+03  0.12509000000E+03 0.  0.
         25    1    4    4    0    0  0.49723918092E+02 -0.77766849194E+02  0.18211023006E+03  0.23944058732E+03  0.12509000000E+03 0.  0.
         25    1    3    3    0    0 -0.64625740980E+02  0.75578817016E+02  0.12326994488E+03  0.20182079028E+03  0.12509000000E+03 0.  0.
<mgrwt>
<rscale>  2 0.44527247E+03</rscale>
<asrwt>0</asrwt>
<pdfrwt beam="1">  1       21 0.79623586E-01 0.44527247E+03</pdfrwt>
<pdfrwt beam="2">  1       21 0.13462699E-01 0.44527247E+03</pdfrwt>
<totfact> 0.61262192E+04</totfact>
</mgrwt>
</event>
<event>
 7    0  0.4709932E-002  0.4545336E+03  0.7546771E-02  0.1026379E+00
         21   -1    0    0  502  501  0.00000000000E+00  0.00000000000E+00  0.17723445746E+03  0.17723445746E+03  0.00000000000E+00 0. -1.
         21   -1    0    0  501  502 -0.00000000000E+00 -0.00000000000E+00 -0.29142303478E+03  0.29142303478E+03  0.00000000000E+00 0. -1.
      99926    2    1    2    0    0  0.00000000000E+00  0.00000000000E+00 -0.11418857733E+03  0.46865749224E+03  0.45453362234E+03 0.  0.
      99925    2    3    3    0    0  0.30427895173E+02  0.67493220047E+02  0.15123848888E+02  0.27410569135E+03  0.26348435943E+03 0.  0.
         25    1    3    3    0    0 -0.30427895173E+02 -0.67493220047E+02 -0.12931242621E+03  0.19455180089E+03  0.12509000000E+03 0.  0.
         25    1    4    4    0    0 -0.80858144333E+01  0.66064873436E+02  0.20128743320E+02  0.14311751222E+03  0.12509000000E+03 0.  0.
         25    1    4    4    0    0  0.38513709607E+02  0.14283466112E+01 -0.50048944327E+01  0.13098817912E+03  0.12509000000E+03 0.  0.
<mgrwt>
<rscale>  2 0.45453362E+03</rscale>
<asrwt>0</asrwt>
<pdfrwt beam="1">  1       21 0.26063891E-01 0.45453362E+03</pdfrwt>
<pdfrwt beam="2">  1       21 0.42856329E-01 0.45453362E+03</pdfrwt>
<totfact> 0.67786168E+04</totfact>
</mgrwt>
</event>
<event>
 7    0  0.4709932E-002  0.4458496E+03  0.7546771E-02  0.1028967E+00
         21   -1    0    0  502  501  0.00000000000E+00  0.00000000000E+00  0.12638813405E+04  0.12638813405E+04  0.00000000000E+00 0. -1.
         21   -1    0    0  501  502 -0.00000000000E+00 -0.00000000000E+00 -0.39319732070E+02  0.39319732070E+02  0.00000000000E+00 0. -1.
      99926    2    1    2    0    0 -0.71054273576E-14  0.00000000000E+00  0.12245616084E+04  0.13032010725E+04  0.44584964136E+03 0.  0.
      99925    2    3    3    0    0  0.16230969709E+02  0.10137288985E+03  0.82987004391E+03  0.87662300659E+03  0.26314197446E+03 0.  0.
         25    1    3    3    0    0 -0.16230969709E+02 -0.10137288985E+03  0.39469156449E+03  0.42657806596E+03  0.12509000000E+03 0.  0.
         25    1    4    4    0    0  0.48800313221E+02  0.55602246885E+02  0.42417060869E+03  0.44837628595E+03  0.12509000000E+03 0.  0.
         25    1    4    4    0    0 -0.32569343512E+02  0.45770642965E+02  0.40569943522E+03  0.42824672063E+03  0.12509000000E+03 0.  0.
<mgrwt>
<rscale>  2 0.44584964E+03</rscale>
<asrwt>0</asrwt>
<pdfrwt beam="1">  1       21 0.18586488E+00 0.44584964E+03</pdfrwt>
<pdfrwt beam="2">  1       21 0.57823144E-02 0.44584964E+03</pdfrwt>
<totfact> 0.31182513E+04</totfact>
</mgrwt>
</event>
<event>
 7    0  0.4709932E-002  0.4383849E+03  0.7546771E-02  0.1031244E+00
         21   -1    0    0  502  501  0.00000000000E+00  0.00000000000E+00  0.33887775931E+02  0.33887775931E+02  0.00000000000E+00 0.  1.
         21   -1    0    0  501  502 -0.00000000000E+00 -0.00000000000E+00 -0.14177774853E+04  0.14177774853E+04  0.00000000000E+00 0.  1.
      99926    2    1    2    0    0 -0.71054273576E-14  0.00000000000E+00 -0.13838897094E+04  0.14516652612E+04  0.43838487994E+03 0.  0.
      99925    2    3    3    0    0  0.36922398245E+02 -0.88763687820E+02 -0.84900210297E+03  0.89399643895E+03  0.26302624628E+03 0.  0.
         25    1    3    3    0    0 -0.36922398245E+02  0.88763687820E+02 -0.53488760638E+03  0.55766882227E+03  0.12509000000E+03 0.  0.
         25    1    4    4    0    0  0.55558369060E+02 -0.64280479931E+02 -0.45462331250E+03  0.47911227999E+03  0.12509000000E+03 0.  0.
         25    1    4    4    0    0 -0.18635970815E+02 -0.24483207889E+02 -0.39437879047E+03  0.41488415895E+03  0.12509000000E+03 0.  0.
<mgrwt>
<rscale>  2 0.43838488E+03</rscale>
<asrwt>0</asrwt>
<pdfrwt beam="1">  1       21 0.49834968E-02 0.43838488E+03</pdfrwt>
<pdfrwt beam="2">  1       21 0.20849667E+00 0.43838488E+03</pdfrwt>
<totfact> 0.28491554E+04</totfact>
</mgrwt>
</event>
<event>
 7    0  0.4709932E-002  0.4584979E+03  0.7546771E-02  0.1025218E+00
         21   -1    0    0  502  501  0.00000000000E+00  0.00000000000E+00  0.18865180113E+03  0.18865180113E+03  0.00000000000E+00 0.  1.
         21   -1    0    0  501  502 -0.00000000000E+00 -0.00000000000E+00 -0.27858247402E+03  0.27858247402E+03  0.00000000000E+00 0.  1.
      99926    2    1    2    0    0  0.00000000000E+00  0.00000000000E+00 -0.89930672885E+02  0.46723427515E+03  0.45849791924E+03 0.  0.
      99925    2    3    3    0    0  0.90648795746E+02  0.56399573283E+02 -0.90428887737E+01  0.28396273411E+03  0.26297327714E+03 0.  0.
         25    1    4    4    0    0  0.13113947083E+02  0.45007400087E+02  0.14931797483E+02  0.13441766382E+03  0.12509000000E+03 0.  0.
         25    1    3    3    0    0 -0.90648795746E+02 -0.56399573283E+02 -0.80887784111E+02  0.18327154104E+03  0.12509000000E+03 0.  0.
         25    1    4    4    0    0  0.77534848663E+02  0.11392173196E+02 -0.23974686257E+02  0.14954507029E+03  0.12509000000E+03 0.  0.
<mgrwt>
<rscale>  2 0.45849792E+03</rscale>
<asrwt>0</asrwt>
<pdfrwt beam="1">  1       21 0.27742912E-01 0.45849792E+03</pdfrwt>
<pdfrwt beam="2">  1       21 0.40968010E-01 0.45849792E+03</pdfrwt>
<totfact> 0.65796053E+04</totfact>
</mgrwt>
</event>
<event>
 7    0  0.4709932E-002  0.4490958E+03  0.7546771E-02  0.1027992E+00
         21   -1    0    0  502  501  0.00000000000E+00  0.00000000000E+00  0.23822648702E+02  0.23822648702E+02  0.00000000000E+00 0.  1.
         21   -1    0    0  501  502 -0.00000000000E+00 -0.00000000000E+00 -0.21165472035E+04  0.21165472035E+04  0.00000000000E+00 0.  1.
      99926    2    1    2    0    0  0.00000000000E+00  0.00000000000E+00 -0.20927245548E+04  0.21403698522E+04  0.44909580488E+03 0.  0.
      99925    2    3    3    0    0  0.89321336991E+02 -0.56387896335E+02 -0.14179193880E+04  0.14459870923E+04  0.26310717202E+03 0.  0.
         25    1    3    3    0    0 -0.89321336991E+02  0.56387896335E+02 -0.67480516681E+03  0.69438275997E+03  0.12509000000E+03 0.  0.
         25    1    4    4    0    0  0.85325313539E+02 -0.29292718281E+02 -0.70688816161E+03  0.72351700298E+03  0.12509000000E+03 0.  0.
         25    1    4    4    0    0  0.39960234526E+01 -0.27095178054E+02 -0.71103122640E+03  0.72247008927E+03  0.12509000000E+03 0.  0.
<mgrwt>
<rscale>  2 0.44909580E+03</rscale>
<asrwt>0</asrwt>
<pdfrwt beam="1">  1       21 0.35033298E-02 0.44909580E+03</pdfrwt>
<pdfrwt beam="2">  1       21 0.31125702E+00 0.44909580E+03</pdfrwt>
<totfact> 0.12095546E+04</totfact>
</mgrwt>
</event>
<event>
 7    0  0.4709932E-002  0.4531141E+03  0.7546771E-02  0.1026797E+00
         21   -1    0    0  502  501  0.00000000000E+00  0.00000000000E+00  0.37827737041E+02  0.37827737041E+02  0.00000000000E+00 0. -1.
         21   -1    0    0  501  502 -0.00000000000E+00 -0.00000000000E+00 -0.13568903028E+04  0.13568903028E+04  0.00000000000E+00 0. -1.
      99926    2    1    2    0    0  0.00000000000E+00  0.00000000000E+00 -0.13190625658E+04  0.13947180399E+04  0.45311406762E+03 0.  0.
      99925    2    3    3    0    0  0.95719349680E+01 -0.10830882680E+03 -0.76139665865E+03  0.81294386032E+03  0.26330671153E+03 0.  0.
         25    1    3    3    0    0 -0.95719349680E+01  0.10830882680E+03 -0.55766590714E+03  0.58177417955E+03  0.12509000000E+03 0.  0.
         25    1    4    4    0    0 -0.19714572999E+01 -0.20938809283E+02 -0.42191713036E+03  0.44057223400E+03  0.12509000000E+03 0.  0.
         25    1    4    4    0    0  0.11543392268E+02 -0.87370017515E+02 -0.33947952829E+03  0.37237162632E+03  0.12509000000E+03 0.  0.
<mgrwt>
<rscale>  2 0.45311407E+03</rscale>
<asrwt>0</asrwt>
<pdfrwt beam="1">  1       21 0.55629021E-02 0.45311407E+03</pdfrwt>
<pdfrwt beam="2">  1       21 0.19954271E+00 0.45311407E+03</pdfrwt>
<totfact> 0.26864676E+04</totfact>
</mgrwt>
</event>
<event>
 7    0  0.4709932E-002  0.4386441E+03  0.7546771E-02  0.1031164E+00
         21   -1    0    0  502  501  0.00000000000E+00  0.00000000000E+00  0.18032029369E+04  0.18032029369E+04  0.00000000000E+00 0.  1.
         21   -1    0    0  501  502 -0.00000000000E+00 -0.00000000000E+00 -0.26675951046E+02  0.26675951046E+02  0.00000000000E+00 0.  1.
      99926    2    1    2    0    0  0.00000000000E+00  0.00000000000E+00  0.17765269859E+04  0.18298788880E+04  0.43864406195E+03 0.  0.
      99925    2    3    3    0    0 -0.56111718583E+02  0.72174850398E+02  0.12710516347E+04  0.13011912934E+04  0.26299960026E+03 0.  0.
         25    1    4    4    0    0 -0.61613633284E+01  0.62826351930E+02  0.74689294653E+03  0.75992216349E+03  0.12509000000E+03 0.  0.
         25    1    3    3    0    0  0.56111718583E+02 -0.72174850398E+02  0.50547535114E+03  0.52868759462E+03  0.12509000000E+03 0.  0.
         25    1    4    4    0    0 -0.49950355254E+02  0.93484984675E+01  0.52415868822E+03  0.54126912987E+03  0.12509000000E+03 0.  0.
<mgrwt>
<rscale>  2 0.43864406E+03</rscale>
<asrwt>0</asrwt>
<pdfrwt beam="1">  1       21 0.26517682E+00 0.43864406E+03</pdfrwt>
<pdfrwt beam="2">  1       21 0.39229352E-02 0.43864406E+03</pdfrwt>
<totfact> 0.18990988E+04</totfact>
</mgrwt>
</event>
<event>
 7    0  0.4709932E-002  0.4704492E+03  0.7546771E-02  0.1021793E+00
         21   -1    0    0  502  501  0.00000000000E+00  0.00000000000E+00  0.32487178560E+03  0.32487178560E+03  0.00000000000E+00 0.  1.
         21   -1    0    0  501  502 -0.00000000000E+00 -0.00000000000E+00 -0.17031526345E+03  0.17031526345E+03  0.00000000000E+00 0.  1.
      99926    2    1    2    0    0  0.00000000000E+00 -0.71054273576E-14  0.15455652215E+03  0.49518704904E+03  0.47044924806E+03 0.  0.
      99925    2    3    3    0    0  0.10364928168E+03  0.36275472081E+02  0.16335458200E+03  0.32850172448E+03  0.26300110276E+03 0.  0.
         25    1    3    3    0    0 -0.10364928168E+03 -0.36275472081E+02 -0.87980598502E+01  0.16668532457E+03  0.12509000000E+03 0.  0.
         25    1    4    4    0    0  0.50776954769E+02 -0.19571450234E+02  0.96882909278E+02  0.16731750360E+03  0.12509000000E+03 0.  0.
         25    1    4    4    0    0  0.52872326915E+02  0.55846922315E+02  0.66471672722E+02  0.16118422088E+03  0.12509000000E+03 0.  0.
<mgrwt>
<rscale>  2 0.47044925E+03</rscale>
<asrwt>0</asrwt>
<pdfrwt beam="1">  1       21 0.47775263E-01 0.47044925E+03</pdfrwt>
<pdfrwt beam="2">  1       21 0.25046362E-01 0.47044925E+03</pdfrwt>
<totfact> 0.58145210E+04</totfact>
</mgrwt>
</event>
<event>
 7    0  0.4709932E-002  0.4563096E+03  0.7546771E-02  0.1025857E+00
         21   -1    0    0  502  501  0.00000000000E+00  0.00000000000E+00  0.21176196756E+03  0.21176196756E+03  0.00000000000E+00 0. -1.
         21   -1    0    0  501  502 -0.00000000000E+00 -0.00000000000E+00 -0.24581658891E+03  0.24581658891E+03  0.00000000000E+00 0. -1.
      99926    2    1    2    0    0  0.00000000000E+00 -0.17763568394E-14 -0.34054621347E+02  0.45757855647E+03  0.45630956390E+03 0.  0.
      99925    2    3    3    0    0 -0.10583508285E+03 -0.92893648667E+01 -0.63948935937E+02  0.29075968701E+03  0.26299120160E+03 0.  0.
         25    1    4    4    0    0 -0.44955661901E+02  0.10577315908E+02 -0.69003352091E+02  0.15013947465E+03  0.12509000000E+03 0.  0.
         25    1    3    3    0    0  0.10583508285E+03  0.92893648667E+01  0.29894314589E+02  0.16681886946E+03  0.12509000000E+03 0.  0.
         25    1    4    4    0    0 -0.60879420953E+02 -0.19866680774E+02  0.50544161540E+01  0.14062021236E+03  0.12509000000E+03 0.  0.
<mgrwt>
<rscale>  2 0.45630956E+03</rscale>
<asrwt>0</asrwt>
<pdfrwt beam="1">  1       21 0.31141466E-01 0.45630956E+03</pdfrwt>
<pdfrwt beam="2">  1       21 0.36149499E-01 0.45630956E+03</pdfrwt>
<totfact> 0.67647740E+04</totfact>
</mgrwt>
</event>
<event>
 7    0  0.4709932E-002  0.4537623E+03  0.7546771E-02  0.1026606E+00
         21   -1    0    0  502  501  0.00000000000E+00  0.00000000000E+00  0.45779184018E+02  0.45779184018E+02  0.00000000000E+00 0.  1.
         21   -1    0    0  501  502 -0.00000000000E+00 -0.00000000000E+00 -0.11244207182E+04  0.11244207182E+04  0.00000000000E+00 0.  1.
      99926    2    1    2    0    0  0.00000000000E+00  0.00000000000E+00 -0.10786415342E+04  0.11701999023E+04  0.45376232975E+03 0.  0.
      99925    2    3    3    0    0 -0.36114659417E+02  0.10021578539E+03 -0.58896687780E+03  0.65369603053E+03  0.26284795020E+03 0.  0.
         25    1    3    3    0    0  0.36114659417E+02 -0.10021578539E+03 -0.48967465642E+03  0.51650387173E+03  0.12509000000E+03 0.  0.
         25    1    4    4    0    0 -0.35916683949E+02  0.30598659926E+02 -0.35580166828E+03  0.38009028062E+03  0.12509000000E+03 0.  0.
         25    1    4    4    0    0 -0.19797546809E+00  0.69617125463E+02 -0.23316520952E+03  0.27360574991E+03  0.12509000000E+03 0.  0.
<mgrwt>
<rscale>  2 0.45376233E+03</rscale>
<asrwt>0</asrwt>
<pdfrwt beam="1">  1       21 0.67322339E-02 0.45376233E+03</pdfrwt>
<pdfrwt beam="2">  1       21 0.16535597E+00 0.45376233E+03</pdfrwt>
<totfact> 0.33436354E+04</totfact>
</mgrwt>
</event>
<event>
 7    0  0.4709932E-002  0.4567414E+03  0.7546771E-02  0.1025731E+00
         21   -1    0    0  502  501  0.00000000000E+00  0.00000000000E+00  0.16622057870E+03  0.16622057870E+03  0.00000000000E+00 0. -1.
         21   -1    0    0  501  502 -0.00000000000E+00 -0.00000000000E+00 -0.31375878483E+03  0.31375878483E+03  0.00000000000E+00 0. -1.
      99926    2    1    2    0    0  0.00000000000E+00  0.00000000000E+00 -0.14753820613E+03  0.47997936353E+03  0.45674135695E+03 0.  0.
      99925    2    3    3    0    0 -0.33144539740E+02 -0.26359043415E+02  0.19519232316E+02  0.26702618669E+03  0.26292322884E+03 0.  0.
         25    1    4    4    0    0 -0.46655917567E+01  0.15490178603E+02 -0.16887390297E+02  0.12725724117E+03  0.12509000000E+03 0.  0.
         25    1    4    4    0    0 -0.28478947983E+02 -0.41849222018E+02  0.36406622613E+02  0.13976894552E+03  0.12509000000E+03 0.  0.
         25    1    3    3    0    0  0.33144539740E+02  0.26359043415E+02 -0.16705743845E+03  0.21295317684E+03  0.12509000000E+03 0.  0.
<mgrwt>
<rscale>  2 0.45674136E+03</rscale>
<asrwt>0</asrwt>
<pdfrwt beam="1">  1       21 0.24444203E-01 0.45674136E+03</pdfrwt>
<pdfrwt beam="2">  1       21 0.46140997E-01 0.45674136E+03</pdfrwt>
<totfact> 0.65787605E+04</totfact>
</mgrwt>
</event>
<event>
 7    0  0.4709932E-002  0.4530465E+03  0.7546771E-02  0.1026817E+00
         21   -1    0    0  502  501  0.00000000000E+00  0.00000000000E+00  0.11540495210E+04  0.11540495210E+04  0.00000000000E+00 0. -1.
         21   -1    0    0  501  502 -0.00000000000E+00 -0.00000000000E+00 -0.44463233735E+02  0.44463233735E+02  0.00000000000E+00 0. -1.
      99926    2    1    2    0    0  0.00000000000E+00  0.14210854715E-13  0.11095862872E+04  0.11985127547E+04  0.45304645939E+03 0.  0.
      99925    2    3    3    0    0 -0.45683219691E+02 -0.69912821009E+02  0.89409144537E+03  0.93571950123E+03  0.26305268139E+03 0.  0.
         25    1    3    3    0    0  0.45683219691E+02  0.69912821009E+02  0.21549484185E+03  0.26279325347E+03  0.12509000000E+03 0.  0.
         25    1    4    4    0    0 -0.33838303722E+02 -0.21009114701E+01  0.35066000892E+03  0.37384407791E+03  0.12509000000E+03 0.  0.
         25    1    4    4    0    0 -0.11844915970E+02 -0.67811909539E+02  0.54343143645E+03  0.56187542332E+03  0.12509000000E+03 0.  0.
<mgrwt>
<rscale>  2 0.45304646E+03</rscale>
<asrwt>0</asrwt>
<pdfrwt beam="1">  1       21 0.16971315E+00 0.45304646E+03</pdfrwt>
<pdfrwt beam="2">  1       21 0.65387116E-02 0.45304646E+03</pdfrwt>
<totfact> 0.32697894E+04</totfact>
</mgrwt>
</event>
<event>
 7    0  0.4709932E-002  0.4461186E+03  0.7546771E-02  0.1028886E+00
         21   -1    0    0  502  501  0.00000000000E+00  0.00000000000E+00  0.33623852044E+02  0.33623852044E+02  0.00000000000E+00 0.  1.
         21   -1    0    0  501  502 -0.00000000000E+00 -0.00000000000E+00 -0.14797666408E+04  0.14797666408E+04  0.00000000000E+00 0.  1.
      99926    2    1    2    0    0  0.35527136788E-14  0.00000000000E+00 -0.14461427888E+04  0.15133904928E+04  0.44611861468E+03 0.  0.
      99925    2    3    3    0    0 -0.30197594310E+02 -0.95187644522E+02 -0.81081333270E+03  0.85820837450E+03  0.26292731163E+03 0.  0.
         25    1    4    4    0    0  0.63589569628E+00 -0.20064291414E+02 -0.29006249814E+03  0.31652289188E+03  0.12509000000E+03 0.  0.
         25    1    3    3    0    0  0.30197594310E+02  0.95187644522E+02 -0.63532945605E+03  0.65518211834E+03  0.12509000000E+03 0.  0.
         25    1    4    4    0    0 -0.30833490006E+02 -0.75123353108E+02 -0.52075083456E+03  0.54168548262E+03  0.12509000000E+03 0.  0.
<mgrwt>
<rscale>  2 0.44611861E+03</rscale>
<asrwt>0</asrwt>
<pdfrwt beam="1">  1       21 0.49446846E-02 0.44611861E+03</pdfrwt>
<pdfrwt beam="2">  1       21 0.21761272E+00 0.44611861E+03</pdfrwt>
<totfact> 0.25143084E+04</totfact>
</mgrwt>
</event>
<event>
 7    0  0.4709932E-002  0.4454110E+03  0.7546771E-02  0.1029099E+00
         21   -1    0    0  502  501  0.00000000000E+00  0.00000000000E+00  0.61167164448E+02  0.61167164448E+02  0.00000000000E+00 0.  1.
         21   -1    0    0  501  502 -0.00000000000E+00 -0.00000000000E+00 -0.81085549964E+03  0.81085549964E+03  0.00000000000E+00 0.  1.
      99926    2    1    2    0    0  0.00000000000E+00 -0.71054273576E-14 -0.74968833519E+03  0.87202266408E+03  0.44541096390E+03 0.  0.
      99925    2    3    3    0    0 -0.17540528715E+02 -0.46203013113E+02 -0.29852614330E+03  0.40123904068E+03  0.26350051417E+03 0.  0.
         25    1    3    3    0    0  0.17540528715E+02  0.46203013113E+02 -0.45116219189E+03  0.47078362340E+03  0.12509000000E+03 0.  0.
         25    1    4    4    0    0 -0.20249664063E+02  0.20327328311E+01 -0.19164595761E+03  0.22976044495E+03  0.12509000000E+03 0.  0.
         25    1    4    4    0    0  0.27091353477E+01 -0.48235745944E+02 -0.10688018569E+03  0.17147859573E+03  0.12509000000E+03 0.  0.
<mgrwt>
<rscale>  2 0.44541096E+03</rscale>
<asrwt>0</asrwt>
<pdfrwt beam="1">  1       21 0.89951719E-02 0.44541096E+03</pdfrwt>
<pdfrwt beam="2">  1       21 0.11924345E+00 0.44541096E+03</pdfrwt>
<totfact> 0.47968145E+04</totfact>
</mgrwt>
</event>
<event>
 7    0  0.4709932E-002  0.4526962E+03  0.7546771E-02  0.1026921E+00
         21   -1    0    0  502  501  0.00000000000E+00  0.00000000000E+00  0.71705203224E+03  0.71705203224E+03  0.00000000000E+00 0. -1.
         21   -1    0    0  501  502 -0.00000000000E+00 -0.00000000000E+00 -0.71450138856E+02  0.71450138856E+02  0.00000000000E+00 0. -1.
      99926    2    1    2    0    0  0.17763568394E-14  0.00000000000E+00  0.64560189338E+03  0.78850217109E+03  0.45269622163E+03 0.  0.
      99925    2    3    3    0    0  0.96154539266E+01 -0.52090314036E+02  0.57705626329E+03  0.63634478785E+03  0.26293516359E+03 0.  0.
         25    1    4    4    0    0  0.16548894939E+02 -0.26510449403E+02  0.19779066023E+03  0.23610447523E+03  0.12509000000E+03 0.  0.
         25    1    3    3    0    0 -0.96154539266E+01  0.52090314036E+02  0.68545630092E+02  0.15215738324E+03  0.12509000000E+03 0.  0.
         25    1    4    4    0    0 -0.69334410120E+01 -0.25579864633E+02  0.37926560306E+03  0.40024031262E+03  0.12509000000E+03 0.  0.
<mgrwt>
<rscale>  2 0.45269622E+03</rscale>
<asrwt>0</asrwt>
<pdfrwt beam="1">  1       21 0.10544882E+00 0.45269622E+03</pdfrwt>
<pdfrwt beam="2">  1       21 0.10507374E-01 0.45269622E+03</pdfrwt>
<totfact> 0.49209764E+04</totfact>
</mgrwt>
</event>
<event>
 7    0  0.4709932E-002  0.4540513E+03  0.7546771E-02  0.1026521E+00
         21   -1    0    0  502  501  0.00000000000E+00  0.00000000000E+00  0.25510697889E+03  0.25510697889E+03  0.00000000000E+00 0. -1.
         21   -1    0    0  501  502 -0.00000000000E+00 -0.00000000000E+00 -0.20203539605E+03  0.20203539605E+03  0.00000000000E+00 0. -1.
      99926    2    1    2    0    0  0.71054273576E-14  0.00000000000E+00  0.53071582842E+02  0.45714237493E+03  0.45405127249E+03 0.  0.
      99925    2    3    3    0    0  0.40907550128E+02 -0.94210439800E+02 -0.12163287047E+02  0.28263698541E+03  0.26303362018E+03 0.  0.
         25    1    4    4    0    0  0.59834063801E+02 -0.54443695161E+02 -0.16977346749E+02  0.14993321692E+03  0.12509000000E+03 0.  0.
         25    1    4    4    0    0 -0.18926513673E+02 -0.39766744639E+02  0.48140597022E+01  0.13270376848E+03  0.12509000000E+03 0.  0.
         25    1    3    3    0    0 -0.40907550128E+02  0.94210439800E+02  0.65234869889E+02  0.17450538953E+03  0.12509000000E+03 0.  0.
<mgrwt>
<rscale>  2 0.45405127E+03</rscale>
<asrwt>0</asrwt>
<pdfrwt beam="1">  1       21 0.37515732E-01 0.45405127E+03</pdfrwt>
<pdfrwt beam="2">  1       21 0.29711088E-01 0.45405127E+03</pdfrwt>
<totfact> 0.68909154E+04</totfact>
</mgrwt>
</event>
<event>
 7    0  0.4709932E-002  0.4672547E+03  0.7546771E-02  0.1022698E+00
         21   -1    0    0  502  501  0.00000000000E+00  0.00000000000E+00  0.18746918917E+04  0.18746918917E+04  0.00000000000E+00 0.  1.
         21   -1    0    0  501  502 -0.00000000000E+00 -0.00000000000E+00 -0.29115043083E+02  0.29115043083E+02  0.00000000000E+00 0.  1.
      99926    2    1    2    0    0 -0.14210854715E-13  0.00000000000E+00  0.18455768486E+04  0.19038069348E+04  0.46725468513E+03 0.  0.
      99925    2    3    3    0    0 -0.11144484758E+03  0.14272192802E+02  0.13670947498E+04  0.13966419946E+04  0.26274922773E+03 0.  0.
         25    1    3    3    0    0  0.11144484758E+03 -0.14272192802E+02  0.47848209884E+03  0.50716494018E+03  0.12509000000E+03 0.  0.
         25    1    4    4    0    0 -0.72407422851E+02  0.40318310658E+01  0.89444530221E+03  0.90605683999E+03  0.12509000000E+03 0.  0.
         25    1    4    4    0    0 -0.39037424734E+02  0.10240361736E+02  0.47264944754E+03  0.49058515458E+03  0.12509000000E+03 0.  0.
<mgrwt>
<rscale>  2 0.46725469E+03</rscale>
<asrwt>0</asrwt>
<pdfrwt beam="1">  1       21 0.27568990E+00 0.46725469E+03</pdfrwt>
<pdfrwt beam="2">  1       21 0.42816252E-02 0.46725469E+03</pdfrwt>
<totfact> 0.13968005E+04</totfact>
</mgrwt>
</event>
<event>
 7    0  0.4709932E-002  0.4575702E+03  0.7546771E-02  0.1025488E+00
         21   -1    0    0  502  501  0.00000000000E+00  0.00000000000E+00  0.10301704854E+04  0.10301704854E+04  0.00000000000E+00 0.  1.
         21   -1    0    0  501  502 -0.00000000000E+00 -0.00000000000E+00 -0.50809674398E+02  0.50809674398E+02  0.00000000000E+00 0.  1.
      99926    2    1    2    0    0  0.00000000000E+00 -0.14210854715E-13  0.97936081105E+03  0.10809801598E+04  0.45757022167E+03 0.  0.
      99925    2    3    3    0    0 -0.72765198485E+02  0.89739353701E+02  0.61513799981E+03  0.67891836106E+03  0.26303508600E+03 0.  0.
         25    1    4    4    0    0 -0.55683680089E+02  0.82825769332E+02  0.31791032880E+03  0.35591468858E+03  0.12509000000E+03 0.  0.
         25    1    4    4    0    0 -0.17081518396E+02  0.69135843691E+01  0.29722767101E+03  0.32300367248E+03  0.12509000000E+03 0.  0.
         25    1    3    3    0    0  0.72765198485E+02 -0.89739353701E+02  0.36422281123E+03  0.40206179878E+03  0.12509000000E+03 0.  0.
<mgrwt>
<rscale>  2 0.45757022E+03</rscale>
<asrwt>0</asrwt>
<pdfrwt beam="1">  1       21 0.15149565E+00 0.45757022E+03</pdfrwt>
<pdfrwt beam="2">  1       21 0.74720116E-02 0.45757022E+03</pdfrwt>
<totfact> 0.35444574E+04</totfact>
</mgrwt>
</event>
<event>
 7    0  0.4709932E-002  0.4562030E+03  0.7546771E-02  0.1025888E+00
         21   -1    0    0  502  501  0.00000000000E+00  0.00000000000E+00  0.62585039094E+02  0.62585039094E+02  0.00000000000E+00 0.  1.
         21   -1    0    0  501  502 -0.00000000000E+00 -0.00000000000E+00 -0.83135363584E+03  0.83135363584E+03  0.00000000000E+00 0.  1.
      99926    2    1    2    0    0  0.00000000000E+00  0.00000000000E+00 -0.76876859675E+03  0.89393867494E+03  0.45620302410E+03 0.  0.
      99925    2    3    3    0    0  0.69191612399E+02  0.91052959353E+02 -0.49277628776E+03  0.57006001965E+03  0.26279618640E+03 0.  0.
         25    1    4    4    0    0  0.40587835749E+02  0.19528714599E+02 -0.29606362998E+03  0.32454571974E+03  0.12509000000E+03 0.  0.
         25    1    3    3    0    0 -0.69191612399E+02 -0.91052959353E+02 -0.27599230899E+03  0.32387865529E+03  0.12509000000E+03 0.  0.
         25    1    4    4    0    0  0.28603776651E+02  0.71524244754E+02 -0.19671265778E+03  0.24551429990E+03  0.12509000000E+03 0.  0.
<mgrwt>
<rscale>  2 0.45620302E+03</rscale>
<asrwt>0</asrwt>
<pdfrwt beam="1">  1       21 0.92036833E-02 0.45620302E+03</pdfrwt>
<pdfrwt beam="2">  1       21 0.12225787E+00 0.45620302E+03</pdfrwt>
<totfact> 0.43089461E+04</totfact>
</mgrwt>
</event>
<event>
 7    0  0.4709932E-002  0.4178327E+03  0.7546771E-02  0.1037774E+00
         21   -1    0    0  502  501  0.00000000000E+00  0.00000000000E+00  0.93327158540E+03  0.93327158540E+03  0.00000000000E+00 0.  1.
         21   -1    0    0  501  502 -0.00000000000E+00 -0.00000000000E+00 -0.46766704353E+02  0.46766704353E+02  0.00000000000E+00 0.  1.
      99926    2    1    2    0    0  0.35527136788E-14 -0.71054273576E-14  0.88650488105E+03  0.98003828975E+03  0.41783267615E+03 0.  0.
      99925    2    3    3    0    0  0.22121986852E+02 -0.34710075633E+02  0.43736431327E+03  0.51199029074E+03  0.26296833201E+03 0.  0.
         25    1    4    4    0    0  0.28885478427E+02 -0.12961882362E+02  0.28964650493E+03  0.31708829555E+03  0.12509000000E+03 0.  0.
         25    1    3    3    0    0 -0.22121986852E+02  0.34710075633E+02  0.44914056778E+03  0.46804799901E+03  0.12509000000E+03 0.  0.
         25    1    4    4    0    0 -0.67634915747E+01 -0.21748193271E+02  0.14771780834E+03  0.19490199519E+03  0.12509000000E+03 0.  0.
<mgrwt>
<rscale>  2 0.41783268E+03</rscale>
<asrwt>0</asrwt>
<pdfrwt beam="1">  1       21 0.13724581E+00 0.41783268E+03</pdfrwt>
<pdfrwt beam="2">  1       21 0.68774571E-02 0.41783268E+03</pdfrwt>
<totfact> 0.54011157E+04</totfact>
</mgrwt>
</event>
<event>
 7    0  0.4709932E-002  0.4596945E+03  0.7546771E-02  0.1024870E+00
         21   -1    0    0  502  501  0.00000000000E+00  0.00000000000E+00  0.37941638275E+02  0.37941638275E+02  0.00000000000E+00 0.  1.
         21   -1    0    0  501  502 -0.00000000000E+00 -0.00000000000E+00 -0.13923951965E+04  0.13923951965E+04  0.00000000000E+00 0.  1.
      99926    2    1    2    0    0  0.00000000000E+00  0.00000000000E+00 -0.13544535582E+04  0.14303368348E+04  0.45969448499E+03 0.  0.
      99925    2    3    3    0    0 -0.25046258983E+02 -0.11397276113E+03 -0.89078987199E+03  0.93612167172E+03  0.26305908621E+03 0.  0.
         25    1    4    4    0    0  0.83808265179E+01 -0.78713224582E+02 -0.37499664725E+03  0.40315754182E+03  0.12509000000E+03 0.  0.
         25    1    4    4    0    0 -0.33427085501E+02 -0.35259536551E+02 -0.51579322475E+03  0.53296412990E+03  0.12509000000E+03 0.  0.
         25    1    3    3    0    0  0.25046258983E+02  0.11397276113E+03 -0.46366368621E+03  0.49421516304E+03  0.12509000000E+03 0.  0.
<mgrwt>
<rscale>  2 0.45969448E+03</rscale>
<asrwt>0</asrwt>
<pdfrwt beam="1">  1       21 0.55796519E-02 0.45969448E+03</pdfrwt>
<pdfrwt beam="2">  1       21 0.20476403E+00 0.45969448E+03</pdfrwt>
<totfact> 0.24624161E+04</totfact>
</mgrwt>
</event>
<event>
 7    0  0.4709932E-002  0.4589220E+03  0.7546771E-02  0.1025094E+00
         21   -1    0    0  502  501  0.00000000000E+00  0.00000000000E+00  0.46876792818E+02  0.46876792818E+02  0.00000000000E+00 0.  1.
         21   -1    0    0  501  502 -0.00000000000E+00 -0.00000000000E+00 -0.11232072101E+04  0.11232072101E+04  0.00000000000E+00 0.  1.
      99926    2    1    2    0    0  0.00000000000E+00  0.00000000000E+00 -0.10763304173E+04  0.11700840029E+04  0.45892200505E+03 0.  0.
      99925    2    3    3    0    0 -0.10112048554E+03 -0.33947820458E+02 -0.79609606535E+03  0.84518923963E+03  0.26305531436E+03 0.  0.
         25    1    3    3    0    0  0.10112048554E+03  0.33947820458E+02 -0.28023435194E+03  0.32489476329E+03  0.12509000000E+03 0.  0.
         25    1    4    4    0    0 -0.85116390848E+02 -0.29472713665E+02 -0.50282496902E+03  0.52592195088E+03  0.12509000000E+03 0.  0.
         25    1    4    4    0    0 -0.16004094689E+02 -0.44751067933E+01 -0.29327109633E+03  0.31926728876E+03  0.12509000000E+03 0.  0.
<mgrwt>
<rscale>  2 0.45892201E+03</rscale>
<asrwt>0</asrwt>
<pdfrwt beam="1">  1       21 0.68936457E-02 0.45892201E+03</pdfrwt>
<pdfrwt beam="2">  1       21 0.16517754E+00 0.45892201E+03</pdfrwt>
<totfact> 0.32125757E+04</totfact>
</mgrwt>
</event>
<event>
 7    0  0.4709932E-002  0.4508938E+03  0.7546771E-02  0.1027456E+00
         21   -1    0    0  502  501  0.00000000000E+00  0.00000000000E+00  0.13055742693E+03  0.13055742693E+03  0.00000000000E+00 0.  1.
         21   -1    0    0  501  502 -0.00000000000E+00 -0.00000000000E+00 -0.38930222485E+03  0.38930222485E+03  0.00000000000E+00 0.  1.
      99926    2    1    2    0    0  0.00000000000E+00  0.71054273576E-14 -0.25874479792E+03  0.51985965178E+03  0.45089376476E+03 0.  0.
      99925    2    3    3    0    0  0.80306055164E+02  0.44131935964E+02 -0.23064049972E+03  0.36227142270E+03  0.26391069195E+03 0.  0.
         25    1    4    4    0    0  0.66198485817E+02  0.53303548635E+02 -0.14667910001E+03  0.21067931627E+03  0.12509000000E+03 0.  0.
         25    1    4    4    0    0  0.14107569347E+02 -0.91716126713E+01 -0.83961399704E+02  0.15159210643E+03  0.12509000000E+03 0.  0.
         25    1    3    3    0    0 -0.80306055164E+02 -0.44131935964E+02 -0.28104298201E+02  0.15758822908E+03  0.12509000000E+03 0.  0.
<mgrwt>
<rscale>  2 0.45089376E+03</rscale>
<asrwt>0</asrwt>
<pdfrwt beam="1">  1       21 0.19199621E-01 0.45089376E+03</pdfrwt>
<pdfrwt beam="2">  1       21 0.57250328E-01 0.45089376E+03</pdfrwt>
<totfact> 0.66021342E+04</totfact>
</mgrwt>
</event>
<event>
 7    0  0.4709932E-002  0.4795493E+03  0.7546771E-02  0.1019259E+00
         21   -1    0    0  502  501  0.00000000000E+00  0.00000000000E+00  0.23014397482E+03  0.23014397482E+03  0.00000000000E+00 0. -1.
         21   -1    0    0  501  502 -0.00000000000E+00 -0.00000000000E+00 -0.24980833803E+03  0.24980833803E+03  0.00000000000E+00 0. -1.
      99926    2    1    2    0    0  0.00000000000E+00 -0.35527136788E-14 -0.19664363207E+02  0.47995231285E+03  0.47954930449E+03 0.  0.
      99925    2    3    3    0    0 -0.13146695708E+03 -0.20560089463E+02  0.90635380676E+01  0.29507646669E+03  0.26321416260E+03 0.  0.
         25    1    4    4    0    0 -0.24888608462E+02 -0.23901668966E+02  0.14816868242E+02  0.13060543746E+03  0.12509000000E+03 0.  0.
         25    1    4    4    0    0 -0.10657834862E+03  0.33415795023E+01 -0.57533301747E+01  0.16447102923E+03  0.12509000000E+03 0.  0.
         25    1    3    3    0    0  0.13146695708E+03  0.20560089463E+02 -0.28727901274E+02  0.18487584616E+03  0.12509000000E+03 0.  0.
<mgrwt>
<rscale>  2 0.47954930E+03</rscale>
<asrwt>0</asrwt>
<pdfrwt beam="1">  1       21 0.33844702E-01 0.47954930E+03</pdfrwt>
<pdfrwt beam="2">  1       21 0.36736520E-01 0.47954930E+03</pdfrwt>
<totfact> 0.55137404E+04</totfact>
</mgrwt>
</event>
<event>
 7    0  0.4709932E-002  0.4542444E+03  0.7546771E-02  0.1026464E+00
         21   -1    0    0  502  501  0.00000000000E+00  0.00000000000E+00  0.80331592199E+03  0.80331592199E+03  0.00000000000E+00 0. -1.
         21   -1    0    0  501  502 -0.00000000000E+00 -0.00000000000E+00 -0.64214440528E+02  0.64214440528E+02  0.00000000000E+00 0. -1.
      99926    2    1    2    0    0  0.00000000000E+00  0.00000000000E+00  0.73910148146E+03  0.86753036252E+03  0.45424435053E+03 0.  0.
      99925    2    3    3    0    0  0.84222030702E+02  0.18526551138E+02  0.32917199285E+03  0.43035044842E+03  0.26345915059E+03 0.  0.
         25    1    4    4    0    0  0.32746065793E+02  0.22369772121E+02  0.22135300579E+03  0.25732736505E+03  0.12509000000E+03 0.  0.
         25    1    3    3    0    0 -0.84222030702E+02 -0.18526551138E+02  0.40992948861E+03  0.43717991409E+03  0.12509000000E+03 0.  0.
         25    1    4    4    0    0  0.51475964909E+02 -0.38432209822E+01  0.10781898706E+03  0.17302308337E+03  0.12509000000E+03 0.  0.
<mgrwt>
<rscale>  2 0.45424435E+03</rscale>
<asrwt>0</asrwt>
<pdfrwt beam="1">  1       21 0.11813469E+00 0.45424435E+03</pdfrwt>
<pdfrwt beam="2">  1       21 0.94433005E-02 0.45424435E+03</pdfrwt>
<totfact> 0.44930633E+04</totfact>
</mgrwt>
</event>
<event>
 7    0  0.4709932E-002  0.4600387E+03  0.7546771E-02  0.1024770E+00
         21   -1    0    0  502  501  0.00000000000E+00  0.00000000000E+00  0.62238920724E+02  0.62238920724E+02  0.00000000000E+00 0. -1.
         21   -1    0    0  501  502 -0.00000000000E+00 -0.00000000000E+00 -0.85009334993E+03  0.85009334993E+03  0.00000000000E+00 0. -1.
      99926    2    1    2    0    0 -0.14210854715E-13  0.00000000000E+00 -0.78785442921E+03  0.91233227066E+03  0.46003866192E+03 0.  0.
      99925    2    3    3    0    0  0.91621501357E+02 -0.73694688908E+02 -0.50787877971E+03  0.58391290598E+03  0.26303615760E+03 0.  0.
         25    1    4    4    0    0  0.77035233366E+02 -0.67569623766E+02 -0.27139093870E+03  0.31591237858E+03  0.12509000000E+03 0.  0.
         25    1    3    3    0    0 -0.91621501357E+02  0.73694688908E+02 -0.27997564950E+03  0.32841936468E+03  0.12509000000E+03 0.  0.
         25    1    4    4    0    0  0.14586267991E+02 -0.61250651418E+01 -0.23648784102E+03  0.26800052740E+03  0.12509000000E+03 0.  0.
<mgrwt>
<rscale>  2 0.46003866E+03</rscale>
<asrwt>0</asrwt>
<pdfrwt beam="1">  1       21 0.91527827E-02 0.46003866E+03</pdfrwt>
<pdfrwt beam="2">  1       21 0.12501372E+00 0.46003866E+03</pdfrwt>
<totfact> 0.41061131E+04</totfact>
</mgrwt>
</event>
<event>
 7    0  0.4709932E-002  0.4530050E+03  0.7546771E-02  0.1026830E+00
         21   -1    0    0  502  501  0.00000000000E+00  0.00000000000E+00  0.24838934676E+03  0.24838934676E+03  0.00000000000E+00 0. -1.
         21   -1    0    0  501  502 -0.00000000000E+00 -0.00000000000E+00 -0.20654422528E+03  0.20654422528E+03  0.00000000000E+00 0. -1.
      99926    2    1    2    0    0  0.00000000000E+00  0.00000000000E+00  0.41845121486E+02  0.45493357204E+03  0.45300501187E+03 0.  0.
      99925    2    3    3    0    0 -0.10185388281E+03 -0.30893912688E+02 -0.60380552508E+01  0.28385185473E+03  0.26307179636E+03 0.  0.
         25    1    3    3    0    0  0.10185388281E+03  0.30893912688E+02  0.47883176737E+02  0.17108171731E+03  0.12509000000E+03 0.  0.
         25    1    4    4    0    0 -0.11942839354E+02 -0.16109247416E+02 -0.20830605312E+02  0.12838832300E+03  0.12509000000E+03 0.  0.
         25    1    4    4    0    0 -0.89911043453E+02 -0.14784665272E+02  0.14792550061E+02  0.15546353173E+03  0.12509000000E+03 0.  0.
<mgrwt>
<rscale>  2 0.45300501E+03</rscale>
<asrwt>0</asrwt>
<pdfrwt beam="1">  1       21 0.36527845E-01 0.45300501E+03</pdfrwt>
<pdfrwt beam="2">  1       21 0.30374151E-01 0.45300501E+03</pdfrwt>
<totfact> 0.69652767E+04</totfact>
</mgrwt>
</event>
<event>
 7    0  0.4709932E-002  0.4551202E+03  0.7546771E-02  0.1026206E+00
         21   -1    0    0  502  501  0.00000000000E+00  0.00000000000E+00  0.12079746764E+03  0.12079746764E+03  0.00000000000E+00 0. -1.
         21   -1    0    0  501  502 -0.00000000000E+00 -0.00000000000E+00 -0.42868125523E+03  0.42868125523E+03  0.00000000000E+00 0. -1.
      99926    2    1    2    0    0 -0.13322676296E-14  0.71054273576E-14 -0.30788378760E+03  0.54947872287E+03  0.45512024809E+03 0.  0.
      99925    2    3    3    0    0 -0.21844501992E+01 -0.36756117569E+02 -0.32304931932E+03  0.41820311411E+03  0.26301558498E+03 0.  0.
         25    1    4    4    0    0  0.13504622113E+02  0.15390510532E+02 -0.18370290029E+03  0.22318939560E+03  0.12509000000E+03 0.  0.
         25    1    3    3    0    0  0.21844501992E+01  0.36756117569E+02  0.15165531724E+02  0.13127560875E+03  0.12509000000E+03 0.  0.
         25    1    4    4    0    0 -0.15689072312E+02 -0.52146628101E+02 -0.13934641903E+03  0.19501371851E+03  0.12509000000E+03 0.  0.
<mgrwt>
<rscale>  2 0.45512025E+03</rscale>
<asrwt>0</asrwt>
<pdfrwt beam="1">  1       21 0.17764333E-01 0.45512025E+03</pdfrwt>
<pdfrwt beam="2">  1       21 0.63041361E-01 0.45512025E+03</pdfrwt>
<totfact> 0.61842114E+04</totfact>
</mgrwt>
</event>
<event>
 7    0  0.4709932E-002  0.4553624E+03  0.7546771E-02  0.1026135E+00
         21   -1    0    0  502  501  0.00000000000E+00  0.00000000000E+00  0.13525244863E+04  0.13525244863E+04  0.00000000000E+00 0. -1.
         21   -1    0    0  501  502 -0.00000000000E+00 -0.00000000000E+00 -0.38327380582E+02  0.38327380582E+02  0.00000000000E+00 0. -1.
      99926    2    1    2    0    0  0.88817841970E-15 -0.71054273576E-14  0.13141971057E+04  0.13908518668E+04  0.45536236441E+03 0.  0.
      99925    2    3    3    0    0  0.40576552864E+01 -0.44371676605E+02  0.50822020538E+03  0.57400942049E+03  0.26308501934E+03 0.  0.
         25    1    4    4    0    0  0.27663575562E+02 -0.47333713789E+02  0.22048370505E+03  0.25935752576E+03  0.12509000000E+03 0.  0.
         25    1    3    3    0    0 -0.40576552864E+01  0.44371676605E+02  0.80597690030E+03  0.81684244635E+03  0.12509000000E+03 0.  0.
         25    1    4    4    0    0 -0.23605920276E+02  0.29620371837E+01  0.28773650033E+03  0.31465189473E+03  0.12509000000E+03 0.  0.
<mgrwt>
<rscale>  2 0.45536236E+03</rscale>
<asrwt>0</asrwt>
<pdfrwt beam="1">  1       21 0.19890063E+00 0.45536236E+03</pdfrwt>
<pdfrwt beam="2">  1       21 0.56363804E-02 0.45536236E+03</pdfrwt>
<totfact> 0.26502097E+04</totfact>
</mgrwt>
</event>
<event>
 7    0  0.4709932E-002  0.4561307E+03  0.7546771E-02  0.1025909E+00
         21   -1    0    0  502  501  0.00000000000E+00  0.00000000000E+00  0.66898723738E+03  0.66898723738E+03  0.00000000000E+00 0.  1.
         21   -1    0    0  501  502 -0.00000000000E+00 -0.00000000000E+00 -0.77750068333E+02  0.77750068333E+02  0.00000000000E+00 0.  1.
      99926    2    1    2    0    0  0.17763568394E-14  0.00000000000E+00  0.59123716905E+03  0.74673730571E+03  0.45613069802E+03 0.  0.
      99925    2    3    3    0    0  0.14953232772E+02  0.37312047778E+02  0.54668695726E+03  0.60800008090E+03  0.26302410736E+03 0.  0.
         25    1    4    4    0    0  0.40635388957E+02  0.26953678201E+02  0.22904738975E+03  0.26549566937E+03  0.12509000000E+03 0.  0.
         25    1    3    3    0    0 -0.14953232772E+02 -0.37312047778E+02  0.44550211792E+02  0.13873722482E+03  0.12509000000E+03 0.  0.
         25    1    4    4    0    0 -0.25682156185E+02  0.10358369577E+02  0.31763956751E+03  0.34250441153E+03  0.12509000000E+03 0.  0.
<mgrwt>
<rscale>  2 0.45613070E+03</rscale>
<asrwt>0</asrwt>
<pdfrwt beam="1">  1       21 0.98380473E-01 0.45613070E+03</pdfrwt>
<pdfrwt beam="2">  1       21 0.11433834E-01 0.45613070E+03</pdfrwt>
<totfact> 0.49992002E+04</totfact>
</mgrwt>
</event>
<event>
 7    0  0.4709932E-002  0.4507201E+03  0.7546771E-02  0.1027508E+00
         21   -1    0    0  502  501  0.00000000000E+00  0.00000000000E+00  0.18142287715E+03  0.18142287715E+03  0.00000000000E+00 0. -1.
         21   -1    0    0  501  502 -0.00000000000E+00 -0.00000000000E+00 -0.27993796232E+03  0.27993796232E+03  0.00000000000E+00 0. -1.
      99926    2    1    2    0    0  0.00000000000E+00  0.00000000000E+00 -0.98515085172E+02  0.46136083946E+03  0.45072009294E+03 0.  0.
      99925    2    3    3    0    0  0.40100393660E+02 -0.93447286997E+02 -0.17951286684E+02  0.28114299699E+03  0.26149321032E+03 0.  0.
         25    1    4    4    0    0  0.42208829072E+02 -0.79381286606E+02 -0.53440636675E+00  0.15404793931E+03  0.12509000000E+03 0.  0.
         25    1    4    4    0    0 -0.21084354123E+01 -0.14066000391E+02 -0.17416880317E+02  0.12709505768E+03  0.12509000000E+03 0.  0.
         25    1    3    3    0    0 -0.40100393660E+02  0.93447286997E+02 -0.80563798488E+02  0.18021784247E+03  0.12509000000E+03 0.  0.
<mgrwt>
<rscale>  2 0.45072009E+03</rscale>
<asrwt>0</asrwt>
<pdfrwt beam="1">  1       21 0.26679835E-01 0.45072009E+03</pdfrwt>
<pdfrwt beam="2">  1       21 0.41167347E-01 0.45072009E+03</pdfrwt>
<totfact> 0.70445474E+04</totfact>
</mgrwt>
</event>
<event>
 7    0  0.4709932E-002  0.4515395E+03  0.7546771E-02  0.1027264E+00
         21   -1    0    0  502  501  0.00000000000E+00  0.00000000000E+00  0.87843132555E+02  0.87843132555E+02  0.00000000000E+00 0. -1.
         21   -1    0    0  501  502 -0.00000000000E+00 -0.00000000000E+00 -0.58026139077E+03  0.58026139077E+03  0.00000000000E+00 0. -1.
      99926    2    1    2    0    0  0.00000000000E+00 -0.71054273576E-14 -0.49241825821E+03  0.66810452332E+03  0.45153949225E+03 0.  0.
      99925    2    3    3    0    0 -0.29088959664E+02  0.53871417961E+02 -0.17573767258E+03  0.32215308357E+03  0.26296498330E+03 0.  0.
         25    1    4    4    0    0 -0.16825877408E+02  0.63396335417E+02 -0.70058700522E+02  0.15766399435E+03  0.12509000000E+03 0.  0.
         25    1    3    3    0    0  0.29088959664E+02 -0.53871417961E+02 -0.31668058564E+03  0.34595143975E+03  0.12509000000E+03 0.  0.
         25    1    4    4    0    0 -0.12263082256E+02 -0.95249174560E+01 -0.10567897206E+03  0.16448908922E+03  0.12509000000E+03 0.  0.
<mgrwt>
<rscale>  2 0.45153949E+03</rscale>
<asrwt>0</asrwt>
<pdfrwt beam="1">  1       21 0.12918108E-01 0.45153949E+03</pdfrwt>
<pdfrwt beam="2">  1       21 0.85332554E-01 0.45153949E+03</pdfrwt>
<totfact> 0.56186234E+04</totfact>
</mgrwt>
</event>
<event>
 7    0  0.4709932E-002  0.4526252E+03  0.7546771E-02  0.1026942E+00
         21   -1    0    0  502  501  0.00000000000E+00  0.00000000000E+00  0.76642053043E+03  0.76642053043E+03  0.00000000000E+00 0. -1.
         21   -1    0    0  501  502 -0.00000000000E+00 -0.00000000000E+00 -0.66826753781E+02  0.66826753781E+02  0.00000000000E+00 0. -1.
      99926    2    1    2    0    0  0.00000000000E+00 -0.35527136788E-14  0.69959377665E+03  0.83324728421E+03  0.45262521397E+03 0.  0.
      99925    2    3    3    0    0  0.46774287838E+02  0.23800834084E+02  0.26100802548E+03  0.37416201660E+03  0.26290247545E+03 0.  0.
         25    1    3    3    0    0 -0.46774287838E+02 -0.23800834084E+02  0.43858575117E+03  0.45908526761E+03  0.12509000000E+03 0.  0.
         25    1    4    4    0    0  0.23679047002E+01  0.22514146184E+02  0.17382070225E+03  0.21534539323E+03  0.12509000000E+03 0.  0.
         25    1    4    4    0    0  0.44406383138E+02  0.12866879001E+01  0.87187323221E+02  0.15881662337E+03  0.12509000000E+03 0.  0.
<mgrwt>
<rscale>  2 0.45262521E+03</rscale>
<asrwt>0</asrwt>
<pdfrwt beam="1">  1       21 0.11270890E+00 0.45262521E+03</pdfrwt>
<pdfrwt beam="2">  1       21 0.98274642E-02 0.45262521E+03</pdfrwt>
<totfact> 0.47069230E+04</totfact>
</mgrwt>
</event>
<event>
 7    0  0.4709932E-002  0.4529883E+03  0.7546771E-02  0.1026835E+00
         21   -1    0    0  502  501  0.00000000000E+00  0.00000000000E+00  0.14639949896E+03  0.14639949896E+03  0.00000000000E+00 0.  1.
         21   -1    0    0  501  502 -0.00000000000E+00 -0.00000000000E+00 -0.35040837737E+03  0.35040837737E+03  0.00000000000E+00 0.  1.
      99926    2    1    2    0    0  0.00000000000E+00  0.44408920985E-15 -0.20400887840E+03  0.49680787633E+03  0.45298834810E+03 0.  0.
      99925    2    3    3    0    0 -0.10546799750E+03  0.21127446733E+01 -0.16690982860E+03  0.32902286572E+03  0.26319041225E+03 0.  0.
         25    1    4    4    0    0 -0.13180981122E+02  0.11804779401E+02 -0.58271014938E+02  0.13912623894E+03  0.12509000000E+03 0.  0.
         25    1    3    3    0    0  0.10546799750E+03 -0.21127446733E+01 -0.37099049800E+02  0.16778501060E+03  0.12509000000E+03 0.  0.
         25    1    4    4    0    0 -0.92287016377E+02 -0.96920347278E+01 -0.10863881367E+03  0.18989662678E+03  0.12509000000E+03 0.  0.
<mgrwt>
<rscale>  2 0.45298835E+03</rscale>
<asrwt>0</asrwt>
<pdfrwt beam="1">  1       21 0.21529338E-01 0.45298835E+03</pdfrwt>
<pdfrwt beam="2">  1       21 0.51530643E-01 0.45298835E+03</pdfrwt>
<totfact> 0.66551941E+04</totfact>
</mgrwt>
</event>
<event>
 7    0  0.4709932E-002  0.4662131E+03  0.7546771E-02  0.1022995E+00
         21   -1    0    0  502  501  0.00000000000E+00  0.00000000000E+00  0.62764921490E+02  0.62764921490E+02  0.00000000000E+00 0.  1.
         21   -1    0    0  501  502 -0.00000000000E+00 -0.00000000000E+00 -0.86574890442E+03  0.86574890442E+03  0.00000000000E+00 0.  1.
      99926    2    1    2    0    0 -0.71054273576E-14  0.00000000000E+00 -0.80298398293E+03  0.92851382591E+03  0.46621309298E+03 0.  0.
      99925    2    3    3    0    0 -0.63210587877E+02  0.90390815087E+02 -0.39012204938E+03  0.48324024467E+03  0.26298259028E+03 0.  0.
         25    1    3    3    0    0  0.63210587877E+02 -0.90390815087E+02 -0.41286193356E+03  0.44527358124E+03  0.12509000000E+03 0.  0.
         25    1    4    4    0    0  0.75961334311E+01  0.56633877331E+02 -0.18693369740E+03  0.23207070610E+03  0.12509000000E+03 0.  0.
         25    1    4    4    0    0 -0.70806721308E+02  0.33756937757E+02 -0.20318835197E+03  0.25116953857E+03  0.12509000000E+03 0.  0.
<mgrwt>
<rscale>  2 0.46621309E+03</rscale>
<asrwt>0</asrwt>
<pdfrwt beam="1">  1       21 0.92301361E-02 0.46621309E+03</pdfrwt>
<pdfrwt beam="2">  1       21 0.12731601E+00 0.46621309E+03</pdfrwt>
<totfact> 0.38529690E+04</totfact>
</mgrwt>
</event>
<event>
 7    0  0.4709932E-002  0.4490091E+03  0.7546771E-02  0.1028018E+00
         21   -1    0    0  502  501  0.00000000000E+00  0.00000000000E+00  0.15585661639E+03  0.15585661639E+03  0.00000000000E+00 0. -1.
         21   -1    0    0  501  502 -0.00000000000E+00 -0.00000000000E+00 -0.32338879427E+03  0.32338879427E+03  0.00000000000E+00 0. -1.
      99926    2    1    2    0    0  0.00000000000E+00  0.44408920985E-15 -0.16753217788E+03  0.47924541066E+03  0.44900905671E+03 0.  0.
      99925    2    3    3    0    0  0.19903150786E+02 -0.35144866404E+01 -0.21870906747E+03  0.34258865394E+03  0.26291603715E+03 0.  0.
         25    1    4    4    0    0 -0.21202101672E+02 -0.24888176700E+02 -0.12260272942E+03  0.17817936978E+03  0.12509000000E+03 0.  0.
         25    1    3    3    0    0 -0.19903150786E+02  0.35144866404E+01  0.51176889585E+02  0.13665675671E+03  0.12509000000E+03 0.  0.
         25    1    4    4    0    0  0.41105252458E+02  0.21373690060E+02 -0.96106338048E+02  0.16440928416E+03  0.12509000000E+03 0.  0.
<mgrwt>
<rscale>  2 0.44900906E+03</rscale>
<asrwt>0</asrwt>
<pdfrwt beam="1">  1       21 0.22920091E-01 0.44900906E+03</pdfrwt>
<pdfrwt beam="2">  1       21 0.47557175E-01 0.44900906E+03</pdfrwt>
<totfact> 0.70026469E+04</totfact>
</mgrwt>
</event>
<event>
 7    0  0.4709932E-002  0.4544862E+03  0.7546771E-02  0.1026393E+00
         21   -1    0    0  502  501  0.00000000000E+00  0.00000000000E+00  0.24264111307E+03  0.24264111307E+03  0.00000000000E+00 0.  1.
         21   -1    0    0  501  502 -0.00000000000E+00 -0.00000000000E+00 -0.21282223002E+03  0.21282223002E+03  0.00000000000E+00 0.  1.
      99926    2    1    2    0    0  0.14210854715E-13  0.00000000000E+00  0.29818883055E+02  0.45546334309E+03  0.45448618363E+03 0.  0.
      99925    2    3    3    0    0  0.75173613902E+02 -0.64733800143E+02  0.72335818134E+02  0.29024610738E+03  0.26299961056E+03 0.  0.
         25    1    4    4    0    0  0.69348607615E+01 -0.58855011168E+02  0.32720803618E+02  0.14223278006E+03  0.12509000000E+03 0.  0.
         25    1    3    3    0    0 -0.75173613902E+02  0.64733800143E+02 -0.42516935079E+02  0.16521723571E+03  0.12509000000E+03 0.  0.
         25    1    4    4    0    0  0.68238753141E+02 -0.58787889754E+01  0.39615014515E+02  0.14801332732E+03  0.12509000000E+03 0.  0.
<mgrwt>
<rscale>  2 0.45448618E+03</rscale>
<asrwt>0</asrwt>
<pdfrwt beam="1">  1       21 0.35682517E-01 0.45448618E+03</pdfrwt>
<pdfrwt beam="2">  1       21 0.31297387E-01 0.45448618E+03</pdfrwt>
<totfact> 0.68793493E+04</totfact>
</mgrwt>
</event>
<event>
 7    0  0.4709932E-002  0.4549676E+03  0.7546771E-02  0.1026251E+00
         21   -1    0    0  502  501  0.00000000000E+00  0.00000000000E+00  0.20363713772E+03  0.20363713772E+03  0.00000000000E+00 0.  1.
         21   -1    0    0  501  502 -0.00000000000E+00 -0.00000000000E+00 -0.25412302320E+03  0.25412302320E+03  0.00000000000E+00 0.  1.
      99926    2    1    2    0    0  0.14210854715E-13  0.00000000000E+00 -0.50485885475E+02  0.45776016092E+03  0.45496762555E+03 0.  0.
      99925    2    3    3    0    0 -0.10035033614E+03 -0.49558749611E+02 -0.15655771568E+02  0.28633407026E+03  0.26308902862E+03 0.  0.
         25    1    4    4    0    0 -0.46892692342E+02 -0.65120134772E+02 -0.15398117223E+02  0.14941273929E+03  0.12509000000E+03 0.  0.
         25    1    4    4    0    0 -0.53457643795E+02  0.15561385161E+02 -0.25765434486E+00  0.13692133097E+03  0.12509000000E+03 0.  0.
         25    1    3    3    0    0  0.10035033614E+03  0.49558749611E+02 -0.34830113907E+02  0.17142609066E+03  0.12509000000E+03 0.  0.
<mgrwt>
<rscale>  2 0.45496763E+03</rscale>
<asrwt>0</asrwt>
<pdfrwt beam="1">  1       21 0.29946638E-01 0.45496763E+03</pdfrwt>
<pdfrwt beam="2">  1       21 0.37371032E-01 0.45496763E+03</pdfrwt>
<totfact> 0.68361654E+04</totfact>
</mgrwt>
</event>
<event>
 7    0  0.4709932E-002  0.4576113E+03  0.7546771E-02  0.1025476E+00
         21   -1    0    0  502  501  0.00000000000E+00  0.00000000000E+00  0.54601749928E+03  0.54601749928E+03  0.00000000000E+00 0.  1.
         21   -1    0    0  501  502 -0.00000000000E+00 -0.00000000000E+00 -0.95879746778E+02  0.95879746778E+02  0.00000000000E+00 0.  1.
      99926    2    1    2    0    0  0.00000000000E+00  0.00000000000E+00  0.45013775250E+03  0.64189724606E+03  0.45761127420E+03 0.  0.
      99925    2    3    3    0    0 -0.10183449366E+03 -0.41063920444E+02  0.23178270678E+03  0.36733770106E+03  0.26297766786E+03 0.  0.
         25    1    3    3    0    0  0.10183449366E+03  0.41063920444E+02  0.21835504572E+03  0.27455954501E+03  0.12509000000E+03 0.  0.
         25    1    4    4    0    0 -0.72100062292E+02 -0.36366379436E+02  0.16546049290E+03  0.22258844388E+03  0.12509000000E+03 0.  0.
         25    1    4    4    0    0 -0.29734431366E+02 -0.46975410077E+01  0.66322213880E+02  0.14474925718E+03  0.12509000000E+03 0.  0.
<mgrwt>
<rscale>  2 0.45761127E+03</rscale>
<asrwt>0</asrwt>
<pdfrwt beam="1">  1       21 0.80296690E-01 0.45761127E+03</pdfrwt>
<pdfrwt beam="2">  1       21 0.14099963E-01 0.45761127E+03</pdfrwt>
<totfact> 0.55028006E+04</totfact>
</mgrwt>
</event>
<event>
 6    0  0.4709932E-002  0.4560363E+03  0.7546771E-02  0.1025937E+00
         21   -1    0    0  502  501  0.00000000000E+00  0.00000000000E+00  0.10429762865E+03  0.10429762865E+03  0.00000000000E+00 0.  1.
         21   -1    0    0  501  502 -0.00000000000E+00 -0.00000000000E+00 -0.49849921358E+03  0.49849921358E+03  0.00000000000E+00 0.  1.
      99926    2    1    2    0    0  0.00000000000E+00  0.00000000000E+00 -0.39420158492E+03  0.60279684223E+03  0.45603634005E+03 0.  0.
         25    1    3    3    0    0  0.90103139113E+01 -0.10221116610E+02 -0.69619162904E+02  0.14380539950E+03  0.12509000000E+03 0.  0.
         25    1    3    3    0    0 -0.11024267600E+02 -0.66869469907E+02 -0.26429651815E+03  0.30015532327E+03  0.12509000000E+03 0.  0.
         25    1    3    3    0    0  0.20139536891E+01  0.77090586517E+02 -0.60285903870E+02  0.15883611946E+03  0.12509000000E+03 0.  0.
<mgrwt>
<rscale>  2 0.45603634E+03</rscale>
<asrwt>0</asrwt>
<pdfrwt beam="1">  1       21 0.15337887E-01 0.45603634E+03</pdfrwt>
<pdfrwt beam="2">  1       21 0.73308707E-01 0.45603634E+03</pdfrwt>
<totfact> 0.58029849E+04</totfact>
</mgrwt>
</event>
<event>
 7    0  0.4709932E-002  0.4545922E+03  0.7546771E-02  0.1026361E+00
         21   -1    0    0  502  501  0.00000000000E+00  0.00000000000E+00  0.16815192791E+03  0.16815192791E+03  0.00000000000E+00 0.  1.
         21   -1    0    0  501  502 -0.00000000000E+00 -0.00000000000E+00 -0.30724313711E+03  0.30724313711E+03  0.00000000000E+00 0.  1.
      99926    2    1    2    0    0  0.00000000000E+00  0.00000000000E+00 -0.13909120920E+03  0.47539506502E+03  0.45459223857E+03 0.  0.
      99925    2    3    3    0    0 -0.99536676598E+02  0.12426507404E+02 -0.14159122273E+03  0.31503382830E+03  0.26293776934E+03 0.  0.
         25    1    4    4    0    0 -0.14469926306E+02 -0.75792092755E+01 -0.85792772531E+02  0.15256058173E+03  0.12509000000E+03 0.  0.
         25    1    3    3    0    0  0.99536676598E+02 -0.12426507404E+02  0.25000135381E+01  0.16036123672E+03  0.12509000000E+03 0.  0.
         25    1    4    4    0    0 -0.85066750292E+02  0.20005716679E+02 -0.55798450203E+02  0.16247324657E+03  0.12509000000E+03 0.  0.
<mgrwt>
<rscale>  2 0.45459224E+03</rscale>
<asrwt>0</asrwt>
<pdfrwt beam="1">  1       21 0.24728225E-01 0.45459224E+03</pdfrwt>
<pdfrwt beam="2">  1       21 0.45182814E-01 0.45459224E+03</pdfrwt>
<totfact> 0.67254237E+04</totfact>
</mgrwt>
</event>
<event>
 6    0  0.4709932E-002  0.4413839E+03  0.7546771E-02  0.1030323E+00
         21   -1    0    0  502  501  0.00000000000E+00  0.00000000000E+00  0.10045198284E+04  0.10045198284E+04  0.00000000000E+00 0. -1.
         21   -1    0    0  501  502 -0.00000000000E+00 -0.00000000000E+00 -0.48485782567E+02  0.48485782567E+02  0.00000000000E+00 0. -1.
      99926    2    1    2    0    0  0.00000000000E+00  0.00000000000E+00  0.95603404580E+03  0.10530056109E+04  0.44138386913E+03 0.  0.
         25    1    3    3    0    0  0.72824518060E+01  0.36716807998E+02  0.41771938996E+03  0.43765072255E+03  0.12509000000E+03 0.  0.
         25    1    3    3    0    0  0.65130146834E+02 -0.50448999635E+02  0.22861707789E+03  0.27331358180E+03  0.12509000000E+03 0.  0.
         25    1    3    3    0    0 -0.72412598640E+02  0.13732191636E+02  0.30969757794E+03  0.34204130659E+03  0.12509000000E+03 0.  0.
<mgrwt>
<rscale>  2 0.44138387E+03</rscale>
<asrwt>0</asrwt>
<pdfrwt beam="1">  1       21 0.14772349E+00 0.44138387E+03</pdfrwt>
<pdfrwt beam="2">  1       21 0.71302628E-02 0.44138387E+03</pdfrwt>
<totfact> 0.41394525E+04</totfact>
</mgrwt>
</event>
<event>
 7    0  0.4709932E-002  0.4737715E+03  0.7546771E-02  0.1020861E+00
         21   -1    0    0  502  501  0.00000000000E+00  0.00000000000E+00  0.42676578453E+02  0.42676578453E+02  0.00000000000E+00 0.  1.
         21   -1    0    0  501  502 -0.00000000000E+00 -0.00000000000E+00 -0.13148865387E+04  0.13148865387E+04  0.00000000000E+00 0.  1.
      99926    2    1    2    0    0  0.14210854715E-13  0.14210854715E-13 -0.12722099603E+04  0.13575631172E+04  0.47377149988E+03 0.  0.
      99925    2    3    3    0    0 -0.64641769533E+02 -0.10795552055E+03 -0.70567374847E+03  0.76389339404E+03  0.26405439855E+03 0.  0.
         25    1    4    4    0    0 -0.29087092646E+02 -0.96880775336E+02 -0.42246723529E+03  0.45205974891E+03  0.12509000000E+03 0.  0.
         25    1    3    3    0    0  0.64641769533E+02  0.10795552055E+03 -0.56653621180E+03  0.59366972313E+03  0.12509000000E+03 0.  0.
         25    1    4    4    0    0 -0.35554676886E+02 -0.11074745211E+02 -0.28320651317E+03  0.31183364513E+03  0.12509000000E+03 0.  0.
<mgrwt>
<rscale>  2 0.47377150E+03</rscale>
<asrwt>0</asrwt>
<pdfrwt beam="1">  1       21 0.62759674E-02 0.47377150E+03</pdfrwt>
<pdfrwt beam="2">  1       21 0.19336567E+00 0.47377150E+03</pdfrwt>
<totfact> 0.23815425E+04</totfact>
</mgrwt>
</event>
<event>
 7    0  0.4709932E-002  0.4591730E+03  0.7546771E-02  0.1025021E+00
         21   -1    0    0  502  501  0.00000000000E+00  0.00000000000E+00  0.13143839997E+03  0.13143839997E+03  0.00000000000E+00 0.  1.
         21   -1    0    0  501  502 -0.00000000000E+00 -0.00000000000E+00 -0.40102410427E+03  0.40102410427E+03  0.00000000000E+00 0.  1.
      99926    2    1    2    0    0  0.00000000000E+00  0.00000000000E+00 -0.26958570430E+03  0.53246250424E+03  0.45917302453E+03 0.  0.
      99925    2    3    3    0    0 -0.37240663206E+02 -0.92538906631E+02 -0.97794798452E+02  0.29770744110E+03  0.26289842458E+03 0.  0.
         25    1    4    4    0    0 -0.22552973535E+02 -0.53371182154E+02 -0.78913437855E+01  0.13808295009E+03  0.12509000000E+03 0.  0.
         25    1    4    4    0    0 -0.14687689672E+02 -0.39167724476E+02 -0.89903454666E+02  0.15962449101E+03  0.12509000000E+03 0.  0.
         25    1    3    3    0    0  0.37240663206E+02  0.92538906631E+02 -0.17179090584E+03  0.23475506313E+03  0.12509000000E+03 0.  0.
<mgrwt>
<rscale>  2 0.45917302E+03</rscale>
<asrwt>0</asrwt>
<pdfrwt beam="1">  1       21 0.19329176E-01 0.45917302E+03</pdfrwt>
<pdfrwt beam="2">  1       21 0.58974133E-01 0.45917302E+03</pdfrwt>
<totfact> 0.60997512E+04</totfact>
</mgrwt>
</event>
