<event>
 7    0  0.4709932E-002  0.4549517E+03  0.7546771E-02  0.1026256E+00
         21   -1    0    0  502  501  0.00000000000E+00  0.00000000000E+00  0.78215744675E+02  0.78215744675E+02  0.00000000000E+00 0.  1.
         21   -1    0    0  501  502 -0.00000000000E+00 -0.00000000000E+00 -0.66157089406E+03  0.66157089406E+03  0.00000000000E+00 0.  1.
      99926    2    1    2    0    0 -0.71054273576E-14  0.00000000000E+00 -0.58335514939E+03  0.73978663874E+03  0.45495169033E+03 0.  0.
      99925    2    3    3    0    0  0.28562427418E+02  0.10658470825E+03 -0.32678926789E+03  0.43376429978E+03  0.26302876242E+03 0.  0.
         25    1    4    4    0    0  0.32421788982E+02  0.82310174298E+02 -0.13949699413E+03  0.20720293595E+03  0.12509000000E+03 0.  0.
         25    1    3    3    0    0 -0.28562427418E+02 -0.10658470825E+03 -0.25656588150E+03  0.30602233896E+03  0.12509000000E+03 0.  0.
         25    1    4    4    0    0 -0.38593615639E+01  0.24274533956E+02 -0.18729227376E+03  0.22656136383E+03  0.12509000000E+03 0.  0.
<mgrwt>
<rscale>  2 0.45495169E+03</rscale>
<asrwt>0</asrwt>
<pdfrwt beam="1">  1       21 0.11502315E-01 0.45495169E+03</pdfrwt>
<pdfrwt beam="2">  1       21 0.97289837E-01 0.45495169E+03</pdfrwt>
<totfact> 0.50814763E+04</totfact>
</mgrwt>
</event>
<event>
 7    0  0.4709932E-002  0.4662662E+03  0.7546771E-02  0.1022979E+00
         21   -1    0    0  502  501  0.00000000000E+00  0.00000000000E+00  0.54911341778E+02  0.54911341778E+02  0.00000000000E+00 0. -1.
         21   -1    0    0  501  502 -0.00000000000E+00 -0.00000000000E+00 -0.98979610392E+03  0.98979610392E+03  0.00000000000E+00 0. -1.
      99926    2    1    2    0    0  0.14210854715E-13 -0.71054273576E-14 -0.93488476214E+03  0.10447074457E+04  0.46626615641E+03 0.  0.
      99925    2    3    3    0    0  0.83170985243E+02  0.63036896129E+02 -0.43470875481E+03  0.51867074596E+03  0.26297638325E+03 0.  0.
         25    1    4    4    0    0  0.59510611767E+02 -0.22434774872E+01 -0.23886354998E+03  0.27613375330E+03  0.12509000000E+03 0.  0.
         25    1    4    4    0    0  0.23660373476E+02  0.65280373616E+02 -0.19584520483E+03  0.24253699265E+03  0.12509000000E+03 0.  0.
         25    1    3    3    0    0 -0.83170985243E+02 -0.63036896129E+02 -0.50017600734E+03  0.52603669974E+03  0.12509000000E+03 0.  0.
<mgrwt>
<rscale>  2 0.46626616E+03</rscale>
<asrwt>0</asrwt>
<pdfrwt beam="1">  1       21 0.80751968E-02 0.46626616E+03</pdfrwt>
<pdfrwt beam="2">  1       21 0.14555826E+00 0.46626616E+03</pdfrwt>
<totfact> 0.34350456E+04</totfact>
</mgrwt>
</event>
<event>
 7    0  0.4709932E-002  0.4522353E+03  0.7546771E-02  0.1027058E+00
         21   -1    0    0  502  501  0.00000000000E+00  0.00000000000E+00  0.49242476427E+02  0.49242476427E+02  0.00000000000E+00 0.  1.
         21   -1    0    0  501  502 -0.00000000000E+00 -0.00000000000E+00 -0.10383149995E+04  0.10383149995E+04  0.00000000000E+00 0.  1.
      99926    2    1    2    0    0  0.00000000000E+00  0.00000000000E+00 -0.98907252308E+03  0.10875574759E+04  0.45223534531E+03 0.  0.
      99925    2    3    3    0    0  0.57551899760E+01 -0.11017395279E+03 -0.60468403218E+03  0.66854262880E+03  0.26293544009E+03 0.  0.
         25    1    4    4    0    0  0.60940648025E+01 -0.43499204523E+02 -0.20184408788E+03  0.24149091563E+03  0.12509000000E+03 0.  0.
         25    1    4    4    0    0 -0.33887482653E+00 -0.66674748272E+02 -0.40283994430E+03  0.42705171316E+03  0.12509000000E+03 0.  0.
         25    1    3    3    0    0 -0.57551899760E+01  0.11017395279E+03 -0.38438849090E+03  0.41901484714E+03  0.12509000000E+03 0.  0.
<mgrwt>
<rscale>  2 0.45223535E+03</rscale>
<asrwt>0</asrwt>
<pdfrwt beam="1">  1       21 0.72415412E-02 0.45223535E+03</pdfrwt>
<pdfrwt beam="2">  1       21 0.15269337E+00 0.45223535E+03</pdfrwt>
<totfact> 0.36714255E+04</totfact>
</mgrwt>
</event>
<event>
 7    0  0.4709932E-002  0.4285296E+03  0.7546771E-02  0.1034325E+00
         21   -1    0    0  502  501  0.00000000000E+00  0.00000000000E+00  0.36991437907E+03  0.36991437907E+03  0.00000000000E+00 0. -1.
         21   -1    0    0  501  502 -0.00000000000E+00 -0.00000000000E+00 -0.12410818138E+03  0.12410818138E+03  0.00000000000E+00 0. -1.
      99926    2    1    2    0    0  0.00000000000E+00  0.00000000000E+00  0.24580619769E+03  0.49402256045E+03  0.42852958289E+03 0.  0.
      99925    2    3    3    0    0 -0.14747400721E+02 -0.76185849810E+02  0.20162179453E+03  0.34032955761E+03  0.26296594878E+03 0.  0.
         25    1    4    4    0    0  0.19805253464E+02 -0.68750869991E+02  0.10179813821E+03  0.17643497168E+03  0.12509000000E+03 0.  0.
         25    1    3    3    0    0  0.14747400721E+02  0.76185849810E+02  0.44184403155E+02  0.15369300284E+03  0.12509000000E+03 0.  0.
         25    1    4    4    0    0 -0.34552654185E+02 -0.74349798192E+01  0.99823656326E+02  0.16389458593E+03  0.12509000000E+03 0.  0.
<mgrwt>
<rscale>  2 0.42852958E+03</rscale>
<asrwt>0</asrwt>
<pdfrwt beam="1">  1       21 0.54399173E-01 0.42852958E+03</pdfrwt>
<pdfrwt beam="2">  1       21 0.18251203E-01 0.42852958E+03</pdfrwt>
<totfact> 0.81514879E+04</totfact>
</mgrwt>
</event>
<event>
 7    0  0.4709932E-002  0.4532486E+03  0.7546771E-02  0.1026758E+00
         21   -1    0    0  502  501  0.00000000000E+00  0.00000000000E+00  0.56388120078E+03  0.56388120078E+03  0.00000000000E+00 0.  1.
         21   -1    0    0  501  502 -0.00000000000E+00 -0.00000000000E+00 -0.91080469927E+02  0.91080469927E+02  0.00000000000E+00 0.  1.
      99926    2    1    2    0    0  0.00000000000E+00  0.00000000000E+00  0.47280073085E+03  0.65496167070E+03  0.45324856205E+03 0.  0.
      99925    2    3    3    0    0  0.13275306214E+02  0.79471875236E+02  0.18686744983E+03  0.33263053351E+03  0.26311901359E+03 0.  0.
         25    1    4    4    0    0  0.14916961605E+02  0.79942260696E+01  0.56397973639E+02  0.13825578803E+03  0.12509000000E+03 0.  0.
         25    1    3    3    0    0 -0.13275306214E+02 -0.79471875236E+02  0.28593328102E+03  0.32233113719E+03  0.12509000000E+03 0.  0.
         25    1    4    4    0    0 -0.16416553904E+01  0.71477649166E+02  0.13046947619E+03  0.19437474548E+03  0.12509000000E+03 0.  0.
<mgrwt>
<rscale>  2 0.45324856E+03</rscale>
<asrwt>0</asrwt>
<pdfrwt beam="1">  1       21 0.82923705E-01 0.45324856E+03</pdfrwt>
<pdfrwt beam="2">  1       21 0.13394187E-01 0.45324856E+03</pdfrwt>
<totfact> 0.56188763E+04</totfact>
</mgrwt>
</event>
<event>
 7    0  0.4709932E-002  0.4533390E+03  0.7546771E-02  0.1026731E+00
         21   -1    0    0  502  501  0.00000000000E+00  0.00000000000E+00  0.68458259460E+02  0.68458259460E+02  0.00000000000E+00 0.  1.
         21   -1    0    0  501  502 -0.00000000000E+00 -0.00000000000E+00 -0.75051665020E+03  0.75051665020E+03  0.00000000000E+00 0.  1.
      99926    2    1    2    0    0  0.00000000000E+00  0.00000000000E+00 -0.68205839074E+03  0.81897490966E+03  0.45333900590E+03 0.  0.
      99925    2    3    3    0    0 -0.70846772292E+02 -0.11885419849E+02 -0.58415660837E+03  0.64463961364E+03  0.26298433416E+03 0.  0.
         25    1    4    4    0    0 -0.34545878696E+01  0.12375804253E+02 -0.31792882167E+03  0.34189375317E+03  0.12509000000E+03 0.  0.
         25    1    3    3    0    0  0.70846772292E+02  0.11885419849E+02 -0.97901782368E+02  0.17433529603E+03  0.12509000000E+03 0.  0.
         25    1    4    4    0    0 -0.67392184423E+02 -0.24261224101E+02 -0.26622778670E+03  0.30274586046E+03  0.12509000000E+03 0.  0.
<mgrwt>
<rscale>  2 0.45333901E+03</rscale>
<asrwt>0</asrwt>
<pdfrwt beam="1">  1       21 0.10067391E-01 0.45333901E+03</pdfrwt>
<pdfrwt beam="2">  1       21 0.11037009E+00 0.45333901E+03</pdfrwt>
<totfact> 0.47476439E+04</totfact>
</mgrwt>
</event>
<event>
 7    0  0.4709932E-002  0.4594612E+03  0.7546771E-02  0.1024938E+00
         21   -1    0    0  502  501  0.00000000000E+00  0.00000000000E+00  0.15315995177E+03  0.15315995177E+03  0.00000000000E+00 0. -1.
         21   -1    0    0  501  502 -0.00000000000E+00 -0.00000000000E+00 -0.34458198313E+03  0.34458198313E+03  0.00000000000E+00 0. -1.
      99926    2    1    2    0    0  0.00000000000E+00  0.00000000000E+00 -0.19142203136E+03  0.49774193490E+03  0.45946124936E+03 0.  0.
      99925    2    3    3    0    0 -0.24093831868E+02 -0.90858646178E+02 -0.19604719193E+03  0.34120214274E+03  0.26296120326E+03 0.  0.
         25    1    4    4    0    0 -0.29509336862E+02 -0.63273712343E+02 -0.63194928219E+02  0.15657416993E+03  0.12509000000E+03 0.  0.
         25    1    4    4    0    0  0.54155049946E+01 -0.27584933834E+02 -0.13285226371E+03  0.18462797281E+03  0.12509000000E+03 0.  0.
         25    1    3    3    0    0  0.24093831868E+02  0.90858646178E+02  0.46251605744E+01  0.15653979216E+03  0.12509000000E+03 0.  0.
<mgrwt>
<rscale>  2 0.45946125E+03</rscale>
<asrwt>0</asrwt>
<pdfrwt beam="1">  1       21 0.22523523E-01 0.45946125E+03</pdfrwt>
<pdfrwt beam="2">  1       21 0.50673820E-01 0.45946125E+03</pdfrwt>
<totfact> 0.63162819E+04</totfact>
</mgrwt>
</event>
<event>
 7    0  0.4709932E-002  0.4580480E+03  0.7546771E-02  0.1025349E+00
         21   -1    0    0  502  501  0.00000000000E+00  0.00000000000E+00  0.11191784950E+03  0.11191784950E+03  0.00000000000E+00 0. -1.
         21   -1    0    0  501  502 -0.00000000000E+00 -0.00000000000E+00 -0.46866519380E+03  0.46866519380E+03  0.00000000000E+00 0. -1.
      99926    2    1    2    0    0  0.00000000000E+00  0.00000000000E+00 -0.35674734430E+03  0.58058304330E+03  0.45804803515E+03 0.  0.
      99925    2    3    3    0    0  0.65885099500E+02 -0.95137290063E+02 -0.21433102615E+03  0.35849777573E+03  0.26304166236E+03 0.  0.
         25    1    4    4    0    0 -0.24011759993E+01 -0.40255753297E+02 -0.72609176719E+02  0.15015289529E+03  0.12509000000E+03 0.  0.
         25    1    3    3    0    0 -0.65885099500E+02  0.95137290063E+02 -0.14241631815E+03  0.22208526757E+03  0.12509000000E+03 0.  0.
         25    1    4    4    0    0  0.68286275500E+02 -0.54881536766E+02 -0.14172184943E+03  0.20834488044E+03  0.12509000000E+03 0.  0.
<mgrwt>
<rscale>  2 0.45804804E+03</rscale>
<asrwt>0</asrwt>
<pdfrwt beam="1">  1       21 0.16458508E-01 0.45804804E+03</pdfrwt>
<pdfrwt beam="2">  1       21 0.68921351E-01 0.45804804E+03</pdfrwt>
<totfact> 0.58467961E+04</totfact>
</mgrwt>
</event>
<event>
 7    0  0.4709932E-002  0.4491919E+03  0.7546771E-02  0.1027963E+00
         21   -1    0    0  502  501  0.00000000000E+00  0.00000000000E+00  0.15144161011E+03  0.15144161011E+03  0.00000000000E+00 0. -1.
         21   -1    0    0  501  502 -0.00000000000E+00 -0.00000000000E+00 -0.33308773566E+03  0.33308773566E+03  0.00000000000E+00 0. -1.
      99926    2    1    2    0    0  0.00000000000E+00  0.00000000000E+00 -0.18164612555E+03  0.48452934578E+03  0.44919190998E+03 0.  0.
      99925    2    3    3    0    0 -0.91081429876E+02  0.40542547786E+02 -0.15848720108E+03  0.32290209272E+03  0.26307421676E+03 0.  0.
         25    1    3    3    0    0  0.91081429876E+02 -0.40542547786E+02 -0.23158924471E+02  0.16162725306E+03  0.12509000000E+03 0.  0.
         25    1    4    4    0    0 -0.59217918245E+02  0.58872258763E+02 -0.94957581108E+02  0.17786836426E+03  0.12509000000E+03 0.  0.
         25    1    4    4    0    0 -0.31863511631E+02 -0.18329710976E+02 -0.63529619969E+02  0.14503372846E+03  0.12509000000E+03 0.  0.
<mgrwt>
<rscale>  2 0.44919191E+03</rscale>
<asrwt>0</asrwt>
<pdfrwt beam="1">  1       21 0.22270825E-01 0.44919191E+03</pdfrwt>
<pdfrwt beam="2">  1       21 0.48983490E-01 0.44919191E+03</pdfrwt>
<totfact> 0.69522525E+04</totfact>
</mgrwt>
</event>
<event>
 7    0  0.4709932E-002  0.4513160E+03  0.7546771E-02  0.1027330E+00
         21   -1    0    0  502  501  0.00000000000E+00  0.00000000000E+00  0.16369833786E+03  0.16369833786E+03  0.00000000000E+00 0. -1.
         21   -1    0    0  501  502 -0.00000000000E+00 -0.00000000000E+00 -0.31106937926E+03  0.31106937926E+03  0.00000000000E+00 0. -1.
      99926    2    1    2    0    0  0.00000000000E+00  0.14210854715E-13 -0.14737104140E+03  0.47476771712E+03  0.45131603271E+03 0.  0.
      99925    2    3    3    0    0 -0.12872213884E+02  0.90476809434E+02 -0.15683870656E+03  0.31956175165E+03  0.26300111465E+03 0.  0.
         25    1    4    4    0    0  0.61572272836E+01  0.84656057181E+02 -0.95702620893E+02  0.17891634696E+03  0.12509000000E+03 0.  0.
         25    1    4    4    0    0 -0.19029441168E+02  0.58207522527E+01 -0.61136085667E+02  0.14064540468E+03  0.12509000000E+03 0.  0.
         25    1    3    3    0    0  0.12872213884E+02 -0.90476809434E+02  0.94676651642E+01  0.15520596548E+03  0.12509000000E+03 0.  0.
<mgrwt>
<rscale>  2 0.45131603E+03</rscale>
<asrwt>0</asrwt>
<pdfrwt beam="1">  1       21 0.24073285E-01 0.45131603E+03</pdfrwt>
<pdfrwt beam="2">  1       21 0.45745497E-01 0.45131603E+03</pdfrwt>
<totfact> 0.69080774E+04</totfact>
</mgrwt>
</event>
<event>
 7    0  0.4709932E-002  0.4566438E+03  0.7546771E-02  0.1025759E+00
         21   -1    0    0  502  501  0.00000000000E+00  0.00000000000E+00  0.50298118176E+03  0.50298118176E+03  0.00000000000E+00 0.  1.
         21   -1    0    0  501  502 -0.00000000000E+00 -0.00000000000E+00 -0.10364381129E+03  0.10364381129E+03  0.00000000000E+00 0.  1.
      99926    2    1    2    0    0  0.00000000000E+00  0.00000000000E+00  0.39933737047E+03  0.60662499306E+03  0.45664378540E+03 0.  0.
      99925    2    3    3    0    0  0.75563458143E+02 -0.54275882094E+02  0.34008186026E+03  0.43984840245E+03  0.26297383497E+03 0.  0.
         25    1    4    4    0    0  0.61937819035E+02  0.42149119293E+01  0.18423502811E+03  0.23117982739E+03  0.12509000000E+03 0.  0.
         25    1    4    4    0    0  0.13625639108E+02 -0.58490794023E+02  0.15584683215E+03  0.20866857506E+03  0.12509000000E+03 0.  0.
         25    1    3    3    0    0 -0.75563458143E+02  0.54275882094E+02  0.59255510210E+02  0.16677659060E+03  0.12509000000E+03 0.  0.
<mgrwt>
<rscale>  2 0.45664379E+03</rscale>
<asrwt>0</asrwt>
<pdfrwt beam="1">  1       21 0.73967820E-01 0.45664379E+03</pdfrwt>
<pdfrwt beam="2">  1       21 0.15241737E-01 0.45664379E+03</pdfrwt>
<totfact> 0.57521727E+04</totfact>
</mgrwt>
</event>
<event>
 7    0  0.4709932E-002  0.4569242E+03  0.7546771E-02  0.1025677E+00
         21   -1    0    0  502  501  0.00000000000E+00  0.00000000000E+00  0.30198072543E+02  0.30198072543E+02  0.00000000000E+00 0. -1.
         21   -1    0    0  501  502 -0.00000000000E+00 -0.00000000000E+00 -0.17284195205E+04  0.17284195205E+04  0.00000000000E+00 0. -1.
      99926    2    1    2    0    0  0.14210854715E-13  0.00000000000E+00 -0.16982214479E+04  0.17586175930E+04  0.45692423032E+03 0.  0.
      99925    2    3    3    0    0 -0.74265820861E+02  0.71317565588E+02 -0.86879385015E+03  0.91351448962E+03  0.26287708416E+03 0.  0.
         25    1    3    3    0    0  0.74265820861E+02 -0.71317565588E+02 -0.82942759777E+03  0.84510310339E+03  0.12509000000E+03 0.  0.
         25    1    4    4    0    0 -0.69547408172E+01  0.45571269383E+01 -0.38636340226E+03  0.40619370075E+03  0.12509000000E+03 0.  0.
         25    1    4    4    0    0 -0.67311080044E+02  0.66760438650E+02 -0.48243044789E+03  0.50732078887E+03  0.12509000000E+03 0.  0.
<mgrwt>
<rscale>  2 0.45692423E+03</rscale>
<asrwt>0</asrwt>
<pdfrwt beam="1">  1       21 0.44408925E-02 0.45692423E+03</pdfrwt>
<pdfrwt beam="2">  1       21 0.25417937E+00 0.45692423E+03</pdfrwt>
<totfact> 0.17800918E+04</totfact>
</mgrwt>
</event>
<event>
 7    0  0.4709932E-002  0.4624587E+03  0.7546771E-02  0.1024071E+00
         21   -1    0    0  502  501  0.00000000000E+00  0.00000000000E+00  0.27991248935E+03  0.27991248935E+03  0.00000000000E+00 0. -1.
         21   -1    0    0  501  502 -0.00000000000E+00 -0.00000000000E+00 -0.19101333670E+03  0.19101333670E+03  0.00000000000E+00 0. -1.
      99926    2    1    2    0    0  0.00000000000E+00  0.14210854715E-13  0.88899152651E+02  0.47092582605E+03  0.46245872713E+03 0.  0.
      99925    2    3    3    0    0 -0.75323636578E+02  0.79800786097E+02  0.10525344362E+03  0.30372299527E+03  0.26292119498E+03 0.  0.
         25    1    4    4    0    0 -0.78342865681E+02  0.39715270133E+02  0.46247102768E+02  0.15969098252E+03  0.12509000000E+03 0.  0.
         25    1    4    4    0    0  0.30192291037E+01  0.40085515964E+02  0.59006340855E+02  0.14403201275E+03  0.12509000000E+03 0.  0.
         25    1    3    3    0    0  0.75323636578E+02 -0.79800786097E+02 -0.16354290973E+02  0.16720283078E+03  0.12509000000E+03 0.  0.
<mgrwt>
<rscale>  2 0.46245873E+03</rscale>
<asrwt>0</asrwt>
<pdfrwt beam="1">  1       21 0.41163602E-01 0.46245873E+03</pdfrwt>
<pdfrwt beam="2">  1       21 0.28090196E-01 0.46245873E+03</pdfrwt>
<totfact> 0.63521902E+04</totfact>
</mgrwt>
</event>
<event>
 7    0  0.4709932E-002  0.4580031E+03  0.7546771E-02  0.1025362E+00
         21   -1    0    0  502  501  0.00000000000E+00  0.00000000000E+00  0.11732500124E+03  0.11732500124E+03  0.00000000000E+00 0. -1.
         21   -1    0    0  501  502 -0.00000000000E+00 -0.00000000000E+00 -0.44697805663E+03  0.44697805663E+03  0.00000000000E+00 0. -1.
      99926    2    1    2    0    0  0.00000000000E+00 -0.71054273576E-14 -0.32965305539E+03  0.56430305787E+03  0.45800306133E+03 0.  0.
      99925    2    3    3    0    0 -0.10666556319E+03 -0.40392535520E+02 -0.23245803580E+03  0.36910193279E+03  0.26304067953E+03 0.  0.
         25    1    4    4    0    0 -0.57062786360E+02 -0.35698204797E+02 -0.16744300292E+03  0.21957957724E+03  0.12509000000E+03 0.  0.
         25    1    3    3    0    0  0.10666556319E+03  0.40392535520E+02 -0.97195019592E+02  0.19520112507E+03  0.12509000000E+03 0.  0.
         25    1    4    4    0    0 -0.49602776832E+02 -0.46943307236E+01 -0.65015032873E+02  0.14952235555E+03  0.12509000000E+03 0.  0.
<mgrwt>
<rscale>  2 0.45800306E+03</rscale>
<asrwt>0</asrwt>
<pdfrwt beam="1">  1       21 0.17253677E-01 0.45800306E+03</pdfrwt>
<pdfrwt beam="2">  1       21 0.65732067E-01 0.45800306E+03</pdfrwt>
<totfact> 0.59505157E+04</totfact>
</mgrwt>
</event>
<event>
 7    0  0.4709932E-002  0.4300260E+03  0.7546771E-02  0.1033852E+00
         21   -1    0    0  502  501  0.00000000000E+00  0.00000000000E+00  0.48723892261E+03  0.48723892261E+03  0.00000000000E+00 0.  1.
         21   -1    0    0  501  502 -0.00000000000E+00 -0.00000000000E+00 -0.94882786263E+02  0.94882786263E+02  0.00000000000E+00 0.  1.
      99926    2    1    2    0    0  0.00000000000E+00  0.14210854715E-13  0.39235613635E+03  0.58212170888E+03  0.43002598318E+03 0.  0.
      99925    2    3    3    0    0 -0.46088944996E+02 -0.73041807002E+02  0.23244163919E+03  0.36148750726E+03  0.26303004744E+03 0.  0.
         25    1    4    4    0    0 -0.41191471124E+02 -0.70427657147E+02  0.10317053475E+03  0.18151710532E+03  0.12509000000E+03 0.  0.
         25    1    4    4    0    0 -0.48974738723E+01 -0.26141498546E+01  0.12927110445E+03  0.17997040194E+03  0.12509000000E+03 0.  0.
         25    1    3    3    0    0  0.46088944996E+02  0.73041807002E+02  0.15991449716E+03  0.22063420161E+03  0.12509000000E+03 0.  0.
<mgrwt>
<rscale>  2 0.43002598E+03</rscale>
<asrwt>0</asrwt>
<pdfrwt beam="1">  1       21 0.71652782E-01 0.43002598E+03</pdfrwt>
<pdfrwt beam="2">  1       21 0.13953351E-01 0.43002598E+03</pdfrwt>
<totfact> 0.73209219E+04</totfact>
</mgrwt>
</event>
<event>
 7    0  0.4709932E-002  0.4576574E+03  0.7546771E-02  0.1025463E+00
         21   -1    0    0  502  501  0.00000000000E+00  0.00000000000E+00  0.64474785600E+02  0.64474785600E+02  0.00000000000E+00 0.  1.
         21   -1    0    0  501  502 -0.00000000000E+00 -0.00000000000E+00 -0.81214041310E+03  0.81214041310E+03  0.00000000000E+00 0.  1.
      99926    2    1    2    0    0  0.00000000000E+00  0.00000000000E+00 -0.74766562750E+03  0.87661519870E+03  0.45765742215E+03 0.  0.
      99925    2    3    3    0    0 -0.44723041879E+02 -0.72280983570E+02 -0.31918442298E+03  0.42222732277E+03  0.26300670175E+03 0.  0.
         25    1    4    4    0    0 -0.27390357530E+02 -0.24444231523E+02 -0.98062142558E+02  0.16313014450E+03  0.12509000000E+03 0.  0.
         25    1    3    3    0    0  0.44723041879E+02  0.72280983570E+02 -0.42848120452E+03  0.45438787593E+03  0.12509000000E+03 0.  0.
         25    1    4    4    0    0 -0.17332684349E+02 -0.47836752047E+02 -0.22112228042E+03  0.25909717828E+03  0.12509000000E+03 0.  0.
<mgrwt>
<rscale>  2 0.45765742E+03</rscale>
<asrwt>0</asrwt>
<pdfrwt beam="1">  1       21 0.94815866E-02 0.45765742E+03</pdfrwt>
<pdfrwt beam="2">  1       21 0.11943241E+00 0.45765742E+03</pdfrwt>
<totfact> 0.43350876E+04</totfact>
</mgrwt>
</event>
<event>
 7    0  0.4709932E-002  0.4530234E+03  0.7546771E-02  0.1026824E+00
         21   -1    0    0  502  501  0.00000000000E+00  0.00000000000E+00  0.17432009694E+04  0.17432009694E+04  0.00000000000E+00 0.  1.
         21   -1    0    0  501  502 -0.00000000000E+00 -0.00000000000E+00 -0.29432956625E+02  0.29432956625E+02  0.00000000000E+00 0.  1.
      99926    2    1    2    0    0  0.00000000000E+00 -0.17763568394E-14  0.17137680127E+04  0.17726339260E+04  0.45302343657E+03 0.  0.
      99925    2    3    3    0    0  0.10805099344E+03  0.10709340977E+02  0.98122421450E+03  0.10215962228E+04  0.26280824979E+03 0.  0.
         25    1    4    4    0    0  0.39026000249E+02  0.42783699461E+02  0.46335170210E+03  0.48342091553E+03  0.12509000000E+03 0.  0.
         25    1    4    4    0    0  0.69024993191E+02 -0.32074358484E+02  0.51787251240E+03  0.53817530727E+03  0.12509000000E+03 0.  0.
         25    1    3    3    0    0 -0.10805099344E+03 -0.10709340977E+02  0.73254379825E+03  0.75103770319E+03  0.12509000000E+03 0.  0.
<mgrwt>
<rscale>  2 0.45302344E+03</rscale>
<asrwt>0</asrwt>
<pdfrwt beam="1">  1       21 0.25635301E+00 0.45302344E+03</pdfrwt>
<pdfrwt beam="2">  1       21 0.43283772E-02 0.45302344E+03</pdfrwt>
<totfact> 0.18066913E+04</totfact>
</mgrwt>
</event>
<event>
 7    0  0.4709932E-002  0.4519014E+03  0.7546771E-02  0.1027157E+00
         21   -1    0    0  502  501  0.00000000000E+00  0.00000000000E+00  0.89352773867E+03  0.89352773867E+03  0.00000000000E+00 0.  1.
         21   -1    0    0  501  502 -0.00000000000E+00 -0.00000000000E+00 -0.57137238614E+02  0.57137238614E+02  0.00000000000E+00 0.  1.
      99926    2    1    2    0    0  0.14210854715E-13  0.00000000000E+00  0.83639050006E+03  0.95066497728E+03  0.45190135035E+03 0.  0.
      99925    2    3    3    0    0 -0.68524714993E+02  0.41730483563E+02  0.68677699775E+03  0.73978876242E+03  0.26303554615E+03 0.  0.
         25    1    4    4    0    0 -0.34217003192E+01  0.10083991110E+02  0.25053435361E+03  0.28022913008E+03  0.12509000000E+03 0.  0.
         25    1    3    3    0    0  0.68524714993E+02 -0.41730483563E+02  0.14961350231E+03  0.21087621487E+03  0.12509000000E+03 0.  0.
         25    1    4    4    0    0 -0.65103014674E+02  0.31646492452E+02  0.43624264414E+03  0.45955963233E+03  0.12509000000E+03 0.  0.
<mgrwt>
<rscale>  2 0.45190135E+03</rscale>
<asrwt>0</asrwt>
<pdfrwt beam="1">  1       21 0.13140113E+00 0.45190135E+03</pdfrwt>
<pdfrwt beam="2">  1       21 0.84025357E-02 0.45190135E+03</pdfrwt>
<totfact> 0.42125387E+04</totfact>
</mgrwt>
</event>
<event>
 7    0  0.4709932E-002  0.4542374E+03  0.7546771E-02  0.1026466E+00
         21   -1    0    0  502  501  0.00000000000E+00  0.00000000000E+00  0.25375414033E+02  0.25375414033E+02  0.00000000000E+00 0. -1.
         21   -1    0    0  501  502 -0.00000000000E+00 -0.00000000000E+00 -0.20327909184E+04  0.20327909184E+04  0.00000000000E+00 0. -1.
      99926    2    1    2    0    0  0.00000000000E+00  0.00000000000E+00 -0.20074155044E+04  0.20581663325E+04  0.45423743218E+03 0.  0.
      99925    2    3    3    0    0 -0.73784958213E+02  0.53964680348E+02 -0.15607633745E+04  0.15854063088E+04  0.26301035311E+03 0.  0.
         25    1    4    4    0    0 -0.42618084285E+02  0.22257901556E+02 -0.55661684256E+03  0.57252208063E+03  0.12509000000E+03 0.  0.
         25    1    3    3    0    0  0.73784958213E+02 -0.53964680348E+02 -0.44665212987E+03  0.47276002370E+03  0.12509000000E+03 0.  0.
         25    1    4    4    0    0 -0.31166873929E+02  0.31706778792E+02 -0.10041465320E+04  0.10128842281E+04  0.12509000000E+03 0.  0.
<mgrwt>
<rscale>  2 0.45423743E+03</rscale>
<asrwt>0</asrwt>
<pdfrwt beam="1">  1       21 0.37316770E-02 0.45423743E+03</pdfrwt>
<pdfrwt beam="2">  1       21 0.29893996E+00 0.45423743E+03</pdfrwt>
<totfact> 0.12859219E+04</totfact>
</mgrwt>
</event>
<event>
 7    0  0.4709932E-002  0.4525980E+03  0.7546771E-02  0.1026950E+00
         21   -1    0    0  502  501  0.00000000000E+00  0.00000000000E+00  0.37161735737E+03  0.37161735737E+03  0.00000000000E+00 0.  1.
         21   -1    0    0  501  502 -0.00000000000E+00 -0.00000000000E+00 -0.13780637050E+03  0.13780637050E+03  0.00000000000E+00 0.  1.
      99926    2    1    2    0    0  0.00000000000E+00  0.00000000000E+00  0.23381098687E+03  0.50942372787E+03  0.45259800810E+03 0.  0.
      99925    2    3    3    0    0  0.69369393844E+02 -0.48494442402E+02  0.66712679611E+02  0.28418346474E+03  0.26295595879E+03 0.  0.
         25    1    4    4    0    0  0.47285306644E+02  0.11665653126E+01  0.62787910325E+02  0.14773994342E+03  0.12509000000E+03 0.  0.
         25    1    4    4    0    0  0.22084087199E+02 -0.49661007715E+02  0.39247692859E+01  0.13644352131E+03  0.12509000000E+03 0.  0.
         25    1    3    3    0    0 -0.69369393844E+02  0.48494442402E+02  0.16709830726E+03  0.22524026313E+03  0.12509000000E+03 0.  0.
<mgrwt>
<rscale>  2 0.45259801E+03</rscale>
<asrwt>0</asrwt>
<pdfrwt beam="1">  1       21 0.54649611E-01 0.45259801E+03</pdfrwt>
<pdfrwt beam="2">  1       21 0.20265643E-01 0.45259801E+03</pdfrwt>
<totfact> 0.65860087E+04</totfact>
</mgrwt>
</event>
<event>
 7    0  0.4709932E-002  0.4534452E+03  0.7546771E-02  0.1026700E+00
         21   -1    0    0  502  501  0.00000000000E+00  0.00000000000E+00  0.25995613056E+03  0.25995613056E+03  0.00000000000E+00 0. -1.
         21   -1    0    0  501  502 -0.00000000000E+00 -0.00000000000E+00 -0.19773776897E+03  0.19773776897E+03  0.00000000000E+00 0. -1.
      99926    2    1    2    0    0  0.00000000000E+00  0.00000000000E+00  0.62218361592E+02  0.45769389952E+03  0.45344523500E+03 0.  0.
      99925    2    3    3    0    0 -0.14642176685E+02 -0.95283130966E+02  0.96381524666E+02  0.29611451286E+03  0.26287095321E+03 0.  0.
         25    1    3    3    0    0  0.14642176685E+02  0.95283130966E+02 -0.34163163074E+02  0.16157938667E+03  0.12509000000E+03 0.  0.
         25    1    4    4    0    0 -0.20557776457E+02 -0.13469029702E+02  0.23157498476E+02  0.12956779990E+03  0.12509000000E+03 0.  0.
         25    1    4    4    0    0  0.59155997720E+01 -0.81814101264E+02  0.73224026190E+02  0.16654671296E+03  0.12509000000E+03 0.  0.
<mgrwt>
<rscale>  2 0.45344523E+03</rscale>
<asrwt>0</asrwt>
<pdfrwt beam="1">  1       21 0.38228843E-01 0.45344523E+03</pdfrwt>
<pdfrwt beam="2">  1       21 0.29079083E-01 0.45344523E+03</pdfrwt>
<totfact> 0.69203030E+04</totfact>
</mgrwt>
</event>
<event>
 7    0  0.4709932E-002  0.4570705E+03  0.7546771E-02  0.1025634E+00
         21   -1    0    0  502  501  0.00000000000E+00  0.00000000000E+00  0.55856859404E+03  0.55856859404E+03  0.00000000000E+00 0.  1.
         21   -1    0    0  501  502 -0.00000000000E+00 -0.00000000000E+00 -0.93503942254E+02  0.93503942254E+02  0.00000000000E+00 0.  1.
      99926    2    1    2    0    0 -0.35527136788E-14 -0.35527136788E-14  0.46506465178E+03  0.65207253629E+03  0.45707052218E+03 0.  0.
      99925    2    3    3    0    0  0.19179685154E+02  0.20553709915E+02  0.45137320761E+03  0.52313348457E+03  0.26294591615E+03 0.  0.
         25    1    4    4    0    0  0.32669124548E+02  0.20150599721E+02  0.16687714527E+03  0.21205850155E+03  0.12509000000E+03 0.  0.
         25    1    4    4    0    0 -0.13489439395E+02  0.40311019370E+00  0.28449606234E+03  0.31107498302E+03  0.12509000000E+03 0.  0.
         25    1    3    3    0    0 -0.19179685154E+02 -0.20553709915E+02  0.13691444171E+02  0.12893905172E+03  0.12509000000E+03 0.  0.
<mgrwt>
<rscale>  2 0.45707052E+03</rscale>
<asrwt>0</asrwt>
<pdfrwt beam="1">  1       21 0.82142439E-01 0.45707052E+03</pdfrwt>
<pdfrwt beam="2">  1       21 0.13750580E-01 0.45707052E+03</pdfrwt>
<totfact> 0.54683592E+04</totfact>
</mgrwt>
</event>
<event>
 7    0  0.4709932E-002  0.4563902E+03  0.7546771E-02  0.1025833E+00
         21   -1    0    0  502  501  0.00000000000E+00  0.00000000000E+00  0.49033842487E+02  0.49033842487E+02  0.00000000000E+00 0.  1.
         21   -1    0    0  501  502 -0.00000000000E+00 -0.00000000000E+00 -0.10619809410E+04  0.10619809410E+04  0.00000000000E+00 0.  1.
      99926    2    1    2    0    0  0.00000000000E+00 -0.14210854715E-13 -0.10129470985E+04  0.11110147835E+04  0.45639021105E+03 0.  0.
      99925    2    3    3    0    0 -0.47961163747E+02  0.97304238603E+02 -0.54877102782E+03  0.61819096022E+03  0.26313881174E+03 0.  0.
         25    1    3    3    0    0  0.47961163747E+02 -0.97304238603E+02 -0.46417607068E+03  0.49282382326E+03  0.12509000000E+03 0.  0.
         25    1    4    4    0    0 -0.28705428267E+02  0.30769727017E+02 -0.34391189942E+03  0.36836623132E+03  0.12509000000E+03 0.  0.
         25    1    4    4    0    0 -0.19255735481E+02  0.66534511586E+02 -0.20485912840E+03  0.24982472890E+03  0.12509000000E+03 0.  0.
<mgrwt>
<rscale>  2 0.45639021E+03</rscale>
<asrwt>0</asrwt>
<pdfrwt beam="1">  1       21 0.72108605E-02 0.45639021E+03</pdfrwt>
<pdfrwt beam="2">  1       21 0.15617364E+00 0.45639021E+03</pdfrwt>
<totfact> 0.34732887E+04</totfact>
</mgrwt>
</event>
<event>
 7    0  0.4709932E-002  0.4501280E+03  0.7546771E-02  0.1027684E+00
         21   -1    0    0  502  501  0.00000000000E+00  0.00000000000E+00  0.45906408243E+03  0.45906408243E+03  0.00000000000E+00 0. -1.
         21   -1    0    0  501  502 -0.00000000000E+00 -0.00000000000E+00 -0.11034148791E+03  0.11034148791E+03  0.00000000000E+00 0. -1.
      99926    2    1    2    0    0  0.00000000000E+00 -0.35527136788E-14  0.34872259451E+03  0.56940557034E+03  0.45012804357E+03 0.  0.
      99925    2    3    3    0    0  0.61251833415E+02 -0.18094099692E+02  0.33140735392E+03  0.42789052097E+03  0.26302144430E+03 0.  0.
         25    1    3    3    0    0 -0.61251833415E+02  0.18094099692E+02  0.17315240588E+02  0.14151504937E+03  0.12509000000E+03 0.  0.
         25    1    4    4    0    0  0.22594844440E+02  0.19026187612E+02  0.20613452109E+03  0.24292276899E+03  0.12509000000E+03 0.  0.
         25    1    4    4    0    0  0.38656988974E+02 -0.37120287303E+02  0.12527283283E+03  0.18496775198E+03  0.12509000000E+03 0.  0.
<mgrwt>
<rscale>  2 0.45012804E+03</rscale>
<asrwt>0</asrwt>
<pdfrwt beam="1">  1       21 0.67509423E-01 0.45012804E+03</pdfrwt>
<pdfrwt beam="2">  1       21 0.16226690E-01 0.45012804E+03</pdfrwt>
<totfact> 0.62994202E+04</totfact>
</mgrwt>
</event>
<event>
 7    0  0.4709932E-002  0.4006273E+03  0.7546771E-02  0.1043563E+00
         21   -1    0    0  502  501  0.00000000000E+00  0.00000000000E+00  0.23579419536E+03  0.23579419536E+03  0.00000000000E+00 0. -1.
         21   -1    0    0  501  502 -0.00000000000E+00 -0.00000000000E+00 -0.17017194000E+03  0.17017194000E+03  0.00000000000E+00 0. -1.
      99926    2    1    2    0    0  0.00000000000E+00  0.00000000000E+00  0.65622255357E+02  0.40596613536E+03  0.40062728647E+03 0.  0.
      99925    2    3    3    0    0  0.34881974258E+02  0.30235306273E+02  0.50865575516E+02  0.27181624318E+03  0.26299398740E+03 0.  0.
         25    1    4    4    0    0 -0.14220333759E+02  0.40915963564E-01  0.45874667106E+02  0.13399333098E+03  0.12509000000E+03 0.  0.
         25    1    4    4    0    0  0.49102308017E+02  0.30194390310E+02  0.49909084101E+01  0.13782291219E+03  0.12509000000E+03 0.  0.
         25    1    3    3    0    0 -0.34881974258E+02 -0.30235306273E+02  0.14756679841E+02  0.13414989219E+03  0.12509000000E+03 0.  0.
<mgrwt>
<rscale>  2 0.40062729E+03</rscale>
<asrwt>0</asrwt>
<pdfrwt beam="1">  1       21 0.34675617E-01 0.40062729E+03</pdfrwt>
<pdfrwt beam="2">  1       21 0.25025285E-01 0.40062729E+03</pdfrwt>
<totfact> 0.11444041E+05</totfact>
</mgrwt>
</event>
<event>
 7    0  0.4709932E-002  0.4523468E+03  0.7546771E-02  0.1027024E+00
         21   -1    0    0  502  501  0.00000000000E+00  0.00000000000E+00  0.26470168367E+03  0.26470168367E+03  0.00000000000E+00 0. -1.
         21   -1    0    0  501  502 -0.00000000000E+00 -0.00000000000E+00 -0.19325308700E+03  0.19325308700E+03  0.00000000000E+00 0. -1.
      99926    2    1    2    0    0 -0.35527136788E-14  0.00000000000E+00  0.71448596669E+02  0.45795477067E+03  0.45234684702E+03 0.  0.
      99925    2    3    3    0    0  0.21143890701E+02 -0.10396397573E+03  0.77017616798E+02  0.29383867015E+03  0.26297125016E+03 0.  0.
         25    1    4    4    0    0 -0.89380929840E+01 -0.20086608655E+02  0.56069796091E+02  0.13883332268E+03  0.12509000000E+03 0.  0.
         25    1    3    3    0    0 -0.21143890701E+02  0.10396397573E+03 -0.55690201296E+01  0.16411610052E+03  0.12509000000E+03 0.  0.
         25    1    4    4    0    0  0.30081983685E+02 -0.83877367079E+02  0.20947820707E+02  0.15500534747E+03  0.12509000000E+03 0.  0.
<mgrwt>
<rscale>  2 0.45234685E+03</rscale>
<asrwt>0</asrwt>
<pdfrwt beam="1">  1       21 0.38926718E-01 0.45234685E+03</pdfrwt>
<pdfrwt beam="2">  1       21 0.28419572E-01 0.45234685E+03</pdfrwt>
<totfact> 0.69794903E+04</totfact>
</mgrwt>
</event>
<event>
 7    0  0.4709932E-002  0.4742853E+03  0.7546771E-02  0.1020718E+00
         21   -1    0    0  502  501  0.00000000000E+00  0.00000000000E+00  0.42244947005E+02  0.42244947005E+02  0.00000000000E+00 0. -1.
         21   -1    0    0  501  502 -0.00000000000E+00 -0.00000000000E+00 -0.13312036642E+04  0.13312036642E+04  0.00000000000E+00 0. -1.
      99926    2    1    2    0    0  0.00000000000E+00  0.00000000000E+00 -0.12889587172E+04  0.13734486112E+04  0.47428526541E+03 0.  0.
      99925    2    3    3    0    0 -0.18254394384E+02  0.90422305464E+02 -0.53029042041E+03  0.59902333470E+03  0.26289086956E+03 0.  0.
         25    1    4    4    0    0  0.14570933008E+02  0.12532479180E+02 -0.26822400142E+03  0.29658219461E+03  0.12509000000E+03 0.  0.
         25    1    3    3    0    0  0.18254394384E+02 -0.90422305464E+02 -0.75866829680E+03  0.77442527651E+03  0.12509000000E+03 0.  0.
         25    1    4    4    0    0 -0.32825327392E+02  0.77889826284E+02 -0.26206641899E+03  0.30244114009E+03  0.12509000000E+03 0.  0.
<mgrwt>
<rscale>  2 0.47428527E+03</rscale>
<asrwt>0</asrwt>
<pdfrwt beam="1">  1       21 0.62124926E-02 0.47428527E+03</pdfrwt>
<pdfrwt beam="2">  1       21 0.19576523E+00 0.47428527E+03</pdfrwt>
<totfact> 0.23347340E+04</totfact>
</mgrwt>
</event>
<event>
 7    0  0.4709932E-002  0.4546483E+03  0.7546771E-02  0.1026345E+00
         21   -1    0    0  502  501  0.00000000000E+00  0.00000000000E+00  0.19312437431E+03  0.19312437431E+03  0.00000000000E+00 0. -1.
         21   -1    0    0  501  502 -0.00000000000E+00 -0.00000000000E+00 -0.26758025144E+03  0.26758025144E+03  0.00000000000E+00 0. -1.
      99926    2    1    2    0    0  0.14210854715E-13 -0.71054273576E-14 -0.74455877127E+02  0.46070462575E+03  0.45464829764E+03 0.  0.
      99925    2    3    3    0    0  0.10420015517E+03 -0.33673716813E+02 -0.74035801964E+02  0.29445398333E+03  0.26311643200E+03 0.  0.
         25    1    3    3    0    0 -0.10420015517E+03  0.33673716813E+02 -0.42007516286E+00  0.16625064242E+03  0.12509000000E+03 0.  0.
         25    1    4    4    0    0  0.68723266293E+02  0.19192366483E+02 -0.47234486280E+02  0.15155803857E+03  0.12509000000E+03 0.  0.
         25    1    4    4    0    0  0.35476888873E+02 -0.52866083296E+02 -0.26801315684E+02  0.14289594476E+03  0.12509000000E+03 0.  0.
<mgrwt>
<rscale>  2 0.45464830E+03</rscale>
<asrwt>0</asrwt>
<pdfrwt beam="1">  1       21 0.28400643E-01 0.45464830E+03</pdfrwt>
<pdfrwt beam="2">  1       21 0.39350037E-01 0.45464830E+03</pdfrwt>
<totfact> 0.68320601E+04</totfact>
</mgrwt>
</event>
<event>
 7    0  0.4709932E-002  0.4591655E+03  0.7546771E-02  0.1025024E+00
         21   -1    0    0  502  501  0.00000000000E+00  0.00000000000E+00  0.16720359211E+03  0.16720359211E+03  0.00000000000E+00 0.  1.
         21   -1    0    0  501  502 -0.00000000000E+00 -0.00000000000E+00 -0.31523389145E+03  0.31523389145E+03  0.00000000000E+00 0.  1.
      99926    2    1    2    0    0  0.00000000000E+00  0.00000000000E+00 -0.14803029935E+03  0.48243748356E+03  0.45916549959E+03 0.  0.
      99925    2    3    3    0    0  0.41273524830E+02  0.61408675258E+02 -0.18793351230E+03  0.33172483063E+03  0.26314982227E+03 0.  0.
         25    1    4    4    0    0  0.29170412743E+02  0.65379876171E+02 -0.73853245911E+02  0.16194829798E+03  0.12509000000E+03 0.  0.
         25    1    3    3    0    0 -0.41273524830E+02 -0.61408675258E+02  0.39903212952E+02  0.15071265293E+03  0.12509000000E+03 0.  0.
         25    1    4    4    0    0  0.12103112086E+02 -0.39712009131E+01 -0.11408026639E+03  0.16977653265E+03  0.12509000000E+03 0.  0.
<mgrwt>
<rscale>  2 0.45916550E+03</rscale>
<asrwt>0</asrwt>
<pdfrwt beam="1">  1       21 0.24588764E-01 0.45916550E+03</pdfrwt>
<pdfrwt beam="2">  1       21 0.46357925E-01 0.45916550E+03</pdfrwt>
<totfact> 0.64368382E+04</totfact>
</mgrwt>
</event>
<event>
 7    0  0.4709932E-002  0.4811437E+03  0.7546771E-02  0.1018821E+00
         21   -1    0    0  502  501  0.00000000000E+00  0.00000000000E+00  0.16636213756E+03  0.16636213756E+03  0.00000000000E+00 0.  1.
         21   -1    0    0  501  502 -0.00000000000E+00 -0.00000000000E+00 -0.34788450835E+03  0.34788450835E+03  0.00000000000E+00 0.  1.
      99926    2    1    2    0    0  0.00000000000E+00  0.71054273576E-14 -0.18152237079E+03  0.51424664591E+03  0.48114368097E+03 0.  0.
      99925    2    3    3    0    0  0.12265847240E+03  0.51794693590E+02 -0.80985916286E+02  0.30572116085E+03  0.26301885564E+03 0.  0.
         25    1    4    4    0    0  0.24052049196E+02  0.32825044698E+02 -0.57665428774E+02  0.14362727598E+03  0.12509000000E+03 0.  0.
         25    1    3    3    0    0 -0.12265847240E+03 -0.51794693590E+02 -0.10053645450E+03  0.20852548506E+03  0.12509000000E+03 0.  0.
         25    1    4    4    0    0  0.98606423201E+02  0.18969648893E+02 -0.23320487511E+02  0.16209388487E+03  0.12509000000E+03 0.  0.
<mgrwt>
<rscale>  2 0.48114368E+03</rscale>
<asrwt>0</asrwt>
<pdfrwt beam="1">  1       21 0.24465021E-01 0.48114368E+03</pdfrwt>
<pdfrwt beam="2">  1       21 0.51159486E-01 0.48114368E+03</pdfrwt>
<totfact> 0.52508428E+04</totfact>
</mgrwt>
</event>
<event>
 6    0  0.4709932E-002  0.4637427E+03  0.7546771E-02  0.1023701E+00
         21   -1    0    0  502  501  0.00000000000E+00  0.00000000000E+00  0.10315721961E+03  0.10315721961E+03  0.00000000000E+00 0. -1.
         21   -1    0    0  501  502 -0.00000000000E+00 -0.00000000000E+00 -0.52118822861E+03  0.52118822861E+03  0.00000000000E+00 0. -1.
      99926    2    1    2    0    0  0.00000000000E+00  0.00000000000E+00 -0.41803100900E+03  0.62434544822E+03  0.46374272418E+03 0.  0.
         25    1    3    3    0    0  0.98414604836E+02  0.33632206458E+02 -0.23542833110E+03  0.28616527906E+03  0.12509000000E+03 0.  0.
         25    1    3    3    0    0 -0.80569341079E+02 -0.28229600557E+02 -0.13552273085E+03  0.20322954447E+03  0.12509000000E+03 0.  0.
         25    1    3    3    0    0 -0.17845263757E+02 -0.54026059014E+01 -0.47079947056E+02  0.13495062469E+03  0.12509000000E+03 0.  0.
<mgrwt>
<rscale>  2 0.46374272E+03</rscale>
<asrwt>0</asrwt>
<pdfrwt beam="1">  1       21 0.15170179E-01 0.46374272E+03</pdfrwt>
<pdfrwt beam="2">  1       21 0.76645327E-01 0.46374272E+03</pdfrwt>
<totfact> 0.53419919E+04</totfact>
</mgrwt>
</event>
<event>
 7    0  0.4709932E-002  0.4522263E+03  0.7546771E-02  0.1027060E+00
         21   -1    0    0  502  501  0.00000000000E+00  0.00000000000E+00  0.70170683537E+03  0.70170683537E+03  0.00000000000E+00 0.  1.
         21   -1    0    0  501  502 -0.00000000000E+00 -0.00000000000E+00 -0.72861121461E+02  0.72861121461E+02  0.00000000000E+00 0.  1.
      99926    2    1    2    0    0 -0.71054273576E-14 -0.17763568394E-14  0.62884571391E+03  0.77456795684E+03  0.45222625736E+03 0.  0.
      99925    2    3    3    0    0 -0.48396502097E+02 -0.15676460011E+02  0.56472737407E+03  0.62508002281E+03  0.26309704499E+03 0.  0.
         25    1    4    4    0    0  0.98191268177E+01 -0.97461990038E+01  0.32350840866E+03  0.34712620503E+03  0.12509000000E+03 0.  0.
         25    1    3    3    0    0  0.48396502097E+02  0.15676460011E+02  0.64118339842E+02  0.14948793402E+03  0.12509000000E+03 0.  0.
         25    1    4    4    0    0 -0.58215628914E+02 -0.59302610074E+01  0.24121896541E+03  0.27795381778E+03  0.12509000000E+03 0.  0.
<mgrwt>
<rscale>  2 0.45222626E+03</rscale>
<asrwt>0</asrwt>
<pdfrwt beam="1">  1       21 0.10319218E+00 0.45222626E+03</pdfrwt>
<pdfrwt beam="2">  1       21 0.10714871E-01 0.45222626E+03</pdfrwt>
<totfact> 0.50101532E+04</totfact>
</mgrwt>
</event>
<event>
 7    0  0.4709932E-002  0.4491240E+03  0.7546771E-02  0.1027984E+00
         21   -1    0    0  502  501  0.00000000000E+00  0.00000000000E+00  0.16953986500E+04  0.16953986500E+04  0.00000000000E+00 0.  1.
         21   -1    0    0  501  502 -0.00000000000E+00 -0.00000000000E+00 -0.29744090930E+02  0.29744090930E+02  0.00000000000E+00 0.  1.
      99926    2    1    2    0    0  0.00000000000E+00 -0.35527136788E-14  0.16656545591E+04  0.17251427409E+04  0.44912399895E+03 0.  0.
      99925    2    3    3    0    0  0.89191384393E+02  0.19559146089E+02  0.83563733211E+03  0.88080053045E+03  0.26302501855E+03 0.  0.
         25    1    4    4    0    0  0.66489964854E+02  0.37232323540E+02  0.51503990252E+03  0.53546313658E+03  0.12509000000E+03 0.  0.
         25    1    3    3    0    0 -0.89191384393E+02 -0.19559146089E+02  0.83001722696E+03  0.84434221048E+03  0.12509000000E+03 0.  0.
         25    1    4    4    0    0  0.22701419539E+02 -0.17673177451E+02  0.32059742959E+03  0.34533739387E+03  0.12509000000E+03 0.  0.
<mgrwt>
<rscale>  2 0.44912400E+03</rscale>
<asrwt>0</asrwt>
<pdfrwt beam="1">  1       21 0.24932327E+00 0.44912400E+03</pdfrwt>
<pdfrwt beam="2">  1       21 0.43741322E-02 0.44912400E+03</pdfrwt>
<totfact> 0.19623222E+04</totfact>
</mgrwt>
</event>
<event>
 7    0  0.4709932E-002  0.4541809E+03  0.7546771E-02  0.1026483E+00
         21   -1    0    0  502  501  0.00000000000E+00  0.00000000000E+00  0.42799443621E+03  0.42799443621E+03  0.00000000000E+00 0.  1.
         21   -1    0    0  501  502 -0.00000000000E+00 -0.00000000000E+00 -0.12049236914E+03  0.12049236914E+03  0.00000000000E+00 0.  1.
      99926    2    1    2    0    0 -0.35527136788E-14  0.00000000000E+00  0.30750206707E+03  0.54848680535E+03  0.45418086088E+03 0.  0.
      99925    2    3    3    0    0 -0.21019218954E+02  0.75901282914E+02  0.28979922571E+03  0.39961198879E+03  0.26363485743E+03 0.  0.
         25    1    4    4    0    0 -0.51411561773E+02  0.47166253529E+02  0.14855269588E+03  0.20635701032E+03  0.12509000000E+03 0.  0.
         25    1    4    4    0    0  0.30392342819E+02  0.28735029385E+02  0.14124652983E+03  0.19325497847E+03  0.12509000000E+03 0.  0.
         25    1    3    3    0    0  0.21019218954E+02 -0.75901282914E+02  0.17702841366E+02  0.14887481656E+03  0.12509000000E+03 0.  0.
<mgrwt>
<rscale>  2 0.45418086E+03</rscale>
<asrwt>0</asrwt>
<pdfrwt beam="1">  1       21 0.62940358E-01 0.45418086E+03</pdfrwt>
<pdfrwt beam="2">  1       21 0.17719466E-01 0.45418086E+03</pdfrwt>
<totfact> 0.62369865E+04</totfact>
</mgrwt>
</event>
<event>
 7    0  0.4709932E-002  0.4573428E+03  0.7546771E-02  0.1025555E+00
         21   -1    0    0  502  501  0.00000000000E+00  0.00000000000E+00  0.60953129759E+03  0.60953129759E+03  0.00000000000E+00 0. -1.
         21   -1    0    0  501  502 -0.00000000000E+00 -0.00000000000E+00 -0.85788232878E+02  0.85788232878E+02  0.00000000000E+00 0. -1.
      99926    2    1    2    0    0  0.00000000000E+00  0.00000000000E+00  0.52374306471E+03  0.69531953047E+03  0.45734281629E+03 0.  0.
      99925    2    3    3    0    0 -0.84031394103E+02 -0.98374424448E+01  0.21004158119E+03  0.34716126282E+03  0.26314525666E+03 0.  0.
         25    1    4    4    0    0 -0.40913635025E+02  0.16512125083E+02  0.14777678658E+03  0.19857508041E+03  0.12509000000E+03 0.  0.
         25    1    4    4    0    0 -0.43117759077E+02 -0.26349567528E+02  0.62264794612E+02  0.14858618242E+03  0.12509000000E+03 0.  0.
         25    1    3    3    0    0  0.84031394103E+02  0.98374424448E+01  0.31370148352E+03  0.34815826765E+03  0.12509000000E+03 0.  0.
<mgrwt>
<rscale>  2 0.45734282E+03</rscale>
<asrwt>0</asrwt>
<pdfrwt beam="1">  1       21 0.89636953E-01 0.45734282E+03</pdfrwt>
<pdfrwt beam="2">  1       21 0.12615917E-01 0.45734282E+03</pdfrwt>
<totfact> 0.52188802E+04</totfact>
</mgrwt>
</event>
<event>
 7    0  0.4709932E-002  0.4547093E+03  0.7546771E-02  0.1026327E+00
         21   -1    0    0  502  501  0.00000000000E+00  0.00000000000E+00  0.17405954769E+03  0.17405954769E+03  0.00000000000E+00 0.  1.
         21   -1    0    0  501  502 -0.00000000000E+00 -0.00000000000E+00 -0.29696808744E+03  0.29696808744E+03  0.00000000000E+00 0.  1.
      99926    2    1    2    0    0  0.00000000000E+00  0.00000000000E+00 -0.12290853975E+03  0.47102763513E+03  0.45470927406E+03 0.  0.
      99925    2    3    3    0    0  0.74199179596E+02  0.40818419181E+02  0.87138080982E+00  0.27573135142E+03  0.26240304353E+03 0.  0.
         25    1    4    4    0    0  0.52400301529E+02  0.19725408661E+02  0.37162075361E+02  0.14199792707E+03  0.12509000000E+03 0.  0.
         25    1    3    3    0    0 -0.74199179596E+02 -0.40818419181E+02 -0.12377992056E+03  0.19529628371E+03  0.12509000000E+03 0.  0.
         25    1    4    4    0    0  0.21798878067E+02  0.21093010520E+02 -0.36290694552E+02  0.13373342435E+03  0.12509000000E+03 0.  0.
<mgrwt>
<rscale>  2 0.45470927E+03</rscale>
<asrwt>0</asrwt>
<pdfrwt beam="1">  1       21 0.25596992E-01 0.45470927E+03</pdfrwt>
<pdfrwt beam="2">  1       21 0.43671777E-01 0.45470927E+03</pdfrwt>
<totfact> 0.67514949E+04</totfact>
</mgrwt>
</event>
<event>
 7    0  0.4709932E-002  0.4519338E+03  0.7546771E-02  0.1027147E+00
         21   -1    0    0  502  501  0.00000000000E+00  0.00000000000E+00  0.12000610772E+03  0.12000610772E+03  0.00000000000E+00 0.  1.
         21   -1    0    0  501  502 -0.00000000000E+00 -0.00000000000E+00 -0.42548706670E+03  0.42548706670E+03  0.00000000000E+00 0.  1.
      99926    2    1    2    0    0  0.00000000000E+00  0.00000000000E+00 -0.30548095898E+03  0.54549317442E+03  0.45193383037E+03 0.  0.
      99925    2    3    3    0    0  0.99241378059E+02  0.40968940215E+02 -0.16307364186E+03  0.32765227548E+03  0.26312676750E+03 0.  0.
         25    1    3    3    0    0 -0.99241378059E+02 -0.40968940215E+02 -0.14240731712E+03  0.21784089894E+03  0.12509000000E+03 0.  0.
         25    1    4    4    0    0  0.87638085414E+02  0.27126695201E+02 -0.11201816977E+03  0.19134228510E+03  0.12509000000E+03 0.  0.
         25    1    4    4    0    0  0.11603292644E+02  0.13842245014E+02 -0.51055472090E+02  0.13630999038E+03  0.12509000000E+03 0.  0.
<mgrwt>
<rscale>  2 0.45193383E+03</rscale>
<asrwt>0</asrwt>
<pdfrwt beam="1">  1       21 0.17647957E-01 0.45193383E+03</pdfrwt>
<pdfrwt beam="2">  1       21 0.62571627E-01 0.45193383E+03</pdfrwt>
<totfact> 0.63696704E+04</totfact>
</mgrwt>
</event>
<event>
 7    0  0.4709932E-002  0.4630571E+03  0.7546771E-02  0.1023898E+00
         21   -1    0    0  502  501  0.00000000000E+00  0.00000000000E+00  0.22760552807E+03  0.22760552807E+03  0.00000000000E+00 0. -1.
         21   -1    0    0  501  502 -0.00000000000E+00 -0.00000000000E+00 -0.23551914393E+03  0.23551914393E+03  0.00000000000E+00 0. -1.
      99926    2    1    2    0    0 -0.88817841970E-15  0.00000000000E+00 -0.79136158630E+01  0.46312467200E+03  0.46305705534E+03 0.  0.
      99925    2    3    3    0    0 -0.79908285713E+01  0.66468618150E+02 -0.10524789256E+03  0.29106828572E+03  0.26298611660E+03 0.  0.
         25    1    4    4    0    0  0.93872060510E+01  0.20668264990E+02 -0.90216002953E+02  0.15589012831E+03  0.12509000000E+03 0.  0.
         25    1    3    3    0    0  0.79908285713E+01 -0.66468618150E+02  0.97334276695E+02  0.17205638628E+03  0.12509000000E+03 0.  0.
         25    1    4    4    0    0 -0.17378034622E+02  0.45800353159E+02 -0.15031889605E+02  0.13517815741E+03  0.12509000000E+03 0.  0.
<mgrwt>
<rscale>  2 0.46305706E+03</rscale>
<asrwt>0</asrwt>
<pdfrwt beam="1">  1       21 0.33471401E-01 0.46305706E+03</pdfrwt>
<pdfrwt beam="2">  1       21 0.34635168E-01 0.46305706E+03</pdfrwt>
<totfact> 0.63756307E+04</totfact>
</mgrwt>
</event>
<event>
 7    0  0.4709932E-002  0.4660230E+03  0.7546771E-02  0.1023049E+00
         21   -1    0    0  502  501  0.00000000000E+00  0.00000000000E+00  0.15544165794E+03  0.15544165794E+03  0.00000000000E+00 0. -1.
         21   -1    0    0  501  502 -0.00000000000E+00 -0.00000000000E+00 -0.34929087985E+03  0.34929087985E+03  0.00000000000E+00 0. -1.
      99926    2    1    2    0    0  0.00000000000E+00  0.00000000000E+00 -0.19384922191E+03  0.50473253779E+03  0.46602297569E+03 0.  0.
      99925    2    3    3    0    0 -0.41390192153E+01  0.71437039066E+02 -0.22970487105E+03  0.35622826949E+03  0.26270491081E+03 0.  0.
         25    1    4    4    0    0 -0.10112486371E+02  0.45649724529E+01 -0.14104317444E+03  0.18884858091E+03  0.12509000000E+03 0.  0.
         25    1    3    3    0    0  0.41390192153E+01 -0.71437039066E+02  0.35855649143E+02  0.14850426831E+03  0.12509000000E+03 0.  0.
         25    1    4    4    0    0  0.59734671557E+01  0.66872066613E+02 -0.88661696612E+02  0.16737968858E+03  0.12509000000E+03 0.  0.
<mgrwt>
<rscale>  2 0.46602298E+03</rscale>
<asrwt>0</asrwt>
<pdfrwt beam="1">  1       21 0.22859068E-01 0.46602298E+03</pdfrwt>
<pdfrwt beam="2">  1       21 0.51366305E-01 0.46602298E+03</pdfrwt>
<totfact> 0.59555133E+04</totfact>
</mgrwt>
</event>
<event>
 7    0  0.4709932E-002  0.4519054E+03  0.7546771E-02  0.1027155E+00
         21   -1    0    0  502  501  0.00000000000E+00  0.00000000000E+00  0.25752792510E+03  0.25752792510E+03  0.00000000000E+00 0. -1.
         21   -1    0    0  501  502 -0.00000000000E+00 -0.00000000000E+00 -0.19824890433E+03  0.19824890433E+03  0.00000000000E+00 0. -1.
      99926    2    1    2    0    0  0.00000000000E+00  0.00000000000E+00  0.59279020768E+02  0.45577682943E+03  0.45190542810E+03 0.  0.
      99925    2    3    3    0    0  0.98258455174E+02 -0.15430614802E+02 -0.10506543831E+02  0.28139116198E+03  0.26301667379E+03 0.  0.
         25    1    3    3    0    0 -0.98258455174E+02  0.15430614802E+02  0.69785564599E+02  0.17438566745E+03  0.12509000000E+03 0.  0.
         25    1    4    4    0    0  0.43510616453E+02  0.26239678249E+02  0.16746824342E+02  0.13605020648E+03  0.12509000000E+03 0.  0.
         25    1    4    4    0    0  0.54747838721E+02 -0.41670293050E+02 -0.27253368173E+02  0.14534095550E+03  0.12509000000E+03 0.  0.
<mgrwt>
<rscale>  2 0.45190543E+03</rscale>
<asrwt>0</asrwt>
<pdfrwt beam="1">  1       21 0.37871754E-01 0.45190543E+03</pdfrwt>
<pdfrwt beam="2">  1       21 0.29154251E-01 0.45190543E+03</pdfrwt>
<totfact> 0.70206095E+04</totfact>
</mgrwt>
</event>
<event>
 7    0  0.4709932E-002  0.4506290E+03  0.7546771E-02  0.1027535E+00
         21   -1    0    0  502  501  0.00000000000E+00  0.00000000000E+00  0.95763243706E+03  0.95763243706E+03  0.00000000000E+00 0.  1.
         21   -1    0    0  501  502 -0.00000000000E+00 -0.00000000000E+00 -0.53012643272E+02  0.53012643272E+02  0.00000000000E+00 0.  1.
      99926    2    1    2    0    0  0.00000000000E+00 -0.17763568394E-14  0.90461979379E+03  0.10106450803E+04  0.45062901270E+03 0.  0.
      99925    2    3    3    0    0  0.85080356304E+02  0.12452667947E+02  0.41919123748E+03  0.50203705115E+03  0.26253794236E+03 0.  0.
         25    1    4    4    0    0  0.35867384085E+02  0.43253583226E+02  0.18541070127E+03  0.23061218083E+03  0.12509000000E+03 0.  0.
         25    1    4    4    0    0  0.49212972219E+02 -0.30800915279E+02  0.23378053621E+03  0.27142487032E+03  0.12509000000E+03 0.  0.
         25    1    3    3    0    0 -0.85080356304E+02 -0.12452667947E+02  0.48542855631E+03  0.50860802918E+03  0.12509000000E+03 0.  0.
<mgrwt>
<rscale>  2 0.45062901E+03</rscale>
<asrwt>0</asrwt>
<pdfrwt beam="1">  1       21 0.14082829E+00 0.45062901E+03</pdfrwt>
<pdfrwt beam="2">  1       21 0.77959775E-02 0.45062901E+03</pdfrwt>
<totfact> 0.40106794E+04</totfact>
</mgrwt>
</event>
<event>
 7    0  0.4709932E-002  0.4540267E+03  0.7546771E-02  0.1026528E+00
         21   -1    0    0  502  501  0.00000000000E+00  0.00000000000E+00  0.29366302229E+03  0.29366302229E+03  0.00000000000E+00 0.  1.
         21   -1    0    0  501  502 -0.00000000000E+00 -0.00000000000E+00 -0.17549048685E+03  0.17549048685E+03  0.00000000000E+00 0.  1.
      99926    2    1    2    0    0  0.00000000000E+00  0.00000000000E+00  0.11817253545E+03  0.46915350914E+03  0.45402672499E+03 0.  0.
      99925    2    3    3    0    0 -0.34932155519E+02 -0.10662337501E+03  0.69837276863E+02  0.29430327348E+03  0.26296078025E+03 0.  0.
         25    1    4    4    0    0  0.18588800918E+02 -0.30941421990E+02  0.33153812110E+02  0.13434879408E+03  0.12509000000E+03 0.  0.
         25    1    4    4    0    0 -0.53520956437E+02 -0.75681953024E+02  0.36683464754E+02  0.15995447939E+03  0.12509000000E+03 0.  0.
         25    1    3    3    0    0  0.34932155519E+02  0.10662337501E+03  0.48335258584E+02  0.17485023566E+03  0.12509000000E+03 0.  0.
<mgrwt>
<rscale>  2 0.45402672E+03</rscale>
<asrwt>0</asrwt>
<pdfrwt beam="1">  1       21 0.43185739E-01 0.45402672E+03</pdfrwt>
<pdfrwt beam="2">  1       21 0.25807425E-01 0.45402672E+03</pdfrwt>
<totfact> 0.68022409E+04</totfact>
</mgrwt>
</event>
<event>
 7    0  0.4709932E-002  0.4966515E+03  0.7546771E-02  0.1014657E+00
         21   -1    0    0  502  501  0.00000000000E+00  0.00000000000E+00  0.35843087962E+02  0.35843087962E+02  0.00000000000E+00 0.  1.
         21   -1    0    0  501  502 -0.00000000000E+00 -0.00000000000E+00 -0.17204344758E+04  0.17204344758E+04  0.00000000000E+00 0.  1.
      99926    2    1    2    0    0  0.00000000000E+00 -0.71054273576E-14 -0.16845913878E+04  0.17562775638E+04  0.49665152471E+03 0.  0.
      99925    2    3    3    0    0  0.40605525076E+01 -0.38044511510E+02 -0.15334893161E+04  0.15564195714E+04  0.26341702032E+03 0.  0.
         25    1    4    4    0    0  0.18902587947E+02  0.14684804248E+02 -0.63926691293E+03  0.65183022741E+03  0.12509000000E+03 0.  0.
         25    1    4    4    0    0 -0.14842035439E+02 -0.52729315759E+02 -0.89422240316E+03  0.90458934394E+03  0.12509000000E+03 0.  0.
         25    1    3    3    0    0 -0.40605525076E+01  0.38044511510E+02 -0.15110207176E+03  0.19985799241E+03  0.12509000000E+03 0.  0.
<mgrwt>
<rscale>  2 0.49665152E+03</rscale>
<asrwt>0</asrwt>
<pdfrwt beam="1">  1       21 0.52710418E-02 0.49665152E+03</pdfrwt>
<pdfrwt beam="2">  1       21 0.25300510E+00 0.49665152E+03</pdfrwt>
<totfact> 0.13275702E+04</totfact>
</mgrwt>
</event>
<event>
 7    0  0.4709932E-002  0.4539620E+03  0.7546771E-02  0.1026547E+00
         21   -1    0    0  502  501  0.00000000000E+00  0.00000000000E+00  0.26518844076E+03  0.26518844076E+03  0.00000000000E+00 0.  1.
         21   -1    0    0  501  502 -0.00000000000E+00 -0.00000000000E+00 -0.19427835974E+03  0.19427835974E+03  0.00000000000E+00 0.  1.
      99926    2    1    2    0    0  0.17763568394E-14  0.00000000000E+00  0.70910081019E+02  0.45946680051E+03  0.45396200411E+03 0.  0.
      99925    2    3    3    0    0  0.68229292388E+01 -0.10413397740E+03  0.46206024570E+01  0.28359116069E+03  0.26365158608E+03 0.  0.
         25    1    4    4    0    0  0.34203297452E+02 -0.30130860473E+02 -0.16645166618E+02  0.13417266481E+03  0.12509000000E+03 0.  0.
         25    1    4    4    0    0 -0.27380368213E+02 -0.74003116928E+02  0.21265769075E+02  0.14941849589E+03  0.12509000000E+03 0.  0.
         25    1    3    3    0    0 -0.68229292388E+01  0.10413397740E+03  0.66289478562E+02  0.17587563982E+03  0.12509000000E+03 0.  0.
<mgrwt>
<rscale>  2 0.45396200E+03</rscale>
<asrwt>0</asrwt>
<pdfrwt beam="1">  1       21 0.38998300E-01 0.45396200E+03</pdfrwt>
<pdfrwt beam="2">  1       21 0.28570347E-01 0.45396200E+03</pdfrwt>
<totfact> 0.68787055E+04</totfact>
</mgrwt>
</event>
<event>
 7    0  0.4709932E-002  0.4839326E+03  0.7546771E-02  0.1018060E+00
         21   -1    0    0  502  501  0.00000000000E+00  0.00000000000E+00  0.20732376410E+03  0.20732376410E+03  0.00000000000E+00 0. -1.
         21   -1    0    0  501  502 -0.00000000000E+00 -0.00000000000E+00 -0.28239733745E+03  0.28239733745E+03  0.00000000000E+00 0. -1.
      99926    2    1    2    0    0  0.00000000000E+00 -0.17763568394E-14 -0.75073573347E+02  0.48972110155E+03  0.48393255304E+03 0.  0.
      99925    2    3    3    0    0  0.13595474055E+03 -0.14830354850E+02 -0.68621885623E+02  0.30426824157E+03  0.26299537779E+03 0.  0.
         25    1    4    4    0    0  0.23023480677E+02 -0.13161160090E+02 -0.31548051063E+02  0.13170453456E+03  0.12509000000E+03 0.  0.
         25    1    4    4    0    0  0.11293125987E+03 -0.16691947596E+01 -0.37073834560E+02  0.17256370701E+03  0.12509000000E+03 0.  0.
         25    1    3    3    0    0 -0.13595474055E+03  0.14830354850E+02 -0.64516877242E+01  0.18545285999E+03  0.12509000000E+03 0.  0.
<mgrwt>
<rscale>  2 0.48393255E+03</rscale>
<asrwt>0</asrwt>
<pdfrwt beam="1">  1       21 0.30488789E-01 0.48393255E+03</pdfrwt>
<pdfrwt beam="2">  1       21 0.41529020E-01 0.48393255E+03</pdfrwt>
<totfact> 0.52787226E+04</totfact>
</mgrwt>
</event>
<event>
 7    0  0.4709932E-002  0.4671794E+03  0.7546771E-02  0.1022719E+00
         21   -1    0    0  502  501  0.00000000000E+00  0.00000000000E+00  0.17909833640E+04  0.17909833640E+04  0.00000000000E+00 0. -1.
         21   -1    0    0  501  502 -0.00000000000E+00 -0.00000000000E+00 -0.30466033369E+02  0.30466033369E+02  0.00000000000E+00 0. -1.
      99926    2    1    2    0    0 -0.14210854715E-13  0.00000000000E+00  0.17605173307E+04  0.18214493974E+04  0.46717944703E+03 0.  0.
      99925    2    3    3    0    0  0.10981677255E+03  0.48749099474E+02  0.12183515696E+04  0.12522153341E+04  0.26310928836E+03 0.  0.
         25    1    4    4    0    0  0.98327233735E+02  0.21641304376E+02  0.65581079669E+03  0.67518286420E+03  0.12509000000E+03 0.  0.
         25    1    3    3    0    0 -0.10981677255E+03 -0.48749099474E+02  0.54216576105E+03  0.56923406327E+03  0.12509000000E+03 0.  0.
         25    1    4    4    0    0  0.11489538814E+02  0.27107795099E+02  0.56254077292E+03  0.57703246993E+03  0.12509000000E+03 0.  0.
<mgrwt>
<rscale>  2 0.46717945E+03</rscale>
<asrwt>0</asrwt>
<pdfrwt beam="1">  1       21 0.26337984E+00 0.46717945E+03</pdfrwt>
<pdfrwt beam="2">  1       21 0.44803002E-02 0.46717945E+03</pdfrwt>
<totfact> 0.15347661E+04</totfact>
</mgrwt>
</event>
<event>
 7    0  0.4709932E-002  0.4587023E+03  0.7546771E-02  0.1025158E+00
         21   -1    0    0  502  501  0.00000000000E+00  0.00000000000E+00  0.36305242435E+02  0.36305242435E+02  0.00000000000E+00 0.  1.
         21   -1    0    0  501  502 -0.00000000000E+00 -0.00000000000E+00 -0.14488800559E+04  0.14488800559E+04  0.00000000000E+00 0.  1.
      99926    2    1    2    0    0  0.00000000000E+00  0.00000000000E+00 -0.14125748135E+04  0.14851852983E+04  0.45870226374E+03 0.  0.
      99925    2    3    3    0    0 -0.10248443565E+03 -0.44609393137E+02 -0.77943883461E+03  0.83020305939E+03  0.26309535424E+03 0.  0.
         25    1    4    4    0    0 -0.30507704398E+02  0.13228697053E+02 -0.32081098818E+03  0.34593773528E+03  0.12509000000E+03 0.  0.
         25    1    3    3    0    0  0.10248443565E+03  0.44609393137E+02 -0.63313597887E+03  0.65498223895E+03  0.12509000000E+03 0.  0.
         25    1    4    4    0    0 -0.71976731256E+02 -0.57838090190E+02 -0.45862784642E+03  0.48426532411E+03  0.12509000000E+03 0.  0.
<mgrwt>
<rscale>  2 0.45870226E+03</rscale>
<asrwt>0</asrwt>
<pdfrwt beam="1">  1       21 0.53390062E-02 0.45870226E+03</pdfrwt>
<pdfrwt beam="2">  1       21 0.21307060E+00 0.45870226E+03</pdfrwt>
<totfact> 0.23462536E+04</totfact>
</mgrwt>
</event>
<event>
 7    0  0.4709932E-002  0.4677030E+03  0.7546771E-02  0.1022571E+00
         21   -1    0    0  502  501  0.00000000000E+00  0.00000000000E+00  0.65645751021E+03  0.65645751021E+03  0.00000000000E+00 0.  1.
         21   -1    0    0  501  502 -0.00000000000E+00 -0.00000000000E+00 -0.83305511984E+02  0.83305511984E+02  0.00000000000E+00 0.  1.
      99926    2    1    2    0    0  0.00000000000E+00  0.71054273576E-14  0.57315199823E+03  0.73976302220E+03  0.46770302109E+03 0.  0.
      99925    2    3    3    0    0  0.25906866328E+02 -0.50016849952E+02  0.53280838562E+03  0.59676663699E+03  0.26281703187E+03 0.  0.
         25    1    4    4    0    0  0.50532463270E+02 -0.15753089942E+02  0.29513704104E+03  0.32489239877E+03  0.12509000000E+03 0.  0.
         25    1    3    3    0    0 -0.25906866328E+02  0.50016849952E+02  0.40343612608E+02  0.14299638520E+03  0.12509000000E+03 0.  0.
         25    1    4    4    0    0 -0.24625596942E+02 -0.34263760010E+02  0.23767134458E+03  0.27187423822E+03  0.12509000000E+03 0.  0.
<mgrwt>
<rscale>  2 0.46770302E+03</rscale>
<asrwt>0</asrwt>
<pdfrwt beam="1">  1       21 0.96537866E-01 0.46770302E+03</pdfrwt>
<pdfrwt beam="2">  1       21 0.12250811E-01 0.46770302E+03</pdfrwt>
<totfact> 0.46025108E+04</totfact>
</mgrwt>
</event>
<event>
 7    0  0.4709932E-002  0.4571896E+03  0.7546771E-02  0.1025599E+00
         21   -1    0    0  502  501  0.00000000000E+00  0.00000000000E+00  0.54407538734E+03  0.54407538734E+03  0.00000000000E+00 0. -1.
         21   -1    0    0  501  502 -0.00000000000E+00 -0.00000000000E+00 -0.96044746486E+02  0.96044746486E+02  0.00000000000E+00 0. -1.
      99926    2    1    2    0    0  0.00000000000E+00  0.35527136788E-14  0.44803064085E+03  0.64012013382E+03  0.45718960026E+03 0.  0.
      99925    2    3    3    0    0 -0.99460388449E+02  0.30692095732E+02  0.21156479852E+03  0.35306965691E+03  0.26280058037E+03 0.  0.
         25    1    4    4    0    0 -0.72327320555E+02 -0.12437415824E+02  0.85765284987E+02  0.16849072028E+03  0.12509000000E+03 0.  0.
         25    1    4    4    0    0 -0.27133067894E+02  0.43129511556E+02  0.12579951354E+03  0.18457893663E+03  0.12509000000E+03 0.  0.
         25    1    3    3    0    0  0.99460388449E+02 -0.30692095732E+02  0.23646584232E+03  0.28705047692E+03  0.12509000000E+03 0.  0.
<mgrwt>
<rscale>  2 0.45718960E+03</rscale>
<asrwt>0</asrwt>
<pdfrwt beam="1">  1       21 0.80011085E-01 0.45718960E+03</pdfrwt>
<pdfrwt beam="2">  1       21 0.14124228E-01 0.45718960E+03</pdfrwt>
<totfact> 0.55312300E+04</totfact>
</mgrwt>
</event>
<event>
 7    0  0.4709932E-002  0.4512539E+03  0.7546771E-02  0.1027349E+00
         21   -1    0    0  502  501  0.00000000000E+00  0.00000000000E+00  0.16469210570E+03  0.16469210570E+03  0.00000000000E+00 0. -1.
         21   -1    0    0  501  502 -0.00000000000E+00 -0.00000000000E+00 -0.30910728559E+03  0.30910728559E+03  0.00000000000E+00 0. -1.
      99926    2    1    2    0    0 -0.17763568394E-14  0.00000000000E+00 -0.14441517989E+03  0.47379939129E+03  0.45125394071E+03 0.  0.
      99925    2    3    3    0    0 -0.11810456735E+02 -0.16999505894E+02  0.21839310833E+02  0.26471439930E+03  0.26299864565E+03 0.  0.
         25    1    3    3    0    0  0.11810456735E+02  0.16999505894E+02 -0.16625449072E+03  0.20908499199E+03  0.12509000000E+03 0.  0.
         25    1    4    4    0    0 -0.43574563511E+02  0.50648347366E+01  0.17508891997E+02  0.13371037557E+03  0.12509000000E+03 0.  0.
         25    1    4    4    0    0  0.31764106776E+02 -0.22064340631E+02  0.43304188362E+01  0.13100402373E+03  0.12509000000E+03 0.  0.
<mgrwt>
<rscale>  2 0.45125394E+03</rscale>
<asrwt>0</asrwt>
<pdfrwt beam="1">  1       21 0.24219427E-01 0.45125394E+03</pdfrwt>
<pdfrwt beam="2">  1       21 0.45456954E-01 0.45125394E+03</pdfrwt>
<totfact> 0.69188474E+04</totfact>
</mgrwt>
</event>
<event>
 7    0  0.4709932E-002  0.4381795E+03  0.7546771E-02  0.1031307E+00
         21   -1    0    0  502  501  0.00000000000E+00  0.00000000000E+00  0.76115023445E+03  0.76115023445E+03  0.00000000000E+00 0.  1.
         21   -1    0    0  501  502 -0.00000000000E+00 -0.00000000000E+00 -0.63062868546E+02  0.63062868546E+02  0.00000000000E+00 0.  1.
      99926    2    1    2    0    0  0.00000000000E+00 -0.15543122345E-14  0.69808736590E+03  0.82421310299E+03  0.43817949372E+03 0.  0.
      99925    2    3    3    0    0  0.75686084367E+02 -0.83402939273E+00  0.33289104534E+03  0.43083676967E+03  0.26282084212E+03 0.  0.
         25    1    3    3    0    0 -0.75686084367E+02  0.83402939273E+00  0.36519632056E+03  0.39337633333E+03  0.12509000000E+03 0.  0.
         25    1    4    4    0    0  0.42484161819E+01  0.18645995958E+02  0.17824865499E+03  0.21859966448E+03  0.12509000000E+03 0.  0.
         25    1    4    4    0    0  0.71437668185E+02 -0.19480025350E+02  0.15464239035E+03  0.21223710518E+03  0.12509000000E+03 0.  0.
<mgrwt>
<rscale>  2 0.43817949E+03</rscale>
<asrwt>0</asrwt>
<pdfrwt beam="1">  1       21 0.11193385E+00 0.43817949E+03</pdfrwt>
<pdfrwt beam="2">  1       21 0.92739517E-02 0.43817949E+03</pdfrwt>
<totfact> 0.53311245E+04</totfact>
</mgrwt>
</event>
<event>
 7    0  0.4709932E-002  0.4624583E+03  0.7546771E-02  0.1024071E+00
         21   -1    0    0  502  501  0.00000000000E+00  0.00000000000E+00  0.94651690931E+03  0.94651690931E+03  0.00000000000E+00 0. -1.
         21   -1    0    0  501  502 -0.00000000000E+00 -0.00000000000E+00 -0.56488084309E+02  0.56488084309E+02  0.00000000000E+00 0. -1.
      99926    2    1    2    0    0  0.00000000000E+00 -0.14210854715E-13  0.89002882500E+03  0.10030049936E+04  0.46245833098E+03 0.  0.
      99925    2    3    3    0    0 -0.13334400862E+02  0.10510415006E+03  0.43341096662E+03  0.51785340360E+03  0.26287334028E+03 0.  0.
         25    1    4    4    0    0  0.84393306394E+01  0.85327762408E+02  0.27324865248E+03  0.31251301336E+03  0.12509000000E+03 0.  0.
         25    1    4    4    0    0 -0.21773731501E+02  0.19776387650E+02  0.16016231414E+03  0.20534039024E+03  0.12509000000E+03 0.  0.
         25    1    3    3    0    0  0.13334400862E+02 -0.10510415006E+03  0.45661785838E+03  0.48515159002E+03  0.12509000000E+03 0.  0.
<mgrwt>
<rscale>  2 0.46245833E+03</rscale>
<asrwt>0</asrwt>
<pdfrwt beam="1">  1       21 0.13919365E+00 0.46245833E+03</pdfrwt>
<pdfrwt beam="2">  1       21 0.83070718E-02 0.46245833E+03</pdfrwt>
<totfact> 0.36856128E+04</totfact>
</mgrwt>
</event>
<event>
 7    0  0.4709932E-002  0.4454164E+03  0.7546771E-02  0.1029098E+00
         21   -1    0    0  502  501  0.00000000000E+00  0.00000000000E+00  0.13008638676E+03  0.13008638676E+03  0.00000000000E+00 0.  1.
         21   -1    0    0  501  502 -0.00000000000E+00 -0.00000000000E+00 -0.38127699235E+03  0.38127699235E+03  0.00000000000E+00 0.  1.
      99926    2    1    2    0    0  0.44408920985E-15 -0.71054273576E-14 -0.25119060559E+03  0.51136337910E+03  0.44541641769E+03 0.  0.
      99925    2    3    3    0    0 -0.20890342044E+01  0.48870590547E+02 -0.54620969306E+02  0.27328812064E+03  0.26326839520E+03 0.  0.
         25    1    4    4    0    0 -0.25870745007E+01  0.34355657082E+02 -0.68283134395E+02  0.14661888920E+03  0.12509000000E+03 0.  0.
         25    1    3    3    0    0  0.20890342044E+01 -0.48870590547E+02 -0.19656963629E+03  0.23807525847E+03  0.12509000000E+03 0.  0.
         25    1    4    4    0    0  0.49804029627E+00  0.14514933464E+02  0.13662165089E+02  0.12666923144E+03  0.12509000000E+03 0.  0.
<mgrwt>
<rscale>  2 0.44541642E+03</rscale>
<asrwt>0</asrwt>
<pdfrwt beam="1">  1       21 0.19130350E-01 0.44541642E+03</pdfrwt>
<pdfrwt beam="2">  1       21 0.56070147E-01 0.44541642E+03</pdfrwt>
<totfact> 0.69625158E+04</totfact>
</mgrwt>
</event>
<event>
 7    0  0.4709932E-002  0.4454396E+03  0.7546771E-02  0.1029091E+00
         21   -1    0    0  502  501  0.00000000000E+00  0.00000000000E+00  0.15345126508E+03  0.15345126508E+03  0.00000000000E+00 0. -1.
         21   -1    0    0  501  502 -0.00000000000E+00 -0.00000000000E+00 -0.32325639642E+03  0.32325639642E+03  0.00000000000E+00 0. -1.
      99926    2    1    2    0    0  0.00000000000E+00  0.00000000000E+00 -0.16980513135E+03  0.47670766150E+03  0.44543957155E+03 0.  0.
      99925    2    3    3    0    0 -0.72303812781E+02  0.72532423241E+02 -0.89585446003E+02  0.29623190197E+03  0.26313303449E+03 0.  0.
         25    1    4    4    0    0 -0.52366889632E+02  0.39276029827E+02 -0.85812985316E+02  0.16521584124E+03  0.12509000000E+03 0.  0.
         25    1    4    4    0    0 -0.19936923149E+02  0.33256393414E+02 -0.37724606868E+01  0.13101606072E+03  0.12509000000E+03 0.  0.
         25    1    3    3    0    0  0.72303812781E+02 -0.72532423241E+02 -0.80219685344E+02  0.18047575954E+03  0.12509000000E+03 0.  0.
<mgrwt>
<rscale>  2 0.44543957E+03</rscale>
<asrwt>0</asrwt>
<pdfrwt beam="1">  1       21 0.22566363E-01 0.44543957E+03</pdfrwt>
<pdfrwt beam="2">  1       21 0.47537705E-01 0.44543957E+03</pdfrwt>
<totfact> 0.72271413E+04</totfact>
</mgrwt>
</event>
<event>
 7    0  0.4709932E-002  0.4513622E+03  0.7546771E-02  0.1027317E+00
         21   -1    0    0  502  501  0.00000000000E+00  0.00000000000E+00  0.31980545063E+02  0.31980545063E+02  0.00000000000E+00 0. -1.
         21   -1    0    0  501  502 -0.00000000000E+00 -0.00000000000E+00 -0.15925916443E+04  0.15925916443E+04  0.00000000000E+00 0. -1.
      99926    2    1    2    0    0  0.00000000000E+00  0.00000000000E+00 -0.15606110993E+04  0.16245721894E+04  0.45136215547E+03 0.  0.
      99925    2    3    3    0    0  0.81299620322E+02  0.73269483403E+02 -0.10116713321E+04  0.10510214754E+04  0.26303842317E+03 0.  0.
         25    1    4    4    0    0  0.26851991940E+02  0.44890996492E+02 -0.36162963561E+03  0.38621203048E+03  0.12509000000E+03 0.  0.
         25    1    3    3    0    0 -0.81299620322E+02 -0.73269483403E+02 -0.54893976719E+03  0.57355071403E+03  0.12509000000E+03 0.  0.
         25    1    4    4    0    0  0.54447628382E+02  0.28378486911E+02 -0.65004169648E+03  0.66480944489E+03  0.12509000000E+03 0.  0.
<mgrwt>
<rscale>  2 0.45136216E+03</rscale>
<asrwt>0</asrwt>
<pdfrwt beam="1">  1       21 0.47030199E-02 0.45136216E+03</pdfrwt>
<pdfrwt beam="2">  1       21 0.23420472E+00 0.45136216E+03</pdfrwt>
<totfact> 0.21480525E+04</totfact>
</mgrwt>
</event>
<event>
 7    0  0.4709932E-002  0.4478959E+03  0.7546771E-02  0.1028351E+00
         21   -1    0    0  502  501  0.00000000000E+00  0.00000000000E+00  0.63655210789E+02  0.63655210789E+02  0.00000000000E+00 0.  1.
         21   -1    0    0  501  502 -0.00000000000E+00 -0.00000000000E+00 -0.78788010548E+03  0.78788010548E+03  0.00000000000E+00 0.  1.
      99926    2    1    2    0    0 -0.35527136788E-14  0.00000000000E+00 -0.72422489469E+03  0.85153531627E+03  0.44789585482E+03 0.  0.
      99925    2    3    3    0    0  0.17054680023E+02  0.10505340867E+03 -0.45477372372E+03  0.53597466850E+03  0.26291181926E+03 0.  0.
         25    1    4    4    0    0  0.44239655394E+02  0.61580947024E+02 -0.26926533152E+03  0.30643218990E+03  0.12509000000E+03 0.  0.
         25    1    4    4    0    0 -0.27184975370E+02  0.43472461642E+02 -0.18550839220E+03  0.22954247860E+03  0.12509000000E+03 0.  0.
         25    1    3    3    0    0 -0.17054680023E+02 -0.10505340867E+03 -0.26945117097E+03  0.31556064777E+03  0.12509000000E+03 0.  0.
<mgrwt>
<rscale>  2 0.44789585E+03</rscale>
<asrwt>0</asrwt>
<pdfrwt beam="1">  1       21 0.93610614E-02 0.44789585E+03</pdfrwt>
<pdfrwt beam="2">  1       21 0.11586471E+00 0.44789585E+03</pdfrwt>
<totfact> 0.47989709E+04</totfact>
</mgrwt>
</event>
<event>
 7    0  0.4709932E-002  0.4587263E+03  0.7546771E-02  0.1025151E+00
         21   -1    0    0  502  501  0.00000000000E+00  0.00000000000E+00  0.35557147239E+02  0.35557147239E+02  0.00000000000E+00 0.  1.
         21   -1    0    0  501  502 -0.00000000000E+00 -0.00000000000E+00 -0.14795182871E+04  0.14795182871E+04  0.00000000000E+00 0.  1.
      99926    2    1    2    0    0 -0.35527136788E-14  0.00000000000E+00 -0.14439611398E+04  0.15150754343E+04  0.45872627819E+03 0.  0.
      99925    2    3    3    0    0  0.25804145042E+02  0.52824218238E+02 -0.57293094602E+03  0.63314722942E+03  0.26300055759E+03 0.  0.
         25    1    4    4    0    0 -0.21933155195E+01  0.38763110162E+02 -0.20496667203E+03  0.24324110279E+03  0.12509000000E+03 0.  0.
         25    1    3    3    0    0 -0.25804145042E+02 -0.52824218238E+02 -0.87103019380E+03  0.88192820487E+03  0.12509000000E+03 0.  0.
         25    1    4    4    0    0  0.27997460562E+02  0.14061108076E+02 -0.36796427399E+03  0.38990612664E+03  0.12509000000E+03 0.  0.
<mgrwt>
<rscale>  2 0.45872628E+03</rscale>
<asrwt>0</asrwt>
<pdfrwt beam="1">  1       21 0.52289918E-02 0.45872628E+03</pdfrwt>
<pdfrwt beam="2">  1       21 0.21757624E+00 0.45872628E+03</pdfrwt>
<totfact> 0.22746563E+04</totfact>
</mgrwt>
</event>
<event>
 7    0  0.5032845E-002  0.4213579E+03  0.7546771E-02  0.1036625E+00
         21   -1    0    0  502  501  0.00000000000E+00  0.00000000000E+00  0.49905657635E+03  0.49905657635E+03  0.00000000000E+00 0. -1.
         21   -1    0    0  501  502 -0.00000000000E+00 -0.00000000000E+00 -0.88939043676E+02  0.88939043676E+02  0.00000000000E+00 0. -1.
      99926    2    1    2    0    0 -0.35527136788E-14  0.00000000000E+00  0.41011753267E+03  0.58799562003E+03  0.42135787469E+03 0.  0.
      99925    2    3    3    0    0  0.19878128881E+02  0.27686343985E+02  0.36401379207E+03  0.45039207120E+03  0.26303099310E+03 0.  0.
         25    1    3    3    0    0 -0.19878128881E+02 -0.27686343985E+02  0.46103740598E+02  0.13760354882E+03  0.12509000000E+03 0.  0.
         25    1    4    4    0    0  0.19942378703E+02  0.55974196162E+01  0.24719946605E+03  0.27782029027E+03  0.12509000000E+03 0.  0.
         25    1    4    4    0    0 -0.64249822181E-01  0.22088924369E+02  0.11681432603E+03  0.17257178093E+03  0.12509000000E+03 0.  0.
<mgrwt>
<rscale>  2 0.42135787E+03</rscale>
<asrwt>0</asrwt>
<pdfrwt beam="1">  1       21 0.73390672E-01 0.42135787E+03</pdfrwt>
<pdfrwt beam="2">  1       21 0.13079271E-01 0.42135787E+03</pdfrwt>
<totfact> 0.78241319E+04</totfact>
</mgrwt>
</event>
<event>
 7    0  0.4709932E-002  0.4882187E+03  0.7546771E-02  0.1016901E+00
         21   -1    0    0  502  501  0.00000000000E+00  0.00000000000E+00  0.21789646027E+03  0.21789646027E+03  0.00000000000E+00 0. -1.
         21   -1    0    0  501  502 -0.00000000000E+00 -0.00000000000E+00 -0.27347564921E+03  0.27347564921E+03  0.00000000000E+00 0. -1.
      99926    2    1    2    0    0 -0.14210854715E-13  0.00000000000E+00 -0.55579188941E+02  0.49137210948E+03  0.48821870481E+03 0.  0.
      99925    2    3    3    0    0  0.11444185606E+03 -0.78590110734E+02 -0.37013898373E+01  0.29743356750E+03  0.26302030885E+03 0.  0.
         25    1    3    3    0    0 -0.11444185606E+03  0.78590110734E+02 -0.51877799104E+02  0.19393854198E+03  0.12509000000E+03 0.  0.
         25    1    4    4    0    0  0.21371453893E+02 -0.56354459352E+02  0.10813700376E+02  0.13927314295E+03  0.12509000000E+03 0.  0.
         25    1    4    4    0    0  0.93070402167E+02 -0.22235651382E+02 -0.14515090213E+02  0.15816042456E+03  0.12509000000E+03 0.  0.
<mgrwt>
<rscale>  2 0.48821870E+03</rscale>
<asrwt>0</asrwt>
<pdfrwt beam="1">  1       21 0.32043597E-01 0.48821870E+03</pdfrwt>
<pdfrwt beam="2">  1       21 0.40217007E-01 0.48821870E+03</pdfrwt>
<totfact> 0.51030204E+04</totfact>
</mgrwt>
</event>
<event>
 7    0  0.4709932E-002  0.4510096E+03  0.7546771E-02  0.1027421E+00
         21   -1    0    0  502  501  0.00000000000E+00  0.00000000000E+00  0.11216730307E+03  0.11216730307E+03  0.00000000000E+00 0.  1.
         21   -1    0    0  501  502 -0.00000000000E+00 -0.00000000000E+00 -0.45336226027E+03  0.45336226027E+03  0.00000000000E+00 0.  1.
      99926    2    1    2    0    0  0.00000000000E+00  0.71054273576E-14 -0.34119495720E+03  0.56552956335E+03  0.45100963205E+03 0.  0.
      99925    2    3    3    0    0 -0.99096927557E+02  0.46090793095E+02 -0.21766041028E+03  0.35852025283E+03  0.26308963344E+03 0.  0.
         25    1    3    3    0    0  0.99096927557E+02 -0.46090793095E+02 -0.12353454692E+03  0.20700931052E+03  0.12509000000E+03 0.  0.
         25    1    4    4    0    0 -0.86209843634E+02  0.45241723192E+02 -0.13304914566E+03  0.20695055911E+03  0.12509000000E+03 0.  0.
         25    1    4    4    0    0 -0.12887083923E+02  0.84906990204E+00 -0.84611264628E+02  0.15156969372E+03  0.12509000000E+03 0.  0.
<mgrwt>
<rscale>  2 0.45100963E+03</rscale>
<asrwt>0</asrwt>
<pdfrwt beam="1">  1       21 0.16495192E-01 0.45100963E+03</pdfrwt>
<pdfrwt beam="2">  1       21 0.66670920E-01 0.45100963E+03</pdfrwt>
<totfact> 0.62810689E+04</totfact>
</mgrwt>
</event>
<event>
 7    0  0.4709932E-002  0.4273245E+03  0.7546771E-02  0.1034708E+00
         21   -1    0    0  502  501  0.00000000000E+00  0.00000000000E+00  0.74458679979E+03  0.74458679979E+03  0.00000000000E+00 0.  1.
         21   -1    0    0  501  502 -0.00000000000E+00 -0.00000000000E+00 -0.61311264707E+02  0.61311264707E+02  0.00000000000E+00 0.  1.
      99926    2    1    2    0    0 -0.88817841970E-15  0.14210854715E-13  0.68327553508E+03  0.80589806450E+03  0.42732450610E+03 0.  0.
      99925    2    3    3    0    0  0.43015835783E+01 -0.66594186514E+02  0.34376184767E+03  0.43797097751E+03  0.26304577535E+03 0.  0.
         25    1    3    3    0    0 -0.43015835783E+01  0.66594186514E+02  0.33951368741E+03  0.36792708699E+03  0.12509000000E+03 0.  0.
         25    1    4    4    0    0 -0.95114984195E+01 -0.58052267479E+02  0.12995023092E+03  0.18972375966E+03  0.12509000000E+03 0.  0.
         25    1    4    4    0    0  0.13813081998E+02 -0.85419190350E+01  0.21381161675E+03  0.24824721785E+03  0.12509000000E+03 0.  0.
<mgrwt>
<rscale>  2 0.42732451E+03</rscale>
<asrwt>0</asrwt>
<pdfrwt beam="1">  1       21 0.10949805E+00 0.42732451E+03</pdfrwt>
<pdfrwt beam="2">  1       21 0.90163629E-02 0.42732451E+03</pdfrwt>
<totfact> 0.59360967E+04</totfact>
</mgrwt>
</event>
<event>
 7    0  0.4709932E-002  0.4544922E+03  0.7546771E-02  0.1026391E+00
         21   -1    0    0  502  501  0.00000000000E+00  0.00000000000E+00  0.93422302959E+02  0.93422302959E+02  0.00000000000E+00 0. -1.
         21   -1    0    0  501  502 -0.00000000000E+00 -0.00000000000E+00 -0.55276725213E+03  0.55276725213E+03  0.00000000000E+00 0. -1.
      99926    2    1    2    0    0  0.71054273576E-14  0.00000000000E+00 -0.45934494917E+03  0.64618955509E+03  0.45449219881E+03 0.  0.
      99925    2    3    3    0    0  0.60308541324E+02  0.95053113192E+02 -0.29502224716E+03  0.41098395784E+03  0.26305412522E+03 0.  0.
         25    1    4    4    0    0  0.64224847747E+02  0.57380194438E+02 -0.12606814584E+03  0.19737781861E+03  0.12509000000E+03 0.  0.
         25    1    4    4    0    0 -0.39163064234E+01  0.37672918754E+02 -0.16895410132E+03  0.21360613923E+03  0.12509000000E+03 0.  0.
         25    1    3    3    0    0 -0.60308541324E+02 -0.95053113192E+02 -0.16432270201E+03  0.23520559725E+03  0.12509000000E+03 0.  0.
<mgrwt>
<rscale>  2 0.45449220E+03</rscale>
<asrwt>0</asrwt>
<pdfrwt beam="1">  1       21 0.13738574E-01 0.45449220E+03</pdfrwt>
<pdfrwt beam="2">  1       21 0.81289301E-01 0.45449220E+03</pdfrwt>
<totfact> 0.56146155E+04</totfact>
</mgrwt>
</event>
<event>
 7    0  0.4709932E-002  0.4540602E+03  0.7546771E-02  0.1026518E+00
         21   -1    0    0  502  501  0.00000000000E+00  0.00000000000E+00  0.10373156811E+03  0.10373156811E+03  0.00000000000E+00 0.  1.
         21   -1    0    0  501  502 -0.00000000000E+00 -0.00000000000E+00 -0.49688499910E+03  0.49688499910E+03  0.00000000000E+00 0.  1.
      99926    2    1    2    0    0 -0.71054273576E-14  0.00000000000E+00 -0.39315343100E+03  0.60061656721E+03  0.45406017277E+03 0.  0.
      99925    2    3    3    0    0  0.40768654598E+02 -0.98076802691E+02 -0.29580472133E+03  0.40981451848E+03  0.26299498850E+03 0.  0.
         25    1    3    3    0    0 -0.40768654598E+02  0.98076802691E+02 -0.97348709671E+02  0.19080204873E+03  0.12509000000E+03 0.  0.
         25    1    4    4    0    0  0.50468095862E+02 -0.70717536976E+02 -0.18944353696E+03  0.24307274741E+03  0.12509000000E+03 0.  0.
         25    1    4    4    0    0 -0.96994412646E+01 -0.27359265714E+02 -0.10636118437E+03  0.16674177107E+03  0.12509000000E+03 0.  0.
<mgrwt>
<rscale>  2 0.45406017E+03</rscale>
<asrwt>0</asrwt>
<pdfrwt beam="1">  1       21 0.15254642E-01 0.45406017E+03</pdfrwt>
<pdfrwt beam="2">  1       21 0.73071324E-01 0.45406017E+03</pdfrwt>
<totfact> 0.59077802E+04</totfact>
</mgrwt>
</event>
<event>
 7    0  0.4709932E-002  0.4946754E+03  0.7546771E-02  0.1015178E+00
         21   -1    0    0  502  501  0.00000000000E+00  0.00000000000E+00  0.33641218430E+03  0.33641218430E+03  0.00000000000E+00 0.  1.
         21   -1    0    0  501  502 -0.00000000000E+00 -0.00000000000E+00 -0.18184815007E+03  0.18184815007E+03  0.00000000000E+00 0.  1.
      99926    2    1    2    0    0  0.14210854715E-13  0.00000000000E+00  0.15456403423E+03  0.51826033437E+03  0.49467538195E+03 0.  0.
      99925    2    3    3    0    0  0.87741789991E+02  0.11805825693E+03  0.86955165001E+02  0.31367577718E+03  0.26304927054E+03 0.  0.
         25    1    3    3    0    0 -0.87741789991E+02 -0.11805825693E+03  0.67608869229E+02  0.20458455719E+03  0.12509000000E+03 0.  0.
         25    1    4    4    0    0  0.79112232773E+02  0.41244299399E+02  0.55032259711E+02  0.16320507136E+03  0.12509000000E+03 0.  0.
         25    1    4    4    0    0  0.86295572180E+01  0.76813957535E+02  0.31922905290E+02  0.15047070583E+03  0.12509000000E+03 0.  0.
<mgrwt>
<rscale>  2 0.49467538E+03</rscale>
<asrwt>0</asrwt>
<pdfrwt beam="1">  1       21 0.49472380E-01 0.49467538E+03</pdfrwt>
<pdfrwt beam="2">  1       21 0.26742375E-01 0.49467538E+03</pdfrwt>
<totfact> 0.47270672E+04</totfact>
</mgrwt>
</event>
<event>
 7    0  0.4709932E-002  0.4477686E+03  0.7546771E-02  0.1028390E+00
         21   -1    0    0  502  501  0.00000000000E+00  0.00000000000E+00  0.11822512358E+03  0.11822512358E+03  0.00000000000E+00 0. -1.
         21   -1    0    0  501  502 -0.00000000000E+00 -0.00000000000E+00 -0.42397225740E+03  0.42397225740E+03  0.00000000000E+00 0. -1.
      99926    2    1    2    0    0  0.00000000000E+00 -0.35527136788E-14 -0.30574713382E+03  0.54219738098E+03  0.44776856757E+03 0.  0.
      99925    2    3    3    0    0 -0.62092248589E+02  0.22993154622E+02 -0.29429801181E+03  0.40020187757E+03  0.26299446868E+03 0.  0.
         25    1    4    4    0    0 -0.49864535011E+02 -0.23619020284E+02 -0.13730232308E+03  0.19376213767E+03  0.12509000000E+03 0.  0.
         25    1    3    3    0    0  0.62092248589E+02 -0.22993154622E+02 -0.11449122006E+02  0.14199550341E+03  0.12509000000E+03 0.  0.
         25    1    4    4    0    0 -0.12227713578E+02  0.46612174906E+02 -0.15699568873E+03  0.20643973990E+03  0.12509000000E+03 0.  0.
<mgrwt>
<rscale>  2 0.44776857E+03</rscale>
<asrwt>0</asrwt>
<pdfrwt beam="1">  1       21 0.17386048E-01 0.44776857E+03</pdfrwt>
<pdfrwt beam="2">  1       21 0.62348861E-01 0.44776857E+03</pdfrwt>
<totfact> 0.66086464E+04</totfact>
</mgrwt>
</event>
<event>
 7    0  0.4709932E-002  0.4550321E+03  0.7546771E-02  0.1026232E+00
         21   -1    0    0  502  501  0.00000000000E+00  0.00000000000E+00  0.40039298872E+03  0.40039298872E+03  0.00000000000E+00 0. -1.
         21   -1    0    0  501  502 -0.00000000000E+00 -0.00000000000E+00 -0.12928188567E+03  0.12928188567E+03  0.00000000000E+00 0. -1.
      99926    2    1    2    0    0  0.88817841970E-15  0.00000000000E+00  0.27111110305E+03  0.52967487438E+03  0.45503213332E+03 0.  0.
      99925    2    3    3    0    0 -0.42015273012E+01 -0.10275718668E+03  0.11269672855E+03  0.30313720777E+03  0.26194450149E+03 0.  0.
         25    1    3    3    0    0  0.42015273012E+01  0.10275718668E+03  0.15841437450E+03  0.22653766662E+03  0.12509000000E+03 0.  0.
         25    1    4    4    0    0 -0.47087394704E+01 -0.92230335761E+02  0.70271057010E+02  0.17062865121E+03  0.12509000000E+03 0.  0.
         25    1    4    4    0    0  0.50721216918E+00 -0.10526850919E+02  0.42425671538E+02  0.13250855655E+03  0.12509000000E+03 0.  0.
<mgrwt>
<rscale>  2 0.45503213E+03</rscale>
<asrwt>0</asrwt>
<pdfrwt beam="1">  1       21 0.58881322E-01 0.45503213E+03</pdfrwt>
<pdfrwt beam="2">  1       21 0.19012042E-01 0.45503213E+03</pdfrwt>
<totfact> 0.63212446E+04</totfact>
</mgrwt>
</event>
<event>
 7    0  0.4709932E-002  0.4539258E+03  0.7546771E-02  0.1026558E+00
         21   -1    0    0  502  501  0.00000000000E+00  0.00000000000E+00  0.10433341250E+03  0.10433341250E+03  0.00000000000E+00 0.  1.
         21   -1    0    0  501  502 -0.00000000000E+00 -0.00000000000E+00 -0.49372648314E+03  0.49372648314E+03  0.00000000000E+00 0.  1.
      99926    2    1    2    0    0  0.35527136788E-14  0.00000000000E+00 -0.38939307064E+03  0.59805989563E+03  0.45392584780E+03 0.  0.
      99925    2    3    3    0    0  0.67882712537E+01  0.98369065453E+02 -0.31565152463E+03  0.42253816657E+03  0.26302103252E+03 0.  0.
         25    1    4    4    0    0 -0.28735929933E+02  0.67835268079E+02 -0.19036612504E+03  0.23940373207E+03  0.12509000000E+03 0.  0.
         25    1    4    4    0    0  0.35524201186E+02  0.30533797374E+02 -0.12528539959E+03  0.18313443451E+03  0.12509000000E+03 0.  0.
         25    1    3    3    0    0 -0.67882712537E+01 -0.98369065453E+02 -0.73741546009E+02  0.17552172906E+03  0.12509000000E+03 0.  0.
<mgrwt>
<rscale>  2 0.45392585E+03</rscale>
<asrwt>0</asrwt>
<pdfrwt beam="1">  1       21 0.15343149E-01 0.45392585E+03</pdfrwt>
<pdfrwt beam="2">  1       21 0.72606837E-01 0.45392585E+03</pdfrwt>
<totfact> 0.59299554E+04</totfact>
</mgrwt>
</event>
<event>
 7    0  0.4709932E-002  0.4393473E+03  0.7546771E-02  0.1030947E+00
         21   -1    0    0  502  501  0.00000000000E+00  0.00000000000E+00  0.13858543694E+03  0.13858543694E+03  0.00000000000E+00 0.  1.
         21   -1    0    0  501  502 -0.00000000000E+00 -0.00000000000E+00 -0.34820767305E+03  0.34820767305E+03  0.00000000000E+00 0.  1.
      99926    2    1    2    0    0  0.00000000000E+00 -0.14210854715E-13 -0.20962223610E+03  0.48679310999E+03  0.43934730005E+03 0.  0.
      99925    2    3    3    0    0 -0.41435882216E+02 -0.86935829465E+02 -0.15259383200E+03  0.31894044318E+03  0.26298927346E+03 0.  0.
         25    1    3    3    0    0  0.41435882216E+02  0.86935829465E+02 -0.57028404104E+02  0.16785266681E+03  0.12509000000E+03 0.  0.
         25    1    4    4    0    0 -0.49351301272E+02 -0.70195604782E+02 -0.10170430032E+03  0.18263145039E+03  0.12509000000E+03 0.  0.
         25    1    4    4    0    0  0.79154190563E+01 -0.16740224682E+02 -0.50889531675E+02  0.13630899279E+03  0.12509000000E+03 0.  0.
<mgrwt>
<rscale>  2 0.43934730E+03</rscale>
<asrwt>0</asrwt>
<pdfrwt beam="1">  1       21 0.20380212E-01 0.43934730E+03</pdfrwt>
<pdfrwt beam="2">  1       21 0.51207010E-01 0.43934730E+03</pdfrwt>
<totfact> 0.75117750E+04</totfact>
</mgrwt>
</event>
<event>
 7    0  0.4709932E-002  0.4567844E+03  0.7546771E-02  0.1025718E+00
         21   -1    0    0  502  501  0.00000000000E+00  0.00000000000E+00  0.14166045347E+03  0.14166045347E+03  0.00000000000E+00 0. -1.
         21   -1    0    0  501  502 -0.00000000000E+00 -0.00000000000E+00 -0.36822555342E+03  0.36822555342E+03  0.00000000000E+00 0. -1.
      99926    2    1    2    0    0  0.00000000000E+00  0.14210854715E-13 -0.22656509996E+03  0.50988600689E+03  0.45678440812E+03 0.  0.
      99925    2    3    3    0    0  0.78713257683E+02 -0.83520497016E+02 -0.14516892609E+03  0.32161945230E+03  0.26304677272E+03 0.  0.
         25    1    4    4    0    0  0.17647323069E+02 -0.89101216260E+01 -0.44037973812E+02  0.13408083202E+03  0.12509000000E+03 0.  0.
         25    1    3    3    0    0 -0.78713257683E+02  0.83520497016E+02 -0.81396173873E+02  0.18826655459E+03  0.12509000000E+03 0.  0.
         25    1    4    4    0    0  0.61065934613E+02 -0.74610375390E+02 -0.10113095227E+03  0.18753862027E+03  0.12509000000E+03 0.  0.
<mgrwt>
<rscale>  2 0.45678441E+03</rscale>
<asrwt>0</asrwt>
<pdfrwt beam="1">  1       21 0.20832420E-01 0.45678441E+03</pdfrwt>
<pdfrwt beam="2">  1       21 0.54150817E-01 0.45678441E+03</pdfrwt>
<totfact> 0.63675014E+04</totfact>
</mgrwt>
</event>
<event>
 7    0  0.4709932E-002  0.4561531E+03  0.7546771E-02  0.1025903E+00
         21   -1    0    0  502  501  0.00000000000E+00  0.00000000000E+00  0.26695309065E+02  0.26695309065E+02  0.00000000000E+00 0.  1.
         21   -1    0    0  501  502 -0.00000000000E+00 -0.00000000000E+00 -0.19486161238E+04  0.19486161238E+04  0.00000000000E+00 0.  1.
      99926    2    1    2    0    0  0.00000000000E+00 -0.17763568394E-14 -0.19219208147E+04  0.19753114328E+04  0.45615308690E+03 0.  0.
      99925    2    3    3    0    0  0.79482423804E+02 -0.90102647977E+01 -0.15609944707E+04  0.15850372030E+04  0.26313600443E+03 0.  0.
         25    1    4    4    0    0  0.75797527550E+02  0.10557639829E+02 -0.92504310537E+03  0.93659435394E+03  0.12509000000E+03 0.  0.
         25    1    3    3    0    0 -0.79482423804E+02  0.90102647977E+01 -0.36092634405E+03  0.39027422986E+03  0.12509000000E+03 0.  0.
         25    1    4    4    0    0  0.36848962540E+01 -0.19567904627E+02 -0.63595136529E+03  0.64844284903E+03  0.12509000000E+03 0.  0.
<mgrwt>
<rscale>  2 0.45615309E+03</rscale>
<asrwt>0</asrwt>
<pdfrwt beam="1">  1       21 0.39257809E-02 0.45615309E+03</pdfrwt>
<pdfrwt beam="2">  1       21 0.28656118E+00 0.45615309E+03</pdfrwt>
<totfact> 0.13991469E+04</totfact>
</mgrwt>
</event>
<event>
 7    0  0.4709932E-002  0.4778206E+03  0.7546771E-02  0.1019736E+00
         21   -1    0    0  502  501  0.00000000000E+00  0.00000000000E+00  0.24669791571E+03  0.24669791571E+03  0.00000000000E+00 0. -1.
         21   -1    0    0  501  502 -0.00000000000E+00 -0.00000000000E+00 -0.23136849106E+03  0.23136849106E+03  0.00000000000E+00 0. -1.
      99926    2    1    2    0    0  0.00000000000E+00  0.00000000000E+00  0.15329424649E+02  0.47806640677E+03  0.47782057095E+03 0.  0.
      99925    2    3    3    0    0 -0.25612265300E+02 -0.12822573049E+03 -0.17308536264E+02  0.29418989743E+03  0.26296441628E+03 0.  0.
         25    1    4    4    0    0 -0.43997291259E+01 -0.30697607892E+02  0.18516512200E+02  0.13020011548E+03  0.12509000000E+03 0.  0.
         25    1    4    4    0    0 -0.21212536175E+02 -0.97528122598E+02 -0.35825048464E+02  0.16398978196E+03  0.12509000000E+03 0.  0.
         25    1    3    3    0    0  0.25612265300E+02  0.12822573049E+03  0.32637960913E+02  0.18387650934E+03  0.12509000000E+03 0.  0.
<mgrwt>
<rscale>  2 0.47782057E+03</rscale>
<asrwt>0</asrwt>
<pdfrwt beam="1">  1       21 0.36279105E-01 0.47782057E+03</pdfrwt>
<pdfrwt beam="2">  1       21 0.34024778E-01 0.47782057E+03</pdfrwt>
<totfact> 0.55979350E+04</totfact>
</mgrwt>
</event>
<event>
 7    0  0.4709932E-002  0.4592306E+03  0.7546771E-02  0.1025005E+00
         21   -1    0    0  502  501  0.00000000000E+00  0.00000000000E+00  0.92529588244E+02  0.92529588244E+02  0.00000000000E+00 0.  1.
         21   -1    0    0  501  502 -0.00000000000E+00 -0.00000000000E+00 -0.56979820121E+03  0.56979820121E+03  0.00000000000E+00 0.  1.
      99926    2    1    2    0    0  0.00000000000E+00 -0.35527136788E-14 -0.47726861297E+03  0.66232778946E+03  0.45923063025E+03 0.  0.
      99925    2    3    3    0    0  0.72919627672E+02  0.10386727101E+02 -0.16784089227E+03  0.32054104507E+03  0.26296547351E+03 0.  0.
         25    1    4    4    0    0  0.51051513468E+02  0.36343014528E+02 -0.61252311104E+02  0.15272991013E+03  0.12509000000E+03 0.  0.
         25    1    3    3    0    0 -0.72919627672E+02 -0.10386727101E+02 -0.30942772070E+03  0.34178674439E+03  0.12509000000E+03 0.  0.
         25    1    4    4    0    0  0.21868114204E+02 -0.25956287427E+02 -0.10658858116E+03  0.16781113494E+03  0.12509000000E+03 0.  0.
<mgrwt>
<rscale>  2 0.45923063E+03</rscale>
<asrwt>0</asrwt>
<pdfrwt beam="1">  1       21 0.13607293E-01 0.45923063E+03</pdfrwt>
<pdfrwt beam="2">  1       21 0.83793852E-01 0.45923063E+03</pdfrwt>
<totfact> 0.53199110E+04</totfact>
</mgrwt>
</event>
<event>
 7    0  0.4709932E-002  0.4334464E+03  0.7546771E-02  0.1032777E+00
         21   -1    0    0  502  501  0.00000000000E+00  0.00000000000E+00  0.16339773995E+03  0.16339773995E+03  0.00000000000E+00 0. -1.
         21   -1    0    0  501  502 -0.00000000000E+00 -0.00000000000E+00 -0.28745158724E+03  0.28745158724E+03  0.00000000000E+00 0. -1.
      99926    2    1    2    0    0  0.00000000000E+00  0.71054273576E-14 -0.12405384729E+03  0.45084932719E+03  0.43344637361E+03 0.  0.
      99925    2    3    3    0    0 -0.42387580246E+02 -0.59589627526E+02 -0.22623637189E+02  0.27397867872E+03  0.26306815992E+03 0.  0.
         25    1    4    4    0    0 -0.33302022518E+02  0.78816311101E+01  0.55799999191E+00  0.12968794962E+03  0.12509000000E+03 0.  0.
         25    1    4    4    0    0 -0.90855577281E+01 -0.67471258636E+02 -0.23181637180E+02  0.14429072910E+03  0.12509000000E+03 0.  0.
         25    1    3    3    0    0  0.42387580246E+02  0.59589627526E+02 -0.10143021010E+03  0.17687064847E+03  0.12509000000E+03 0.  0.
<mgrwt>
<rscale>  2 0.43344637E+03</rscale>
<asrwt>0</asrwt>
<pdfrwt beam="1">  1       21 0.24029080E-01 0.43344637E+03</pdfrwt>
<pdfrwt beam="2">  1       21 0.42272292E-01 0.43344637E+03</pdfrwt>
<totfact> 0.82042161E+04</totfact>
</mgrwt>
</event>
<event>
 7    0  0.4709932E-002  0.4573118E+03  0.7546771E-02  0.1025564E+00
         21   -1    0    0  502  501  0.00000000000E+00  0.00000000000E+00  0.33934388579E+03  0.33934388579E+03  0.00000000000E+00 0.  1.
         21   -1    0    0  501  502 -0.00000000000E+00 -0.00000000000E+00 -0.15407241150E+03  0.15407241150E+03  0.00000000000E+00 0.  1.
      99926    2    1    2    0    0 -0.71054273576E-14  0.00000000000E+00  0.18527147429E+03  0.49341629729E+03  0.45731184464E+03 0.  0.
      99925    2    3    3    0    0  0.61252335383E+02 -0.67944943912E+02  0.19207487759E+03  0.33829647783E+03  0.26302734519E+03 0.  0.
         25    1    4    4    0    0  0.70070456626E+02 -0.25134876394E+02  0.91371689032E+02  0.17186600757E+03  0.12509000000E+03 0.  0.
         25    1    3    3    0    0 -0.61252335383E+02  0.67944943912E+02 -0.68034033045E+01  0.15511981946E+03  0.12509000000E+03 0.  0.
         25    1    4    4    0    0 -0.88181212429E+01 -0.42810067518E+02  0.10070318856E+03  0.16643047026E+03  0.12509000000E+03 0.  0.
<mgrwt>
<rscale>  2 0.45731184E+03</rscale>
<asrwt>0</asrwt>
<pdfrwt beam="1">  1       21 0.49903513E-01 0.45731184E+03</pdfrwt>
<pdfrwt beam="2">  1       21 0.22657708E-01 0.45731184E+03</pdfrwt>
<totfact> 0.64542988E+04</totfact>
</mgrwt>
</event>
<event>
 7    0  0.4709932E-002  0.4120893E+03  0.7546771E-02  0.1039672E+00
         21   -1    0    0  502  501  0.00000000000E+00  0.00000000000E+00  0.62014109589E+03  0.62014109589E+03  0.00000000000E+00 0. -1.
         21   -1    0    0  501  502 -0.00000000000E+00 -0.00000000000E+00 -0.68459245170E+02  0.68459245170E+02  0.00000000000E+00 0. -1.
      99926    2    1    2    0    0  0.00000000000E+00  0.00000000000E+00  0.55168185072E+03  0.68860034106E+03  0.41208926860E+03 0.  0.
      99925    2    3    3    0    0  0.34496378969E+02 -0.46252472104E+02  0.31172825840E+03  0.41191545549E+03  0.26300293543E+03 0.  0.
         25    1    4    4    0    0  0.21462513393E+02 -0.83056983496E+01  0.96061744168E+02  0.15938943158E+03  0.12509000000E+03 0.  0.
         25    1    3    3    0    0 -0.34496378969E+02  0.46252472104E+02  0.23995359232E+03  0.27668488557E+03  0.12509000000E+03 0.  0.
         25    1    4    4    0    0  0.13033865575E+02 -0.37946773754E+02  0.21566651424E+03  0.25252602391E+03  0.12509000000E+03 0.  0.
<mgrwt>
<rscale>  2 0.41208927E+03</rscale>
<asrwt>0</asrwt>
<pdfrwt beam="1">  1       21 0.91197217E-01 0.41208927E+03</pdfrwt>
<pdfrwt beam="2">  1       21 0.10067536E-01 0.41208927E+03</pdfrwt>
<totfact> 0.76179433E+04</totfact>
</mgrwt>
</event>
<event>
 7    0  0.4709932E-002  0.4484240E+03  0.7546771E-02  0.1028193E+00
         21   -1    0    0  502  501  0.00000000000E+00  0.00000000000E+00  0.55374723856E+02  0.55374723856E+02  0.00000000000E+00 0.  1.
         21   -1    0    0  501  502 -0.00000000000E+00 -0.00000000000E+00 -0.90783349379E+03  0.90783349379E+03  0.00000000000E+00 0.  1.
      99926    2    1    2    0    0  0.00000000000E+00  0.00000000000E+00 -0.85245876994E+03  0.96320821765E+03  0.44842403604E+03 0.  0.
      99925    2    3    3    0    0 -0.25139099695E+02 -0.98858636949E+02 -0.60895257901E+03  0.67106479815E+03  0.26286824724E+03 0.  0.
         25    1    4    4    0    0 -0.23183621913E+02 -0.82553630918E+01 -0.27249373635E+03  0.30084211107E+03  0.12509000000E+03 0.  0.
         25    1    3    3    0    0  0.25139099695E+02  0.98858636949E+02 -0.24350619093E+03  0.29214341949E+03  0.12509000000E+03 0.  0.
         25    1    4    4    0    0 -0.19554777826E+01 -0.90603273857E+02 -0.33645884266E+03  0.37022268708E+03  0.12509000000E+03 0.  0.
<mgrwt>
<rscale>  2 0.44842404E+03</rscale>
<asrwt>0</asrwt>
<pdfrwt beam="1">  1       21 0.81433421E-02 0.44842404E+03</pdfrwt>
<pdfrwt beam="2">  1       21 0.13350492E+00 0.44842404E+03</pdfrwt>
<totfact> 0.42767456E+04</totfact>
</mgrwt>
</event>
<event>
 7    0  0.4709932E-002  0.4466049E+03  0.7546771E-02  0.1028739E+00
         21   -1    0    0  502  501  0.00000000000E+00  0.00000000000E+00  0.15610802014E+03  0.15610802014E+03  0.00000000000E+00 0.  1.
         21   -1    0    0  501  502 -0.00000000000E+00 -0.00000000000E+00 -0.31941978757E+03  0.31941978757E+03  0.00000000000E+00 0.  1.
      99926    2    1    2    0    0  0.00000000000E+00  0.00000000000E+00 -0.16331176744E+03  0.47552780771E+03  0.44660492890E+03 0.  0.
      99925    2    3    3    0    0  0.79990568710E+02  0.55987888527E+02 -0.61814525052E+02  0.28716025993E+03  0.26288180734E+03 0.  0.
         25    1    4    4    0    0  0.57503505188E+02  0.30164759247E+02 -0.69691945893E+02  0.15722926328E+03  0.12509000000E+03 0.  0.
         25    1    3    3    0    0 -0.79990568710E+02 -0.55987888527E+02 -0.10149724238E+03  0.18836754778E+03  0.12509000000E+03 0.  0.
         25    1    4    4    0    0  0.22487063522E+02  0.25823129279E+02  0.78774208409E+01  0.12993099665E+03  0.12509000000E+03 0.  0.
<mgrwt>
<rscale>  2 0.44660493E+03</rscale>
<asrwt>0</asrwt>
<pdfrwt beam="1">  1       21 0.22957062E-01 0.44660493E+03</pdfrwt>
<pdfrwt beam="2">  1       21 0.46973498E-01 0.44660493E+03</pdfrwt>
<totfact> 0.71686194E+04</totfact>
</mgrwt>
</event>
<event>
 7    0  0.4709932E-002  0.4479512E+03  0.7546771E-02  0.1028335E+00
         21   -1    0    0  502  501  0.00000000000E+00  0.00000000000E+00  0.77046586211E+03  0.77046586211E+03  0.00000000000E+00 0.  1.
         21   -1    0    0  501  502 -0.00000000000E+00 -0.00000000000E+00 -0.65110043617E+02  0.65110043617E+02  0.00000000000E+00 0.  1.
      99926    2    1    2    0    0  0.14210854715E-13 -0.35527136788E-14  0.70535581849E+03  0.83557590572E+03  0.44795118434E+03 0.  0.
      99925    2    3    3    0    0 -0.10082196561E+03  0.31135965381E+02  0.47590503155E+03  0.55374317374E+03  0.26270018333E+03 0.  0.
         25    1    3    3    0    0  0.10082196561E+03 -0.31135965381E+02  0.22945078694E+03  0.28183273198E+03  0.12509000000E+03 0.  0.
         25    1    4    4    0    0 -0.13263433801E+02  0.33908106791E+02  0.21158992826E+03  0.24848236200E+03  0.12509000000E+03 0.  0.
         25    1    4    4    0    0 -0.87558531807E+02 -0.27721414091E+01  0.26431510329E+03  0.30526081175E+03  0.12509000000E+03 0.  0.
<mgrwt>
<rscale>  2 0.44795118E+03</rscale>
<asrwt>0</asrwt>
<pdfrwt beam="1">  1       21 0.11330380E+00 0.44795118E+03</pdfrwt>
<pdfrwt beam="2">  1       21 0.95750069E-02 0.44795118E+03</pdfrwt>
<totfact> 0.48731244E+04</totfact>
</mgrwt>
</event>
<event>
 7    0  0.4709932E-002  0.4553885E+03  0.7546771E-02  0.1026127E+00
         21   -1    0    0  502  501  0.00000000000E+00  0.00000000000E+00  0.13532176655E+04  0.13532176655E+04  0.00000000000E+00 0.  1.
         21   -1    0    0  501  502 -0.00000000000E+00 -0.00000000000E+00 -0.38312143879E+02  0.38312143879E+02  0.00000000000E+00 0.  1.
      99926    2    1    2    0    0 -0.71054273576E-14  0.14210854715E-13  0.13149055217E+04  0.13915298094E+04  0.45538849306E+03 0.  0.
      99925    2    3    3    0    0  0.62536939932E+02  0.94303172112E+02  0.80020122235E+03  0.84989157133E+03  0.26303940703E+03 0.  0.
         25    1    4    4    0    0 -0.38407283058E+01  0.22281465390E+02  0.37681998731E+03  0.39768332356E+03  0.12509000000E+03 0.  0.
         25    1    3    3    0    0 -0.62536939932E+02 -0.94303172112E+02  0.51470429932E+03  0.54163823809E+03  0.12509000000E+03 0.  0.
         25    1    4    4    0    0  0.66377668238E+02  0.72021706722E+02  0.42338123503E+03  0.45220824778E+03  0.12509000000E+03 0.  0.
<mgrwt>
<rscale>  2 0.45538849E+03</rscale>
<asrwt>0</asrwt>
<pdfrwt beam="1">  1       21 0.19900257E+00 0.45538849E+03</pdfrwt>
<pdfrwt beam="2">  1       21 0.56341397E-02 0.45538849E+03</pdfrwt>
<totfact> 0.26478563E+04</totfact>
</mgrwt>
</event>
<event>
 7    0  0.4709932E-002  0.4496077E+03  0.7546771E-02  0.1027839E+00
         21   -1    0    0  502  501  0.00000000000E+00  0.00000000000E+00  0.22460068305E+03  0.22460068305E+03  0.00000000000E+00 0.  1.
         21   -1    0    0  501  502 -0.00000000000E+00 -0.00000000000E+00 -0.22500723139E+03  0.22500723139E+03  0.00000000000E+00 0.  1.
      99926    2    1    2    0    0  0.00000000000E+00  0.00000000000E+00 -0.40654833813E+00  0.44960791445E+03  0.44960773064E+03 0.  0.
      99925    2    3    3    0    0  0.98615444482E+02  0.30377208618E+02 -0.32559163060E+02  0.28429282310E+03  0.26289642347E+03 0.  0.
         25    1    4    4    0    0  0.19047826190E+02  0.41652142275E+02 -0.66872811954E+01  0.13337896561E+03  0.12509000000E+03 0.  0.
         25    1    4    4    0    0  0.79567618292E+02 -0.11274933657E+02 -0.25871881865E+02  0.15091385748E+03  0.12509000000E+03 0.  0.
         25    1    3    3    0    0 -0.98615444482E+02 -0.30377208618E+02  0.32152614722E+02  0.16531509135E+03  0.12509000000E+03 0.  0.
<mgrwt>
<rscale>  2 0.44960773E+03</rscale>
<asrwt>0</asrwt>
<pdfrwt beam="1">  1       21 0.33029513E-01 0.44960773E+03</pdfrwt>
<pdfrwt beam="2">  1       21 0.33089298E-01 0.44960773E+03</pdfrwt>
<totfact> 0.71990497E+04</totfact>
</mgrwt>
</event>
<event>
 7    0  0.4709932E-002  0.4568879E+03  0.7546771E-02  0.1025688E+00
         21   -1    0    0  502  501  0.00000000000E+00  0.00000000000E+00  0.11002993394E+03  0.11002993394E+03  0.00000000000E+00 0. -1.
         21   -1    0    0  501  502 -0.00000000000E+00 -0.00000000000E+00 -0.47429499006E+03  0.47429499006E+03  0.00000000000E+00 0. -1.
      99926    2    1    2    0    0  0.00000000000E+00 -0.28421709430E-13 -0.36426505612E+03  0.58432492400E+03  0.45688793561E+03 0.  0.
      99925    2    3    3    0    0  0.27363830079E+02 -0.97381766913E+02 -0.15901727153E+03  0.32354503808E+03  0.26298842427E+03 0.  0.
         25    1    4    4    0    0  0.36648817963E+02 -0.14854612132E+02 -0.65243317967E+02  0.14651960278E+03  0.12509000000E+03 0.  0.
         25    1    4    4    0    0 -0.92849878838E+01 -0.82527154781E+02 -0.93773953564E+02  0.17702543530E+03  0.12509000000E+03 0.  0.
         25    1    3    3    0    0 -0.27363830079E+02  0.97381766913E+02 -0.20524778459E+03  0.26077988592E+03  0.12509000000E+03 0.  0.
<mgrwt>
<rscale>  2 0.45688794E+03</rscale>
<asrwt>0</asrwt>
<pdfrwt beam="1">  1       21 0.16180873E-01 0.45688794E+03</pdfrwt>
<pdfrwt beam="2">  1       21 0.69749262E-01 0.45688794E+03</pdfrwt>
<totfact> 0.58771613E+04</totfact>
</mgrwt>
</event>
<event>
 7    0  0.4709932E-002  0.4572198E+03  0.7546771E-02  0.1025591E+00
         21   -1    0    0  502  501  0.00000000000E+00  0.00000000000E+00  0.10595945623E+03  0.10595945623E+03  0.00000000000E+00 0. -1.
         21   -1    0    0  501  502 -0.00000000000E+00 -0.00000000000E+00 -0.49323087934E+03  0.49323087934E+03  0.00000000000E+00 0. -1.
      99926    2    1    2    0    0  0.00000000000E+00  0.00000000000E+00 -0.38727142311E+03  0.59919033558E+03  0.45721975361E+03 0.  0.
      99925    2    3    3    0    0 -0.89646575472E+02  0.68152629165E+02 -0.27560037170E+03  0.39720216469E+03  0.26293098980E+03 0.  0.
         25    1    4    4    0    0 -0.45308381473E+02  0.64456954141E+02 -0.18338210842E+03  0.23555053419E+03  0.12509000000E+03 0.  0.
         25    1    3    3    0    0  0.89646575472E+02 -0.68152629165E+02 -0.11167105141E+03  0.20198817089E+03  0.12509000000E+03 0.  0.
         25    1    4    4    0    0 -0.44338193998E+02  0.36956750240E+01 -0.92218263279E+02  0.16165163050E+03  0.12509000000E+03 0.  0.
<mgrwt>
<rscale>  2 0.45721975E+03</rscale>
<asrwt>0</asrwt>
<pdfrwt beam="1">  1       21 0.15582273E-01 0.45721975E+03</pdfrwt>
<pdfrwt beam="2">  1       21 0.72533953E-01 0.45721975E+03</pdfrwt>
<totfact> 0.57709263E+04</totfact>
</mgrwt>
</event>
<event>
 7    0  0.4709932E-002  0.4651297E+03  0.7546771E-02  0.1023304E+00
         21   -1    0    0  502  501  0.00000000000E+00  0.00000000000E+00  0.51678087060E+02  0.51678087060E+02  0.00000000000E+00 0.  1.
         21   -1    0    0  501  502 -0.00000000000E+00 -0.00000000000E+00 -0.10466024741E+04  0.10466024741E+04  0.00000000000E+00 0.  1.
      99926    2    1    2    0    0  0.35527136788E-14 -0.71054273576E-14 -0.99492438703E+03  0.10982805612E+04  0.46512971857E+03 0.  0.
      99925    2    3    3    0    0 -0.31751356574E+02  0.24303671986E+02 -0.89364815699E+03  0.93243967359E+03  0.26313095461E+03 0.  0.
         25    1    4    4    0    0 -0.92873671323E+01 -0.27182037505E+02 -0.46546681466E+03  0.48283742813E+03  0.12509000000E+03 0.  0.
         25    1    4    4    0    0 -0.22463989442E+02  0.51485709491E+02 -0.42818134234E+03  0.44960224547E+03  0.12509000000E+03 0.  0.
         25    1    3    3    0    0  0.31751356574E+02 -0.24303671986E+02 -0.10127623004E+03  0.16584088756E+03  0.12509000000E+03 0.  0.
<mgrwt>
<rscale>  2 0.46512972E+03</rscale>
<asrwt>0</asrwt>
<pdfrwt beam="1">  1       21 0.75997193E-02 0.46512972E+03</pdfrwt>
<pdfrwt beam="2">  1       21 0.15391212E+00 0.46512972E+03</pdfrwt>
<totfact> 0.32877895E+04</totfact>
</mgrwt>
</event>
<event>
 7    0  0.4709932E-002  0.4562398E+03  0.7546771E-02  0.1025877E+00
         21   -1    0    0  502  501  0.00000000000E+00  0.00000000000E+00  0.18698094776E+03  0.18698094776E+03  0.00000000000E+00 0. -1.
         21   -1    0    0  501  502 -0.00000000000E+00 -0.00000000000E+00 -0.27831006024E+03  0.27831006024E+03  0.00000000000E+00 0. -1.
      99926    2    1    2    0    0 -0.35527136788E-14 -0.71054273576E-14 -0.91329112476E+02  0.46529100801E+03  0.45623975643E+03 0.  0.
      99925    2    3    3    0    0 -0.23024308909E+02 -0.56088020876E+02  0.41373225231E+02  0.27311035492E+03  0.26306185074E+03 0.  0.
         25    1    4    4    0    0 -0.26869881108E+02  0.56191171883E+01  0.18280958383E+01  0.12807972136E+03  0.12509000000E+03 0.  0.
         25    1    4    4    0    0  0.38455721991E+01 -0.61707138064E+02  0.39545129393E+02  0.14503063357E+03  0.12509000000E+03 0.  0.
         25    1    3    3    0    0  0.23024308909E+02  0.56088020876E+02 -0.13270233771E+03  0.19218065308E+03  0.12509000000E+03 0.  0.
<mgrwt>
<rscale>  2 0.45623976E+03</rscale>
<asrwt>0</asrwt>
<pdfrwt beam="1">  1       21 0.27497198E-01 0.45623976E+03</pdfrwt>
<pdfrwt beam="2">  1       21 0.40927950E-01 0.45623976E+03</pdfrwt>
<totfact> 0.67124679E+04</totfact>
</mgrwt>
</event>
<event>
 7    0  0.4709932E-002  0.4585402E+03  0.7546771E-02  0.1025205E+00
         21   -1    0    0  502  501  0.00000000000E+00  0.00000000000E+00  0.16184002986E+04  0.16184002986E+04  0.00000000000E+00 0. -1.
         21   -1    0    0  501  502 -0.00000000000E+00 -0.00000000000E+00 -0.32479461888E+02  0.32479461888E+02  0.00000000000E+00 0. -1.
      99926    2    1    2    0    0  0.00000000000E+00  0.00000000000E+00  0.15859208367E+04  0.16508797605E+04  0.45854016539E+03 0.  0.
      99925    2    3    3    0    0 -0.34910608533E+02  0.12342064823E+02  0.59787663408E+03  0.65426050942E+03  0.26311455196E+03 0.  0.
         25    1    4    4    0    0 -0.47800460372E+02 -0.11345234220E+02  0.25429760539E+03  0.28762541361E+03  0.12509000000E+03 0.  0.
         25    1    3    3    0    0  0.34910608533E+02 -0.12342064823E+02  0.98804420263E+03  0.99661925107E+03  0.12509000000E+03 0.  0.
         25    1    4    4    0    0  0.12889851840E+02  0.23687299043E+02  0.34357902870E+03  0.36663509581E+03  0.12509000000E+03 0.  0.
<mgrwt>
<rscale>  2 0.45854017E+03</rscale>
<asrwt>0</asrwt>
<pdfrwt beam="1">  1       21 0.23799999E+00 0.45854017E+03</pdfrwt>
<pdfrwt beam="2">  1       21 0.47763925E-02 0.45854017E+03</pdfrwt>
<totfact> 0.19755446E+04</totfact>
</mgrwt>
</event>
<event>
 7    0  0.4709932E-002  0.4562182E+03  0.7546771E-02  0.1025884E+00
         21   -1    0    0  502  501  0.00000000000E+00  0.00000000000E+00  0.12089983489E+04  0.12089983489E+04  0.00000000000E+00 0. -1.
         21   -1    0    0  501  502 -0.00000000000E+00 -0.00000000000E+00 -0.43038732961E+02  0.43038732961E+02  0.00000000000E+00 0. -1.
      99926    2    1    2    0    0  0.00000000000E+00  0.00000000000E+00  0.11659596160E+04  0.12520370819E+04  0.45621818065E+03 0.  0.
      99925    2    3    3    0    0  0.20235784739E+02  0.20612770070E+02  0.10363902701E+04  0.10696361587E+04  0.26302537311E+03 0.  0.
         25    1    4    4    0    0  0.47248830068E+02  0.25408770570E+02  0.50329383868E+03  0.52137343020E+03  0.12509000000E+03 0.  0.
         25    1    4    4    0    0 -0.27013045329E+02 -0.47960005006E+01  0.53309643137E+03  0.54826272851E+03  0.12509000000E+03 0.  0.
         25    1    3    3    0    0 -0.20235784739E+02 -0.20612770070E+02  0.12956934592E+03  0.18240092318E+03  0.12509000000E+03 0.  0.
<mgrwt>
<rscale>  2 0.45621818E+03</rscale>
<asrwt>0</asrwt>
<pdfrwt beam="1">  1       21 0.17779385E+00 0.45621818E+03</pdfrwt>
<pdfrwt beam="2">  1       21 0.63292262E-02 0.45621818E+03</pdfrwt>
<totfact> 0.30252170E+04</totfact>
</mgrwt>
</event>
<event>
 7    0  0.4709932E-002  0.4703973E+03  0.7546771E-02  0.1021808E+00
         21   -1    0    0  502  501  0.00000000000E+00  0.00000000000E+00  0.54295215521E+03  0.54295215521E+03  0.00000000000E+00 0. -1.
         21   -1    0    0  501  502 -0.00000000000E+00 -0.00000000000E+00 -0.10188447633E+03  0.10188447633E+03  0.00000000000E+00 0. -1.
      99926    2    1    2    0    0  0.00000000000E+00  0.00000000000E+00  0.44106767888E+03  0.64483663154E+03  0.47039726192E+03 0.  0.
      99925    2    3    3    0    0 -0.91652414729E+01  0.18480742486E+01  0.10009984296E+03  0.28152685978E+03  0.26296383246E+03 0.  0.
         25    1    4    4    0    0 -0.12556885248E+02  0.71664775230E+01  0.82193964972E+01  0.12619073003E+03  0.12509000000E+03 0.  0.
         25    1    4    4    0    0  0.33916437751E+01 -0.53184032744E+01  0.91880446467E+02  0.15533612974E+03  0.12509000000E+03 0.  0.
         25    1    3    3    0    0  0.91652414729E+01 -0.18480742486E+01  0.34096783592E+03  0.36330977176E+03  0.12509000000E+03 0.  0.
<mgrwt>
<rscale>  2 0.47039726E+03</rscale>
<asrwt>0</asrwt>
<pdfrwt beam="1">  1       21 0.79845904E-01 0.47039726E+03</pdfrwt>
<pdfrwt beam="2">  1       21 0.14983012E-01 0.47039726E+03</pdfrwt>
<totfact> 0.49682463E+04</totfact>
</mgrwt>
</event>
<event>
 7    0  0.4709932E-002  0.4512697E+03  0.7546771E-02  0.1027344E+00
         21   -1    0    0  502  501  0.00000000000E+00  0.00000000000E+00  0.19416365884E+04  0.19416365884E+04  0.00000000000E+00 0.  1.
         21   -1    0    0  501  502 -0.00000000000E+00 -0.00000000000E+00 -0.26220707548E+02  0.26220707548E+02  0.00000000000E+00 0.  1.
      99926    2    1    2    0    0  0.00000000000E+00  0.35527136788E-14  0.19154158808E+04  0.19678572959E+04  0.45126969829E+03 0.  0.
      99925    2    3    3    0    0 -0.33123090645E+02 -0.17064422368E+02  0.16589645358E+04  0.16801019587E+04  0.26304168278E+03 0.  0.
         25    1    4    4    0    0  0.30297020500E+01  0.12978124357E+02  0.98651184352E+03  0.99450024450E+03  0.12509000000E+03 0.  0.
         25    1    3    3    0    0  0.33123090645E+02  0.17064422368E+02  0.25645134502E+03  0.28775533724E+03  0.12509000000E+03 0.  0.
         25    1    4    4    0    0 -0.36152792695E+02 -0.30042546725E+02  0.67245269228E+03  0.68560171418E+03  0.12509000000E+03 0.  0.
<mgrwt>
<rscale>  2 0.45126970E+03</rscale>
<asrwt>0</asrwt>
<pdfrwt beam="1">  1       21 0.28553469E+00 0.45126970E+03</pdfrwt>
<pdfrwt beam="2">  1       21 0.38559877E-02 0.45126970E+03</pdfrwt>
<totfact> 0.14661749E+04</totfact>
</mgrwt>
</event>
<event>
 7    0  0.4709932E-002  0.4500343E+03  0.7546771E-02  0.1027712E+00
         21   -1    0    0  502  501  0.00000000000E+00  0.00000000000E+00  0.27229753762E+03  0.27229753762E+03  0.00000000000E+00 0.  1.
         21   -1    0    0  501  502 -0.00000000000E+00 -0.00000000000E+00 -0.18594631933E+03  0.18594631933E+03  0.00000000000E+00 0.  1.
      99926    2    1    2    0    0  0.00000000000E+00  0.00000000000E+00  0.86351218293E+02  0.45824385695E+03  0.45003433151E+03 0.  0.
      99925    2    3    3    0    0 -0.82232449264E+02  0.33595950782E+02 -0.97065768587E+01  0.27723150453E+03  0.26243518409E+03 0.  0.
         25    1    3    3    0    0  0.82232449264E+02 -0.33595950782E+02  0.96057795152E+02  0.18101235242E+03  0.12509000000E+03 0.  0.
         25    1    4    4    0    0 -0.57048540422E+02  0.24329834992E+02 -0.41014808391E+02  0.14552044338E+03  0.12509000000E+03 0.  0.
         25    1    4    4    0    0 -0.25183908843E+02  0.92661157898E+01  0.31308231532E+02  0.13171106115E+03  0.12509000000E+03 0.  0.
<mgrwt>
<rscale>  2 0.45003433E+03</rscale>
<asrwt>0</asrwt>
<pdfrwt beam="1">  1       21 0.40043756E-01 0.45003433E+03</pdfrwt>
<pdfrwt beam="2">  1       21 0.27345047E-01 0.45003433E+03</pdfrwt>
<totfact> 0.71079253E+04</totfact>
</mgrwt>
</event>
<event>
 7    0  0.4709932E-002  0.4573636E+03  0.7546771E-02  0.1025549E+00
         21   -1    0    0  502  501  0.00000000000E+00  0.00000000000E+00  0.97927201509E+02  0.97927201509E+02  0.00000000000E+00 0. -1.
         21   -1    0    0  501  502 -0.00000000000E+00 -0.00000000000E+00 -0.53402281281E+03  0.53402281281E+03  0.00000000000E+00 0. -1.
      99926    2    1    2    0    0  0.00000000000E+00  0.00000000000E+00 -0.43609561130E+03  0.63195001432E+03  0.45736357354E+03 0.  0.
      99925    2    3    3    0    0 -0.69362223701E+02 -0.83389222056E+02 -0.32840759427E+03  0.43444280547E+03  0.26291466834E+03 0.  0.
         25    1    4    4    0    0 -0.43021489032E+02 -0.39735589466E+02 -0.10551337782E+03  0.17381123838E+03  0.12509000000E+03 0.  0.
         25    1    4    4    0    0 -0.26340734669E+02 -0.43653632590E+02 -0.22289421644E+03  0.26063156709E+03  0.12509000000E+03 0.  0.
         25    1    3    3    0    0  0.69362223701E+02  0.83389222056E+02 -0.10768801703E+03  0.19750720884E+03  0.12509000000E+03 0.  0.
<mgrwt>
<rscale>  2 0.45736357E+03</rscale>
<asrwt>0</asrwt>
<pdfrwt beam="1">  1       21 0.14401059E-01 0.45736357E+03</pdfrwt>
<pdfrwt beam="2">  1       21 0.78532768E-01 0.45736357E+03</pdfrwt>
<totfact> 0.55706879E+04</totfact>
</mgrwt>
</event>
<event>
 7    0  0.4709932E-002  0.4517584E+03  0.7546771E-02  0.1027199E+00
         21   -1    0    0  502  501  0.00000000000E+00  0.00000000000E+00  0.20620179546E+03  0.20620179546E+03  0.00000000000E+00 0.  1.
         21   -1    0    0  501  502 -0.00000000000E+00 -0.00000000000E+00 -0.24743439103E+03  0.24743439103E+03  0.00000000000E+00 0.  1.
      99926    2    1    2    0    0  0.00000000000E+00  0.71054273576E-14 -0.41232595577E+02  0.45363618649E+03  0.45175841194E+03 0.  0.
      99925    2    3    3    0    0  0.64628614788E+02  0.63183811281E+02  0.37131123498E+02  0.28055403136E+03  0.26298819807E+03 0.  0.
         25    1    4    4    0    0  0.68700029869E+02  0.51093363031E+02  0.30626206344E+02  0.15464701247E+03  0.12509000000E+03 0.  0.
         25    1    3    3    0    0 -0.64628614788E+02 -0.63183811281E+02 -0.78363719076E+02  0.17308215513E+03  0.12509000000E+03 0.  0.
         25    1    4    4    0    0 -0.40714150809E+01  0.12090448250E+02  0.65049171543E+01  0.12590701889E+03  0.12509000000E+03 0.  0.
<mgrwt>
<rscale>  2 0.45175841E+03</rscale>
<asrwt>0</asrwt>
<pdfrwt beam="1">  1       21 0.30323794E-01 0.45175841E+03</pdfrwt>
<pdfrwt beam="2">  1       21 0.36387410E-01 0.45175841E+03</pdfrwt>
<totfact> 0.70450367E+04</totfact>
</mgrwt>
</event>
<event>
 7    0  0.4709932E-002  0.4546811E+03  0.7546771E-02  0.1026335E+00
         21   -1    0    0  502  501  0.00000000000E+00  0.00000000000E+00  0.83282990797E+03  0.83282990797E+03  0.00000000000E+00 0. -1.
         21   -1    0    0  501  502 -0.00000000000E+00 -0.00000000000E+00 -0.62057972195E+02  0.62057972195E+02  0.00000000000E+00 0. -1.
      99926    2    1    2    0    0  0.00000000000E+00  0.00000000000E+00  0.77077193577E+03  0.89488788016E+03  0.45468114221E+03 0.  0.
      99925    2    3    3    0    0  0.58172991618E+02  0.77065499013E+02  0.37076978071E+03  0.46480367882E+03  0.26315212608E+03 0.  0.
         25    1    4    4    0    0  0.56975719147E+01  0.34446937712E+02  0.23338561131E+03  0.26708688757E+03  0.12509000000E+03 0.  0.
         25    1    4    4    0    0  0.52475419703E+02  0.42618561301E+02  0.13738416940E+03  0.19771679125E+03  0.12509000000E+03 0.  0.
         25    1    3    3    0    0 -0.58172991618E+02 -0.77065499013E+02  0.40000215506E+03  0.43008420134E+03  0.12509000000E+03 0.  0.
<mgrwt>
<rscale>  2 0.45468114E+03</rscale>
<asrwt>0</asrwt>
<pdfrwt beam="1">  1       21 0.12247498E+00 0.45468114E+03</pdfrwt>
<pdfrwt beam="2">  1       21 0.91261729E-02 0.45468114E+03</pdfrwt>
<totfact> 0.43564116E+04</totfact>
</mgrwt>
</event>
<event>
 7    0  0.4709932E-002  0.4571438E+03  0.7546771E-02  0.1025613E+00
         21   -1    0    0  502  501  0.00000000000E+00  0.00000000000E+00  0.28424525339E+02  0.28424525339E+02  0.00000000000E+00 0.  1.
         21   -1    0    0  501  502 -0.00000000000E+00 -0.00000000000E+00 -0.18380291545E+04  0.18380291545E+04  0.00000000000E+00 0.  1.
      99926    2    1    2    0    0  0.14210854715E-13  0.00000000000E+00 -0.18096046291E+04  0.18664536798E+04  0.45714376852E+03 0.  0.
      99925    2    3    3    0    0  0.92867255653E+02  0.66872493141E+02 -0.10824007041E+04  0.11197480388E+04  0.26296031798E+03 0.  0.
         25    1    4    4    0    0  0.11412980612E+02  0.72076512761E+01 -0.49665408628E+03  0.51234265476E+03  0.12509000000E+03 0.  0.
         25    1    4    4    0    0  0.81454275041E+02  0.59664841864E+02 -0.58574661778E+03  0.60740538409E+03  0.12509000000E+03 0.  0.
         25    1    3    3    0    0 -0.92867255653E+02 -0.66872493141E+02 -0.72720392507E+03  0.74670564096E+03  0.12509000000E+03 0.  0.
<mgrwt>
<rscale>  2 0.45714377E+03</rscale>
<asrwt>0</asrwt>
<pdfrwt beam="1">  1       21 0.41800769E-02 0.45714377E+03</pdfrwt>
<pdfrwt beam="2">  1       21 0.27029843E+00 0.45714377E+03</pdfrwt>
<totfact> 0.15751559E+04</totfact>
</mgrwt>
</event>
<event>
 7    0  0.4709932E-002  0.4612839E+03  0.7546771E-02  0.1024410E+00
         21   -1    0    0  502  501  0.00000000000E+00  0.00000000000E+00  0.36762833314E+03  0.36762833314E+03  0.00000000000E+00 0. -1.
         21   -1    0    0  501  502 -0.00000000000E+00 -0.00000000000E+00 -0.14469967008E+03  0.14469967008E+03  0.00000000000E+00 0. -1.
      99926    2    1    2    0    0  0.00000000000E+00  0.14210854715E-13  0.22292866306E+03  0.51232800322E+03  0.46128385412E+03 0.  0.
      99925    2    3    3    0    0 -0.24804984568E+02 -0.11616193492E+03  0.14667105289E+03  0.32372361941E+03  0.26301274042E+03 0.  0.
         25    1    4    4    0    0 -0.15380675688E+02 -0.15557395766E+02  0.52812474249E+02  0.13753277167E+03  0.12509000000E+03 0.  0.
         25    1    3    3    0    0  0.24804984568E+02  0.11616193492E+03  0.76257610163E+02  0.18860438381E+03  0.12509000000E+03 0.  0.
         25    1    4    4    0    0 -0.94243088794E+01 -0.10060453915E+03  0.93858578645E+02  0.18619084774E+03  0.12509000000E+03 0.  0.
<mgrwt>
<rscale>  2 0.46128385E+03</rscale>
<asrwt>0</asrwt>
<pdfrwt beam="1">  1       21 0.54062990E-01 0.46128385E+03</pdfrwt>
<pdfrwt beam="2">  1       21 0.21279363E-01 0.46128385E+03</pdfrwt>
<totfact> 0.61298371E+04</totfact>
</mgrwt>
</event>
<event>
 7    0  0.4709932E-002  0.4791230E+03  0.7546771E-02  0.1019376E+00
         21   -1    0    0  502  501  0.00000000000E+00  0.00000000000E+00  0.92421276988E+03  0.92421276988E+03  0.00000000000E+00 0. -1.
         21   -1    0    0  501  502 -0.00000000000E+00 -0.00000000000E+00 -0.62095768961E+02  0.62095768961E+02  0.00000000000E+00 0. -1.
      99926    2    1    2    0    0  0.00000000000E+00  0.00000000000E+00  0.86211700092E+03  0.98630853885E+03  0.47912295971E+03 0.  0.
      99925    2    3    3    0    0  0.25917254345E+02  0.23115890090E+02  0.26390618261E+03  0.37417314557E+03  0.26296962030E+03 0.  0.
         25    1    4    4    0    0  0.11840543969E+02  0.18173933245E+02  0.76064466421E+02  0.14799932933E+03  0.12509000000E+03 0.  0.
         25    1    3    3    0    0 -0.25917254345E+02 -0.23115890090E+02  0.59821081832E+03  0.61213539327E+03  0.12509000000E+03 0.  0.
         25    1    4    4    0    0  0.14076710376E+02  0.49419568446E+01  0.18784171619E+03  0.22617381624E+03  0.12509000000E+03 0.  0.
<mgrwt>
<rscale>  2 0.47912296E+03</rscale>
<asrwt>0</asrwt>
<pdfrwt beam="1">  1       21 0.13591363E+00 0.47912296E+03</pdfrwt>
<pdfrwt beam="2">  1       21 0.91317313E-02 0.47912296E+03</pdfrwt>
<totfact> 0.33022290E+04</totfact>
</mgrwt>
</event>
<event>
 7    0  0.4709932E-002  0.4485817E+03  0.7546771E-02  0.1028146E+00
         21   -1    0    0  502  501  0.00000000000E+00  0.00000000000E+00  0.88899166314E+03  0.88899166314E+03  0.00000000000E+00 0. -1.
         21   -1    0    0  501  502 -0.00000000000E+00 -0.00000000000E+00 -0.56588144869E+02  0.56588144869E+02  0.00000000000E+00 0. -1.
      99926    2    1    2    0    0  0.00000000000E+00 -0.71054273576E-14  0.83240351827E+03  0.94557980801E+03  0.44858171617E+03 0.  0.
      99925    2    3    3    0    0 -0.81715103248E+02  0.62705233200E+02  0.58929499644E+03  0.65341792504E+03  0.26282520346E+03 0.  0.
         25    1    4    4    0    0 -0.43299605630E+02  0.64650211534E+02  0.25616818545E+03  0.29550660404E+03  0.12509000000E+03 0.  0.
         25    1    3    3    0    0  0.81715103248E+02 -0.62705233200E+02  0.24310852183E+03  0.29216188297E+03  0.12509000000E+03 0.  0.
         25    1    4    4    0    0 -0.38415497618E+02 -0.19449783335E+01  0.33312681099E+03  0.35791132100E+03  0.12509000000E+03 0.  0.
<mgrwt>
<rscale>  2 0.44858172E+03</rscale>
<asrwt>0</asrwt>
<pdfrwt beam="1">  1       21 0.13073406E+00 0.44858172E+03</pdfrwt>
<pdfrwt beam="2">  1       21 0.83217865E-02 0.44858172E+03</pdfrwt>
<totfact> 0.43461021E+04</totfact>
</mgrwt>
</event>
<event>
 7    0  0.4709932E-002  0.4554270E+03  0.7546771E-02  0.1026116E+00
         21   -1    0    0  502  501  0.00000000000E+00  0.00000000000E+00  0.72249039924E+03  0.72249039924E+03  0.00000000000E+00 0. -1.
         21   -1    0    0  501  502 -0.00000000000E+00 -0.00000000000E+00 -0.71770415561E+02  0.71770415561E+02  0.00000000000E+00 0. -1.
      99926    2    1    2    0    0  0.00000000000E+00  0.00000000000E+00  0.65071998368E+03  0.79426081480E+03  0.45542699170E+03 0.  0.
      99925    2    3    3    0    0  0.88533855406E+02 -0.69871087033E+02  0.39180641341E+03  0.48538550448E+03  0.26337541649E+03 0.  0.
         25    1    4    4    0    0  0.70198789831E+02 -0.42752047458E+01  0.21196929883E+03  0.25597781001E+03  0.12509000000E+03 0.  0.
         25    1    4    4    0    0  0.18335065576E+02 -0.65595882288E+02  0.17983711457E+03  0.22940769447E+03  0.12509000000E+03 0.  0.
         25    1    3    3    0    0 -0.88533855406E+02  0.69871087033E+02  0.25891357027E+03  0.30887531032E+03  0.12509000000E+03 0.  0.
<mgrwt>
<rscale>  2 0.45542699E+03</rscale>
<asrwt>0</asrwt>
<pdfrwt beam="1">  1       21 0.10624858E+00 0.45542699E+03</pdfrwt>
<pdfrwt beam="2">  1       21 0.10554473E-01 0.45542699E+03</pdfrwt>
<totfact> 0.47883006E+04</totfact>
</mgrwt>
</event>
<event>
 7    0  0.4709932E-002  0.4579694E+03  0.7546771E-02  0.1025372E+00
         21   -1    0    0  502  501  0.00000000000E+00  0.00000000000E+00  0.14725411879E+04  0.14725411879E+04  0.00000000000E+00 0. -1.
         21   -1    0    0  501  502 -0.00000000000E+00 -0.00000000000E+00 -0.35607831909E+02  0.35607831909E+02  0.00000000000E+00 0. -1.
      99926    2    1    2    0    0  0.00000000000E+00  0.00000000000E+00  0.14369333560E+04  0.15081490198E+04  0.45796942736E+03 0.  0.
      99925    2    3    3    0    0 -0.50589446306E+01  0.10306836781E+03  0.72768605970E+03  0.78059976597E+03  0.26298348197E+03 0.  0.
         25    1    3    3    0    0  0.50589446306E+01 -0.10306836781E+03  0.70924729632E+03  0.72754925387E+03  0.12509000000E+03 0.  0.
         25    1    4    4    0    0 -0.13983736387E+02  0.51942220625E+02  0.25733562867E+03  0.29114029788E+03  0.12509000000E+03 0.  0.
         25    1    4    4    0    0  0.89247917566E+01  0.51126147189E+02  0.47035043103E+03  0.48945946809E+03  0.12509000000E+03 0.  0.
<mgrwt>
<rscale>  2 0.45796943E+03</rscale>
<asrwt>0</asrwt>
<pdfrwt beam="1">  1       21 0.21655013E+00 0.45796943E+03</pdfrwt>
<pdfrwt beam="2">  1       21 0.52364468E-02 0.45796943E+03</pdfrwt>
<totfact> 0.23044025E+04</totfact>
</mgrwt>
</event>
<event>
 7    0  0.4709932E-002  0.4511830E+03  0.7546771E-02  0.1027370E+00
         21   -1    0    0  502  501  0.00000000000E+00  0.00000000000E+00  0.28894155747E+03  0.28894155747E+03  0.00000000000E+00 0.  1.
         21   -1    0    0  501  502 -0.00000000000E+00 -0.00000000000E+00 -0.17613084291E+03  0.17613084291E+03  0.00000000000E+00 0.  1.
      99926    2    1    2    0    0 -0.71054273576E-14 -0.14210854715E-13  0.11281071455E+03  0.46507240038E+03  0.45118297871E+03 0.  0.
      99925    2    3    3    0    0  0.54335536493E+02  0.87719832476E+02  0.33476735596E+02  0.28454952689E+03  0.26306011079E+03 0.  0.
         25    1    3    3    0    0 -0.54335536493E+02 -0.87719832476E+02  0.79333978957E+02  0.18052287349E+03  0.12509000000E+03 0.  0.
         25    1    4    4    0    0  0.49618171241E+02  0.77925449786E+02  0.39120966426E+01  0.15555433534E+03  0.12509000000E+03 0.  0.
         25    1    4    4    0    0  0.47173652527E+01  0.97943826901E+01  0.29564638953E+02  0.12899519155E+03  0.12509000000E+03 0.  0.
<mgrwt>
<rscale>  2 0.45118298E+03</rscale>
<asrwt>0</asrwt>
<pdfrwt beam="1">  1       21 0.42491406E-01 0.45118298E+03</pdfrwt>
<pdfrwt beam="2">  1       21 0.25901594E-01 0.45118298E+03</pdfrwt>
<totfact> 0.69896547E+04</totfact>
</mgrwt>
</event>
<event>
 7    0  0.4709932E-002  0.4557768E+03  0.7546771E-02  0.1026013E+00
         21   -1    0    0  502  501  0.00000000000E+00  0.00000000000E+00  0.77998389565E+03  0.77998389565E+03  0.00000000000E+00 0.  1.
         21   -1    0    0  501  502 -0.00000000000E+00 -0.00000000000E+00 -0.66582311152E+02  0.66582311152E+02  0.00000000000E+00 0.  1.
      99926    2    1    2    0    0  0.00000000000E+00  0.00000000000E+00  0.71340158450E+03  0.84656620680E+03  0.45577683326E+03 0.  0.
      99925    2    3    3    0    0  0.10710577649E+03 -0.36968824536E+02  0.42731291395E+03  0.51440272768E+03  0.26301235423E+03 0.  0.
         25    1    4    4    0    0  0.96306336319E+02 -0.12003510481E+02  0.24071136278E+03  0.28811189311E+03  0.12509000000E+03 0.  0.
         25    1    4    4    0    0  0.10799440168E+02 -0.24965314055E+02  0.18660155117E+03  0.22629083458E+03  0.12509000000E+03 0.  0.
         25    1    3    3    0    0 -0.10710577649E+03  0.36968824536E+02  0.28608867055E+03  0.33216347912E+03  0.12509000000E+03 0.  0.
<mgrwt>
<rscale>  2 0.45577683E+03</rscale>
<asrwt>0</asrwt>
<pdfrwt beam="1">  1       21 0.11470351E+00 0.45577683E+03</pdfrwt>
<pdfrwt beam="2">  1       21 0.97915168E-02 0.45577683E+03</pdfrwt>
<totfact> 0.45316579E+04</totfact>
</mgrwt>
</event>
<event>
 7    0  0.4709932E-002  0.4416894E+03  0.7546771E-02  0.1030230E+00
         21   -1    0    0  502  501  0.00000000000E+00  0.00000000000E+00  0.23112793552E+03  0.23112793552E+03  0.00000000000E+00 0.  1.
         21   -1    0    0  501  502 -0.00000000000E+00 -0.00000000000E+00 -0.21101896222E+03  0.21101896222E+03  0.00000000000E+00 0.  1.
      99926    2    1    2    0    0  0.00000000000E+00  0.00000000000E+00  0.20108973302E+02  0.44214689774E+03  0.44168937996E+03 0.  0.
      99925    2    3    3    0    0 -0.95644853540E+02 -0.30541913484E+02  0.12340126913E+02  0.28155857449E+03  0.26275883553E+03 0.  0.
         25    1    4    4    0    0 -0.41877939684E+02  0.12494059900E+02 -0.22925988075E+02  0.13447294298E+03  0.12509000000E+03 0.  0.
         25    1    4    4    0    0 -0.53766913856E+02 -0.43035973384E+02  0.35266114988E+02  0.14708563151E+03  0.12509000000E+03 0.  0.
         25    1    3    3    0    0  0.95644853540E+02  0.30541913484E+02  0.77688463890E+01  0.16058832324E+03  0.12509000000E+03 0.  0.
<mgrwt>
<rscale>  2 0.44168938E+03</rscale>
<asrwt>0</asrwt>
<pdfrwt beam="1">  1       21 0.33989402E-01 0.44168938E+03</pdfrwt>
<pdfrwt beam="2">  1       21 0.31032200E-01 0.44168938E+03</pdfrwt>
<totfact> 0.77396845E+04</totfact>
</mgrwt>
</event>
<event>
 7    0  0.4709932E-002  0.4264165E+03  0.7546771E-02  0.1034998E+00
         21   -1    0    0  502  501  0.00000000000E+00  0.00000000000E+00  0.62610710808E+03  0.62610710808E+03  0.00000000000E+00 0. -1.
         21   -1    0    0  501  502 -0.00000000000E+00 -0.00000000000E+00 -0.72603819104E+02  0.72603819104E+02  0.00000000000E+00 0. -1.
      99926    2    1    2    0    0 -0.71054273576E-14  0.00000000000E+00  0.55350328897E+03  0.69871092718E+03  0.42641654384E+03 0.  0.
      99925    2    3    3    0    0  0.36097183044E+02 -0.35931750724E+02  0.24963669210E+03  0.36618045621E+03  0.26301245432E+03 0.  0.
         25    1    4    4    0    0  0.18467053449E+02 -0.55342588433E+02  0.10688014455E+03  0.17457006489E+03  0.12509000000E+03 0.  0.
         25    1    3    3    0    0 -0.36097183044E+02  0.35931750724E+02  0.30386659687E+03  0.33253047097E+03  0.12509000000E+03 0.  0.
         25    1    4    4    0    0  0.17630129595E+02  0.19410837709E+02  0.14275654755E+03  0.19161039131E+03  0.12509000000E+03 0.  0.
<mgrwt>
<rscale>  2 0.42641654E+03</rscale>
<asrwt>0</asrwt>
<pdfrwt beam="1">  1       21 0.92074572E-01 0.42641654E+03</pdfrwt>
<pdfrwt beam="2">  1       21 0.10677033E-01 0.42641654E+03</pdfrwt>
<totfact> 0.66772984E+04</totfact>
</mgrwt>
</event>
<event>
 7    0  0.4709932E-002  0.4528690E+03  0.7546771E-02  0.1026870E+00
         21   -1    0    0  502  501  0.00000000000E+00  0.00000000000E+00  0.10897376793E+04  0.10897376793E+04  0.00000000000E+00 0. -1.
         21   -1    0    0  501  502 -0.00000000000E+00 -0.00000000000E+00 -0.47050399732E+02  0.47050399732E+02  0.00000000000E+00 0. -1.
      99926    2    1    2    0    0  0.00000000000E+00  0.00000000000E+00  0.10426872796E+04  0.11367880790E+04  0.45286904692E+03 0.  0.
      99925    2    3    3    0    0 -0.10750050114E+03 -0.18930192272E+02  0.70953646515E+03  0.76456276665E+03  0.26305801423E+03 0.  0.
         25    1    3    3    0    0  0.10750050114E+03  0.18930192272E+02  0.33315081441E+03  0.37222531237E+03  0.12509000000E+03 0.  0.
         25    1    4    4    0    0 -0.33267479873E+02 -0.58796551865E+01  0.23873903168E+03  0.27163418214E+03  0.12509000000E+03 0.  0.
         25    1    4    4    0    0 -0.74233021270E+02 -0.13050537086E+02  0.47079743347E+03  0.49292858451E+03  0.12509000000E+03 0.  0.
<mgrwt>
<rscale>  2 0.45286905E+03</rscale>
<asrwt>0</asrwt>
<pdfrwt beam="1">  1       21 0.16025553E+00 0.45286905E+03</pdfrwt>
<pdfrwt beam="2">  1       21 0.69191771E-02 0.45286905E+03</pdfrwt>
<totfact> 0.34801033E+04</totfact>
</mgrwt>
</event>
<event>
 7    0  0.4709932E-002  0.4473940E+03  0.7546771E-02  0.1028502E+00
         21   -1    0    0  502  501  0.00000000000E+00  0.00000000000E+00  0.17006765273E+04  0.17006765273E+04  0.00000000000E+00 0. -1.
         21   -1    0    0  501  502 -0.00000000000E+00 -0.00000000000E+00 -0.29423791336E+02  0.29423791336E+02  0.00000000000E+00 0. -1.
      99926    2    1    2    0    0  0.00000000000E+00  0.00000000000E+00  0.16712527359E+04  0.17301003186E+04  0.44739401547E+03 0.  0.
      99925    2    3    3    0    0 -0.20573627557E+02  0.35953026403E+02  0.14356501341E+04  0.14601521970E+04  0.26312969552E+03 0.  0.
         25    1    4    4    0    0 -0.72090773976E+01 -0.17662730020E+02  0.80129502388E+03  0.81122448571E+03  0.12509000000E+03 0.  0.
         25    1    3    3    0    0  0.20573627557E+02 -0.35953026403E+02  0.23560260186E+03  0.26994812161E+03  0.12509000000E+03 0.  0.
         25    1    4    4    0    0 -0.13364550160E+02  0.53615756423E+02  0.63435511019E+03  0.64892771128E+03  0.12509000000E+03 0.  0.
<mgrwt>
<rscale>  2 0.44739402E+03</rscale>
<asrwt>0</asrwt>
<pdfrwt beam="1">  1       21 0.25009942E+00 0.44739402E+03</pdfrwt>
<pdfrwt beam="2">  1       21 0.43270293E-02 0.44739402E+03</pdfrwt>
<totfact> 0.19784824E+04</totfact>
</mgrwt>
</event>
<event>
 7    0  0.4709932E-002  0.4515258E+03  0.7546771E-02  0.1027268E+00
         21   -1    0    0  502  501  0.00000000000E+00  0.00000000000E+00  0.60178745568E+02  0.60178745568E+02  0.00000000000E+00 0. -1.
         21   -1    0    0  501  502 -0.00000000000E+00 -0.00000000000E+00 -0.84695823709E+03  0.84695823709E+03  0.00000000000E+00 0. -1.
      99926    2    1    2    0    0  0.00000000000E+00  0.00000000000E+00 -0.78677949152E+03  0.90713698266E+03  0.45152578778E+03 0.  0.
      99925    2    3    3    0    0 -0.94497946748E+02  0.25889558054E+02 -0.59674149898E+03  0.65942328125E+03  0.26294203942E+03 0.  0.
         25    1    4    4    0    0 -0.32995097038E+02 -0.17469462260E+02 -0.33814186207E+03  0.36246556460E+03  0.12509000000E+03 0.  0.
         25    1    3    3    0    0  0.94497946748E+02 -0.25889558054E+02 -0.19003799254E+03  0.24771370141E+03  0.12509000000E+03 0.  0.
         25    1    4    4    0    0 -0.61502849710E+02  0.43359020314E+02 -0.25859963691E+03  0.29695771665E+03  0.12509000000E+03 0.  0.
<mgrwt>
<rscale>  2 0.45152579E+03</rscale>
<asrwt>0</asrwt>
<pdfrwt beam="1">  1       21 0.88498154E-02 0.45152579E+03</pdfrwt>
<pdfrwt beam="2">  1       21 0.12455268E+00 0.45152579E+03</pdfrwt>
<totfact> 0.44113958E+04</totfact>
</mgrwt>
</event>
<event>
 7    0  0.4709932E-002  0.4297527E+03  0.7546771E-02  0.1033938E+00
         21   -1    0    0  502  501  0.00000000000E+00  0.00000000000E+00  0.23667322714E+03  0.23667322714E+03  0.00000000000E+00 0.  1.
         21   -1    0    0  501  502 -0.00000000000E+00 -0.00000000000E+00 -0.19508686448E+03  0.19508686448E+03  0.00000000000E+00 0.  1.
      99926    2    1    2    0    0  0.00000000000E+00  0.00000000000E+00  0.41586362668E+02  0.43176009162E+03  0.42975266277E+03 0.  0.
      99925    2    3    3    0    0  0.74554958541E+02 -0.43794959072E+02  0.39590982024E+02  0.27968139513E+03  0.26301672312E+03 0.  0.
         25    1    3    3    0    0 -0.74554958541E+02  0.43794959072E+02  0.19953806442E+01  0.15207869649E+03  0.12509000000E+03 0.  0.
         25    1    4    4    0    0  0.65169280286E+02  0.27242705753E+01  0.35353866750E+01  0.14111861607E+03  0.12509000000E+03 0.  0.
         25    1    4    4    0    0  0.93856782543E+01 -0.46519229648E+02  0.36055595349E+02  0.13856277905E+03  0.12509000000E+03 0.  0.
<mgrwt>
<rscale>  2 0.42975266E+03</rscale>
<asrwt>0</asrwt>
<pdfrwt beam="1">  1       21 0.34804886E-01 0.42975266E+03</pdfrwt>
<pdfrwt beam="2">  1       21 0.28689245E-01 0.42975266E+03</pdfrwt>
<totfact> 0.86423403E+04</totfact>
</mgrwt>
</event>
<event>
 7    0  0.4709932E-002  0.4504004E+03  0.7546771E-02  0.1027603E+00
         21   -1    0    0  502  501  0.00000000000E+00  0.00000000000E+00  0.15077201829E+04  0.15077201829E+04  0.00000000000E+00 0.  1.
         21   -1    0    0  501  502 -0.00000000000E+00 -0.00000000000E+00 -0.33636969212E+02  0.33636969212E+02  0.00000000000E+00 0.  1.
      99926    2    1    2    0    0  0.00000000000E+00 -0.14210854715E-13  0.14740832137E+04  0.15413571521E+04  0.45040043238E+03 0.  0.
      99925    2    3    3    0    0 -0.45299357215E+02 -0.98263972030E+02  0.89443394542E+03  0.93857309271E+03  0.26305803101E+03 0.  0.
         25    1    4    4    0    0 -0.16396326163E+02 -0.87869438289E+02  0.43233950553E+03  0.45886254351E+03  0.12509000000E+03 0.  0.
         25    1    3    3    0    0  0.45299357215E+02  0.98263972030E+02  0.57964926829E+03  0.60278405942E+03  0.12509000000E+03 0.  0.
         25    1    4    4    0    0 -0.28903031052E+02 -0.10394533741E+02  0.46209443989E+03  0.47971054920E+03  0.12509000000E+03 0.  0.
<mgrwt>
<rscale>  2 0.45040043E+03</rscale>
<asrwt>0</asrwt>
<pdfrwt beam="1">  1       21 0.22172351E+00 0.45040043E+03</pdfrwt>
<pdfrwt beam="2">  1       21 0.49466141E-02 0.45040043E+03</pdfrwt>
<totfact> 0.23615939E+04</totfact>
</mgrwt>
</event>
<event>
 7    0  0.4709932E-002  0.4495605E+03  0.7546771E-02  0.1027853E+00
         21   -1    0    0  502  501  0.00000000000E+00  0.00000000000E+00  0.17759618332E+04  0.17759618332E+04  0.00000000000E+00 0. -1.
         21   -1    0    0  501  502 -0.00000000000E+00 -0.00000000000E+00 -0.28450029295E+02  0.28450029295E+02  0.00000000000E+00 0. -1.
      99926    2    1    2    0    0 -0.14210854715E-13  0.00000000000E+00  0.17475118039E+04  0.18044118625E+04  0.44956052399E+03 0.  0.
      99925    2    3    3    0    0  0.10250042679E+03 -0.90003267973E+01  0.97207655177E+03  0.10122409960E+04  0.26289098140E+03 0.  0.
         25    1    3    3    0    0 -0.10250042679E+03  0.90003267973E+01  0.77543525218E+03  0.79217086654E+03  0.12509000000E+03 0.  0.
         25    1    4    4    0    0  0.22932606570E+02 -0.18755993992E+02  0.54853623391E+03  0.56339790536E+03  0.12509000000E+03 0.  0.
         25    1    4    4    0    0  0.79567820222E+02  0.97556671950E+01  0.42354031785E+03  0.44884309063E+03  0.12509000000E+03 0.  0.
<mgrwt>
<rscale>  2 0.44956052E+03</rscale>
<asrwt>0</asrwt>
<pdfrwt beam="1">  1       21 0.26117078E+00 0.44956052E+03</pdfrwt>
<pdfrwt beam="2">  1       21 0.41838290E-02 0.44956052E+03</pdfrwt>
<totfact> 0.17919581E+04</totfact>
</mgrwt>
</event>
<event>
 7    0  0.4709932E-002  0.4408854E+03  0.7546771E-02  0.1030475E+00
         21   -1    0    0  502  501  0.00000000000E+00  0.00000000000E+00  0.19771899772E+03  0.19771899772E+03  0.00000000000E+00 0.  1.
         21   -1    0    0  501  502 -0.00000000000E+00 -0.00000000000E+00 -0.24577803020E+03  0.24577803020E+03  0.00000000000E+00 0.  1.
      99926    2    1    2    0    0  0.00000000000E+00  0.00000000000E+00 -0.48059032477E+02  0.44349702792E+03  0.44088540821E+03 0.  0.
      99925    2    3    3    0    0 -0.70618229374E+02  0.28153146660E+02 -0.94987196090E+02  0.28977879664E+03  0.26300123493E+03 0.  0.
         25    1    4    4    0    0 -0.33498765154E+02  0.49430994764E+02 -0.69808443268E+02  0.15519767190E+03  0.12509000000E+03 0.  0.
         25    1    4    4    0    0 -0.37119464220E+02 -0.21277848104E+02 -0.25178752822E+02  0.13458112474E+03  0.12509000000E+03 0.  0.
         25    1    3    3    0    0  0.70618229374E+02 -0.28153146660E+02  0.46928163613E+02  0.15371823128E+03  0.12509000000E+03 0.  0.
<mgrwt>
<rscale>  2 0.44088541E+03</rscale>
<asrwt>0</asrwt>
<pdfrwt beam="1">  1       21 0.29076323E-01 0.44088541E+03</pdfrwt>
<pdfrwt beam="2">  1       21 0.36143828E-01 0.44088541E+03</pdfrwt>
<totfact> 0.77795308E+04</totfact>
</mgrwt>
</event>
<event>
 7    0  0.4709932E-002  0.4513041E+03  0.7546771E-02  0.1027334E+00
         21   -1    0    0  502  501  0.00000000000E+00  0.00000000000E+00  0.16249710655E+03  0.16249710655E+03  0.00000000000E+00 0.  1.
         21   -1    0    0  501  502 -0.00000000000E+00 -0.00000000000E+00 -0.31335235376E+03  0.31335235376E+03  0.00000000000E+00 0.  1.
      99926    2    1    2    0    0  0.00000000000E+00  0.00000000000E+00 -0.15085524722E+03  0.47584946031E+03  0.45130411394E+03 0.  0.
      99925    2    3    3    0    0 -0.34120208230E+01 -0.71110386695E+02 -0.73529606500E+01  0.27260393556E+03  0.26304089163E+03 0.  0.
         25    1    4    4    0    0 -0.39575180953E+01 -0.13437456909E+02  0.30970650925E+02  0.12962606419E+03  0.12509000000E+03 0.  0.
         25    1    4    4    0    0  0.54549727230E+00 -0.57672929786E+02 -0.38323611575E+02  0.14297787137E+03  0.12509000000E+03 0.  0.
         25    1    3    3    0    0  0.34120208230E+01  0.71110386695E+02 -0.14350228657E+03  0.20324552475E+03  0.12509000000E+03 0.  0.
<mgrwt>
<rscale>  2 0.45130411E+03</rscale>
<asrwt>0</asrwt>
<pdfrwt beam="1">  1       21 0.23896634E-01 0.45130411E+03</pdfrwt>
<pdfrwt beam="2">  1       21 0.46081227E-01 0.45130411E+03</pdfrwt>
<totfact> 0.69005574E+04</totfact>
</mgrwt>
</event>
<event>
 7    0  0.4709932E-002  0.4472089E+03  0.7546771E-02  0.1028558E+00
         21   -1    0    0  502  501  0.00000000000E+00  0.00000000000E+00  0.11454745891E+03  0.11454745891E+03  0.00000000000E+00 0.  1.
         21   -1    0    0  501  502 -0.00000000000E+00 -0.00000000000E+00 -0.43649121937E+03  0.43649121937E+03  0.00000000000E+00 0.  1.
      99926    2    1    2    0    0  0.00000000000E+00  0.00000000000E+00 -0.32194376046E+03  0.55103867827E+03  0.44720894451E+03 0.  0.
      99925    2    3    3    0    0  0.47620943308E+02 -0.71457030928E+02 -0.12804055174E+03  0.30482774439E+03  0.26296712599E+03 0.  0.
         25    1    4    4    0    0  0.64696490177E+02 -0.42286085415E+02 -0.66502651889E+02  0.16138110072E+03  0.12509000000E+03 0.  0.
         25    1    4    4    0    0 -0.17075546868E+02 -0.29170945512E+02 -0.61537899855E+02  0.14344664367E+03  0.12509000000E+03 0.  0.
         25    1    3    3    0    0 -0.47620943308E+02  0.71457030928E+02 -0.19390320872E+03  0.24621093388E+03  0.12509000000E+03 0.  0.
<mgrwt>
<rscale>  2 0.44720894E+03</rscale>
<asrwt>0</asrwt>
<pdfrwt beam="1">  1       21 0.16845215E-01 0.44720894E+03</pdfrwt>
<pdfrwt beam="2">  1       21 0.64189884E-01 0.44720894E+03</pdfrwt>
<totfact> 0.65758488E+04</totfact>
</mgrwt>
</event>
<event>
 7    0  0.4709932E-002  0.4608717E+03  0.7546771E-02  0.1024529E+00
         21   -1    0    0  502  501  0.00000000000E+00  0.00000000000E+00  0.12105981899E+04  0.12105981899E+04  0.00000000000E+00 0.  1.
         21   -1    0    0  501  502 -0.00000000000E+00 -0.00000000000E+00 -0.43863180154E+02  0.43863180154E+02  0.00000000000E+00 0.  1.
      99926    2    1    2    0    0 -0.17763568394E-14  0.14210854715E-13  0.11667350097E+04  0.12544613700E+04  0.46087172400E+03 0.  0.
      99925    2    3    3    0    0 -0.15271859477E+02  0.11711651683E+03  0.70051296804E+03  0.75751065974E+03  0.26297238072E+03 0.  0.
         25    1    4    4    0    0 -0.37318063808E+01  0.95529107705E+02  0.32877480783E+03  0.36452725434E+03  0.12509000000E+03 0.  0.
         25    1    3    3    0    0  0.15271859477E+02 -0.11711651683E+03  0.46622204170E+03  0.49695071030E+03  0.12509000000E+03 0.  0.
         25    1    4    4    0    0 -0.11540053096E+02  0.21587409129E+02  0.37173816021E+03  0.39298340539E+03  0.12509000000E+03 0.  0.
<mgrwt>
<rscale>  2 0.46087172E+03</rscale>
<asrwt>0</asrwt>
<pdfrwt beam="1">  1       21 0.17802912E+00 0.46087172E+03</pdfrwt>
<pdfrwt beam="2">  1       21 0.64504685E-02 0.46087172E+03</pdfrwt>
<totfact> 0.29112861E+04</totfact>
</mgrwt>
</event>
<event>
 7    0  0.4709932E-002  0.4498281E+03  0.7546771E-02  0.1027773E+00
         21   -1    0    0  502  501  0.00000000000E+00  0.00000000000E+00  0.14346203160E+03  0.14346203160E+03  0.00000000000E+00 0.  1.
         21   -1    0    0  501  502 -0.00000000000E+00 -0.00000000000E+00 -0.35261125785E+03  0.35261125785E+03  0.00000000000E+00 0.  1.
      99926    2    1    2    0    0 -0.14210854715E-13  0.00000000000E+00 -0.20914922626E+03  0.49607328945E+03  0.44982808901E+03 0.  0.
      99925    2    3    3    0    0  0.76720038890E+02  0.36495942184E+02 -0.59061977233E+02  0.28302022427E+03  0.26342781180E+03 0.  0.
         25    1    4    4    0    0  0.27438515722E+02  0.57606318565E+02 -0.23742346938E+02  0.14241687829E+03  0.12509000000E+03 0.  0.
         25    1    3    3    0    0 -0.76720038890E+02 -0.36495942184E+02 -0.15008724902E+03  0.21305306518E+03  0.12509000000E+03 0.  0.
         25    1    4    4    0    0  0.49281523168E+02 -0.21110376381E+02 -0.35319630295E+02  0.14060334598E+03  0.12509000000E+03 0.  0.
<mgrwt>
<rscale>  2 0.44982809E+03</rscale>
<asrwt>0</asrwt>
<pdfrwt beam="1">  1       21 0.21097358E-01 0.44982809E+03</pdfrwt>
<pdfrwt beam="2">  1       21 0.51854596E-01 0.44982809E+03</pdfrwt>
<totfact> 0.68309089E+04</totfact>
</mgrwt>
</event>
<event>
 7    0  0.4709932E-002  0.4580797E+03  0.7546771E-02  0.1025340E+00
         21   -1    0    0  502  501  0.00000000000E+00  0.00000000000E+00  0.66291920068E+02  0.66291920068E+02  0.00000000000E+00 0. -1.
         21   -1    0    0  501  502 -0.00000000000E+00 -0.00000000000E+00 -0.79133690941E+03  0.79133690941E+03  0.00000000000E+00 0. -1.
      99926    2    1    2    0    0  0.00000000000E+00  0.00000000000E+00 -0.72504498934E+03  0.85762882948E+03  0.45807965746E+03 0.  0.
      99925    2    3    3    0    0  0.17667767159E+02  0.71557153635E+01 -0.66914813490E+03  0.71929835310E+03  0.26318727187E+03 0.  0.
         25    1    3    3    0    0 -0.17667767159E+02 -0.71557153635E+01 -0.55896854445E+02  0.13833047638E+03  0.12509000000E+03 0.  0.
         25    1    4    4    0    0  0.40002279717E+02 -0.13781596987E+01 -0.41045900010E+03  0.43095960434E+03  0.12509000000E+03 0.  0.
         25    1    4    4    0    0 -0.22334512558E+02  0.85338750622E+01 -0.25868913479E+03  0.28833874876E+03  0.12509000000E+03 0.  0.
<mgrwt>
<rscale>  2 0.45807966E+03</rscale>
<asrwt>0</asrwt>
<pdfrwt beam="1">  1       21 0.97488121E-02 0.45807966E+03</pdfrwt>
<pdfrwt beam="2">  1       21 0.11637307E+00 0.45807966E+03</pdfrwt>
<totfact> 0.44026796E+04</totfact>
</mgrwt>
</event>
<event>
 7    0  0.4709932E-002  0.4556816E+03  0.7546771E-02  0.1026041E+00
         21   -1    0    0  502  501  0.00000000000E+00  0.00000000000E+00  0.97356804204E+03  0.97356804204E+03  0.00000000000E+00 0. -1.
         21   -1    0    0  501  502 -0.00000000000E+00 -0.00000000000E+00 -0.53320811511E+02  0.53320811511E+02  0.00000000000E+00 0. -1.
      99926    2    1    2    0    0  0.14210854715E-13  0.17763568394E-14  0.92024723053E+03  0.10268888536E+04  0.45568163475E+03 0.  0.
      99925    2    3    3    0    0  0.10853674411E+03  0.82488957644E+01  0.50355877126E+03  0.57841917867E+03  0.26296205246E+03 0.  0.
         25    1    3    3    0    0 -0.10853674411E+03 -0.82488957644E+01  0.41668845927E+03  0.44846967488E+03  0.12509000000E+03 0.  0.
         25    1    4    4    0    0  0.93870387248E+02 -0.10901094449E+02  0.29357811146E+03  0.33281541294E+03  0.12509000000E+03 0.  0.
         25    1    4    4    0    0  0.14666356862E+02  0.19149990213E+02  0.20998065980E+03  0.24560376573E+03  0.12509000000E+03 0.  0.
<mgrwt>
<rscale>  2 0.45568163E+03</rscale>
<asrwt>0</asrwt>
<pdfrwt beam="1">  1       21 0.14317176E+00 0.45568163E+03</pdfrwt>
<pdfrwt beam="2">  1       21 0.78412964E-02 0.45568163E+03</pdfrwt>
<totfact> 0.37934729E+04</totfact>
</mgrwt>
</event>
<event>
 7    0  0.4709932E-002  0.4370121E+03  0.7546771E-02  0.1031668E+00
         21   -1    0    0  502  501  0.00000000000E+00  0.00000000000E+00  0.49248556954E+02  0.49248556954E+02  0.00000000000E+00 0.  1.
         21   -1    0    0  501  502 -0.00000000000E+00 -0.00000000000E+00 -0.96946800732E+03  0.96946800732E+03  0.00000000000E+00 0.  1.
      99926    2    1    2    0    0  0.00000000000E+00  0.00000000000E+00 -0.92021945037E+03  0.10187165643E+04  0.43701212969E+03 0.  0.
      99925    2    3    3    0    0  0.32339509985E+02  0.75355585294E+02 -0.47602137084E+03  0.55001223307E+03  0.26304524873E+03 0.  0.
         25    1    4    4    0    0 -0.62857590954E+01  0.57313970917E+02 -0.29806773462E+03  0.32835390138E+03  0.12509000000E+03 0.  0.
         25    1    4    4    0    0  0.38625269080E+02  0.18041614377E+02 -0.17795363622E+03  0.22165833168E+03  0.12509000000E+03 0.  0.
         25    1    3    3    0    0 -0.32339509985E+02 -0.75355585294E+02 -0.44419807952E+03  0.46870433121E+03  0.12509000000E+03 0.  0.
<mgrwt>
<rscale>  2 0.43701213E+03</rscale>
<asrwt>0</asrwt>
<pdfrwt beam="1">  1       21 0.72424357E-02 0.43701213E+03</pdfrwt>
<pdfrwt beam="2">  1       21 0.14256881E+00 0.43701213E+03</pdfrwt>
<totfact> 0.44356482E+04</totfact>
</mgrwt>
</event>
<event>
 7    0  0.4709932E-002  0.4374007E+03  0.7546771E-02  0.1031547E+00
         21   -1    0    0  502  501  0.00000000000E+00  0.00000000000E+00  0.10757374276E+03  0.10757374276E+03  0.00000000000E+00 0.  1.
         21   -1    0    0  501  502 -0.00000000000E+00 -0.00000000000E+00 -0.44462376547E+03  0.44462376547E+03  0.00000000000E+00 0.  1.
      99926    2    1    2    0    0  0.00000000000E+00  0.00000000000E+00 -0.33705002271E+03  0.55219750823E+03  0.43740069764E+03 0.  0.
      99925    2    3    3    0    0  0.33583500149E+02  0.51667624129E+01 -0.10287581099E+03  0.28454172846E+03  0.26310837278E+03 0.  0.
         25    1    4    4    0    0  0.55688448690E+02  0.53750070393E+01 -0.67063252586E+02  0.15256173166E+03  0.12509000000E+03 0.  0.
         25    1    4    4    0    0 -0.22104948541E+02 -0.20824462636E+00 -0.35812558404E+02  0.13197999680E+03  0.12509000000E+03 0.  0.
         25    1    3    3    0    0 -0.33583500149E+02 -0.51667624129E+01 -0.23417421172E+03  0.26765577978E+03  0.12509000000E+03 0.  0.
<mgrwt>
<rscale>  2 0.43740070E+03</rscale>
<asrwt>0</asrwt>
<pdfrwt beam="1">  1       21 0.15819668E-01 0.43740070E+03</pdfrwt>
<pdfrwt beam="2">  1       21 0.65385848E-01 0.43740070E+03</pdfrwt>
<totfact> 0.71118272E+04</totfact>
</mgrwt>
</event>
<event>
 7    0  0.4709932E-002  0.4551760E+03  0.7546771E-02  0.1026190E+00
         21   -1    0    0  502  501  0.00000000000E+00  0.00000000000E+00  0.16850759898E+03  0.16850759898E+03  0.00000000000E+00 0.  1.
         21   -1    0    0  501  502 -0.00000000000E+00 -0.00000000000E+00 -0.30738250907E+03  0.30738250907E+03  0.00000000000E+00 0.  1.
      99926    2    1    2    0    0  0.00000000000E+00  0.00000000000E+00 -0.13887491009E+03  0.47589010805E+03  0.45517595970E+03 0.  0.
      99925    2    3    3    0    0  0.84372543500E+02 -0.37805629863E+02 -0.18895147523E+02  0.27944509470E+03  0.26302954702E+03 0.  0.
         25    1    4    4    0    0  0.14690983293E+02  0.46398916447E+01 -0.30417954210E+02  0.12965382225E+03  0.12509000000E+03 0.  0.
         25    1    3    3    0    0 -0.84372543500E+02  0.37805629863E+02 -0.11997976257E+03  0.19644501335E+03  0.12509000000E+03 0.  0.
         25    1    4    4    0    0  0.69681560207E+02 -0.42445521508E+02  0.11522806687E+02  0.14979127245E+03  0.12509000000E+03 0.  0.
<mgrwt>
<rscale>  2 0.45517596E+03</rscale>
<asrwt>0</asrwt>
<pdfrwt beam="1">  1       21 0.24780530E-01 0.45517596E+03</pdfrwt>
<pdfrwt beam="2">  1       21 0.45203309E-01 0.45517596E+03</pdfrwt>
<totfact> 0.66907028E+04</totfact>
</mgrwt>
</event>
<event>
 7    0  0.4709932E-002  0.4532169E+03  0.7546771E-02  0.1026767E+00
         21   -1    0    0  502  501  0.00000000000E+00  0.00000000000E+00  0.98321370356E+02  0.98321370356E+02  0.00000000000E+00 0.  1.
         21   -1    0    0  501  502 -0.00000000000E+00 -0.00000000000E+00 -0.52228106217E+03  0.52228106217E+03  0.00000000000E+00 0.  1.
      99926    2    1    2    0    0  0.00000000000E+00  0.00000000000E+00 -0.42395969181E+03  0.62060243252E+03  0.45321690058E+03 0.  0.
      99925    2    3    3    0    0 -0.10491923214E+03  0.28541985336E+02 -0.23323494224E+03  0.36792451818E+03  0.26295859483E+03 0.  0.
         25    1    4    4    0    0 -0.30215579123E+02  0.15790833658E+02 -0.15494058132E+03  0.20203074887E+03  0.12509000000E+03 0.  0.
         25    1    3    3    0    0  0.10491923214E+03 -0.28541985336E+02 -0.19072474957E+03  0.25267791435E+03  0.12509000000E+03 0.  0.
         25    1    4    4    0    0 -0.74703653015E+02  0.12751151678E+02 -0.78294360921E+02  0.16589376931E+03  0.12509000000E+03 0.  0.
<mgrwt>
<rscale>  2 0.45321690E+03</rscale>
<asrwt>0</asrwt>
<pdfrwt beam="1">  1       21 0.14459025E-01 0.45321690E+03</pdfrwt>
<pdfrwt beam="2">  1       21 0.76806038E-01 0.45321690E+03</pdfrwt>
<totfact> 0.58243462E+04</totfact>
</mgrwt>
</event>
<event>
 7    0  0.4709932E-002  0.4507357E+03  0.7546771E-02  0.1027503E+00
         21   -1    0    0  502  501  0.00000000000E+00  0.00000000000E+00  0.94494743010E+03  0.94494743010E+03  0.00000000000E+00 0.  1.
         21   -1    0    0  501  502 -0.00000000000E+00 -0.00000000000E+00 -0.53749729604E+02  0.53749729604E+02  0.00000000000E+00 0.  1.
      99926    2    1    2    0    0  0.00000000000E+00 -0.14210854715E-13  0.89119770049E+03  0.99869715970E+03  0.45073570463E+03 0.  0.
      99925    2    3    3    0    0 -0.35880620575E+02 -0.64947997130E+02  0.74029452463E+03  0.78911438882E+03  0.26298264997E+03 0.  0.
         25    1    4    4    0    0 -0.21498404549E+02  0.62228561715E+01  0.30478703530E+03  0.33021742886E+03  0.12509000000E+03 0.  0.
         25    1    4    4    0    0 -0.14382216026E+02 -0.71170853301E+02  0.43550748933E+03  0.45889695996E+03  0.12509000000E+03 0.  0.
         25    1    3    3    0    0  0.35880620575E+02  0.64947997130E+02  0.15090317587E+03  0.20958277088E+03  0.12509000000E+03 0.  0.
<mgrwt>
<rscale>  2 0.45073570E+03</rscale>
<asrwt>0</asrwt>
<pdfrwt beam="1">  1       21 0.13896285E+00 0.45073570E+03</pdfrwt>
<pdfrwt beam="2">  1       21 0.79043726E-02 0.45073570E+03</pdfrwt>
<totfact> 0.40551274E+04</totfact>
</mgrwt>
</event>
<event>
 7    0  0.4709932E-002  0.4525730E+03  0.7546771E-02  0.1026958E+00
         21   -1    0    0  502  501  0.00000000000E+00  0.00000000000E+00  0.26744720083E+02  0.26744720083E+02  0.00000000000E+00 0. -1.
         21   -1    0    0  501  502 -0.00000000000E+00 -0.00000000000E+00 -0.19146055287E+04  0.19146055287E+04  0.00000000000E+00 0. -1.
      99926    2    1    2    0    0  0.17763568394E-14 -0.14210854715E-13 -0.18878608087E+04  0.19413502488E+04  0.45257303913E+03 0.  0.
      99925    2    3    3    0    0  0.13256710365E+02 -0.11010696270E+03 -0.12094743880E+04  0.12426694008E+04  0.26286814333E+03 0.  0.
         25    1    4    4    0    0  0.35691877344E+02 -0.25684358578E+02 -0.54300665186E+03  0.55896093643E+03  0.12509000000E+03 0.  0.
         25    1    3    3    0    0 -0.13256710365E+02  0.11010696270E+03 -0.67838642066E+03  0.69868084806E+03  0.12509000000E+03 0.  0.
         25    1    4    4    0    0 -0.22435166979E+02 -0.84422604118E+02 -0.66646773613E+03  0.68370846434E+03  0.12509000000E+03 0.  0.
<mgrwt>
<rscale>  2 0.45257304E+03</rscale>
<asrwt>0</asrwt>
<pdfrwt beam="1">  1       21 0.39330482E-02 0.45257304E+03</pdfrwt>
<pdfrwt beam="2">  1       21 0.28155956E+00 0.45257304E+03</pdfrwt>
<totfact> 0.14971213E+04</totfact>
</mgrwt>
</event>
<event>
 7    0  0.4709932E-002  0.4540828E+03  0.7546771E-02  0.1026511E+00
         21   -1    0    0  502  501  0.00000000000E+00  0.00000000000E+00  0.88307091509E+03  0.88307091509E+03  0.00000000000E+00 0. -1.
         21   -1    0    0  501  502 -0.00000000000E+00 -0.00000000000E+00 -0.58373338721E+02  0.58373338721E+02  0.00000000000E+00 0. -1.
      99926    2    1    2    0    0  0.00000000000E+00  0.00000000000E+00  0.82469757637E+03  0.94144425381E+03  0.45408280144E+03 0.  0.
      99925    2    3    3    0    0 -0.35266880609E+02 -0.10409825687E+03  0.56688026330E+03  0.63452818227E+03  0.26304482741E+03 0.  0.
         25    1    3    3    0    0  0.35266880609E+02  0.10409825687E+03  0.25781731308E+03  0.30691607155E+03  0.12509000000E+03 0.  0.
         25    1    4    4    0    0  0.12731189021E+01 -0.17404461577E+02  0.21396777827E+03  0.24846378881E+03  0.12509000000E+03 0.  0.
         25    1    4    4    0    0 -0.36539999511E+02 -0.86693795290E+02  0.35291248503E+03  0.38606439346E+03  0.12509000000E+03 0.  0.
<mgrwt>
<rscale>  2 0.45408280E+03</rscale>
<asrwt>0</asrwt>
<pdfrwt beam="1">  1       21 0.12986336E+00 0.45408280E+03</pdfrwt>
<pdfrwt beam="2">  1       21 0.85843151E-02 0.45408280E+03</pdfrwt>
<totfact> 0.41788143E+04</totfact>
</mgrwt>
</event>
<event>
 7    0  0.4709932E-002  0.4532640E+03  0.7546771E-02  0.1026753E+00
         21   -1    0    0  502  501  0.00000000000E+00  0.00000000000E+00  0.45991381531E+03  0.45991381531E+03  0.00000000000E+00 0.  1.
         21   -1    0    0  501  502 -0.00000000000E+00 -0.00000000000E+00 -0.11167756291E+03  0.11167756291E+03  0.00000000000E+00 0.  1.
      99926    2    1    2    0    0  0.14210854715E-13  0.00000000000E+00  0.34823625240E+03  0.57159137822E+03  0.45326395861E+03 0.  0.
      99925    2    3    3    0    0  0.69323263096E+02  0.43503882315E+02  0.31505970392E+03  0.41846889767E+03  0.26297395060E+03 0.  0.
         25    1    3    3    0    0 -0.69323263096E+02 -0.43503882315E+02  0.33176548479E+02  0.15312248056E+03  0.12509000000E+03 0.  0.
         25    1    4    4    0    0  0.11649454318E+02  0.66225493207E+01  0.10134348539E+03  0.16154744837E+03  0.12509000000E+03 0.  0.
         25    1    4    4    0    0  0.57673808778E+02  0.36881332995E+02  0.21371621853E+03  0.25692144929E+03  0.12509000000E+03 0.  0.
<mgrwt>
<rscale>  2 0.45326396E+03</rscale>
<asrwt>0</asrwt>
<pdfrwt beam="1">  1       21 0.67634384E-01 0.45326396E+03</pdfrwt>
<pdfrwt beam="2">  1       21 0.16423171E-01 0.45326396E+03</pdfrwt>
<totfact> 0.61299048E+04</totfact>
</mgrwt>
</event>
<event>
 7    0  0.4709932E-002  0.4216141E+03  0.7546771E-02  0.1036542E+00
         21   -1    0    0  502  501  0.00000000000E+00  0.00000000000E+00  0.59678972622E+03  0.59678972622E+03  0.00000000000E+00 0.  1.
         21   -1    0    0  501  502 -0.00000000000E+00 -0.00000000000E+00 -0.74464456779E+02  0.74464456779E+02  0.00000000000E+00 0.  1.
      99926    2    1    2    0    0  0.00000000000E+00  0.71054273576E-14  0.52232526944E+03  0.67125418300E+03  0.42161414954E+03 0.  0.
      99925    2    3    3    0    0  0.57066599440E+02 -0.45115126613E+02  0.29540662552E+03  0.40212308023E+03  0.26295612909E+03 0.  0.
         25    1    4    4    0    0  0.17399226277E+02 -0.86483921296E+01  0.88678967702E+02  0.15456065209E+03  0.12509000000E+03 0.  0.
         25    1    4    4    0    0  0.39667373163E+02 -0.36466734484E+02  0.20672765782E+03  0.24756242814E+03  0.12509000000E+03 0.  0.
         25    1    3    3    0    0 -0.57066599440E+02  0.45115126613E+02  0.22691864392E+03  0.26913110277E+03  0.12509000000E+03 0.  0.
<mgrwt>
<rscale>  2 0.42161415E+03</rscale>
<asrwt>0</asrwt>
<pdfrwt beam="1">  1       21 0.87763192E-01 0.42161415E+03</pdfrwt>
<pdfrwt beam="2">  1       21 0.10950656E-01 0.42161415E+03</pdfrwt>
<totfact> 0.71524314E+04</totfact>
</mgrwt>
</event>
<event>
 7    0  0.4709932E-002  0.4389544E+03  0.7546771E-02  0.1031068E+00
         21   -1    0    0  502  501  0.00000000000E+00  0.00000000000E+00  0.10306341086E+03  0.10306341086E+03  0.00000000000E+00 0.  1.
         21   -1    0    0  501  502 -0.00000000000E+00 -0.00000000000E+00 -0.46738442915E+03  0.46738442915E+03  0.00000000000E+00 0.  1.
      99926    2    1    2    0    0  0.00000000000E+00  0.00000000000E+00 -0.36432101829E+03  0.57044784001E+03  0.43895436414E+03 0.  0.
      99925    2    3    3    0    0 -0.59551133663E+02  0.56244245591E+02 -0.16348963723E+03  0.32006712110E+03  0.26268678658E+03 0.  0.
         25    1    3    3    0    0  0.59551133663E+02 -0.56244245591E+02 -0.20083138106E+03  0.25038071891E+03  0.12509000000E+03 0.  0.
         25    1    4    4    0    0 -0.19117646060E+02  0.18167849567E+02 -0.12283942781E+03  0.17729238076E+03  0.12509000000E+03 0.  0.
         25    1    4    4    0    0 -0.40433487603E+02  0.38076396024E+02 -0.40650209420E+02  0.14277474034E+03  0.12509000000E+03 0.  0.
<mgrwt>
<rscale>  2 0.43895436E+03</rscale>
<asrwt>0</asrwt>
<pdfrwt beam="1">  1       21 0.15156384E-01 0.43895436E+03</pdfrwt>
<pdfrwt beam="2">  1       21 0.68733005E-01 0.43895436E+03</pdfrwt>
<totfact> 0.68865683E+04</totfact>
</mgrwt>
</event>
<event>
 7    0  0.4709932E-002  0.4307522E+03  0.7546771E-02  0.1033623E+00
         21   -1    0    0  502  501  0.00000000000E+00  0.00000000000E+00  0.16578233321E+03  0.16578233321E+03  0.00000000000E+00 0. -1.
         21   -1    0    0  501  502 -0.00000000000E+00 -0.00000000000E+00 -0.27980586259E+03  0.27980586259E+03  0.00000000000E+00 0. -1.
      99926    2    1    2    0    0  0.00000000000E+00  0.00000000000E+00 -0.11402352938E+03  0.44558819580E+03  0.43075221994E+03 0.  0.
      99925    2    3    3    0    0  0.11572837479E+02 -0.43476999490E+02  0.54628215508E+01  0.26684626952E+03  0.26296940713E+03 0.  0.
         25    1    4    4    0    0 -0.30777562243E+01 -0.53466650032E+02  0.26883898386E+02  0.13870258592E+03  0.12509000000E+03 0.  0.
         25    1    4    4    0    0  0.14650593703E+02  0.99896505414E+01 -0.21421076836E+02  0.12814368360E+03  0.12509000000E+03 0.  0.
         25    1    3    3    0    0 -0.11572837479E+02  0.43476999490E+02 -0.11948635093E+03  0.17874192628E+03  0.12509000000E+03 0.  0.
<mgrwt>
<rscale>  2 0.43075222E+03</rscale>
<asrwt>0</asrwt>
<pdfrwt beam="1">  1       21 0.24379755E-01 0.43075222E+03</pdfrwt>
<pdfrwt beam="2">  1       21 0.41147920E-01 0.43075222E+03</pdfrwt>
<totfact> 0.84396396E+04</totfact>
</mgrwt>
</event>
<event>
 7    0  0.4709932E-002  0.4552644E+03  0.7546771E-02  0.1026164E+00
         21   -1    0    0  502  501  0.00000000000E+00  0.00000000000E+00  0.28726099403E+03  0.28726099403E+03  0.00000000000E+00 0. -1.
         21   -1    0    0  501  502 -0.00000000000E+00 -0.00000000000E+00 -0.18038098507E+03  0.18038098507E+03  0.00000000000E+00 0. -1.
      99926    2    1    2    0    0  0.14210854715E-13  0.00000000000E+00  0.10688000897E+03  0.46764197910E+03  0.45526441142E+03 0.  0.
      99925    2    3    3    0    0  0.96469495663E+02 -0.53199280819E+02  0.39404018369E+02  0.28781694058E+03  0.26296271132E+03 0.  0.
         25    1    4    4    0    0  0.86763225880E+02 -0.36200509608E+02  0.47661551938E+01  0.15655209547E+03  0.12509000000E+03 0.  0.
         25    1    4    4    0    0  0.97062697834E+01 -0.16998771211E+02  0.34637863175E+02  0.13126484511E+03  0.12509000000E+03 0.  0.
         25    1    3    3    0    0 -0.96469495663E+02  0.53199280819E+02  0.67475990598E+02  0.17982503852E+03  0.12509000000E+03 0.  0.
<mgrwt>
<rscale>  2 0.45526441E+03</rscale>
<asrwt>0</asrwt>
<pdfrwt beam="1">  1       21 0.42244264E-01 0.45526441E+03</pdfrwt>
<pdfrwt beam="2">  1       21 0.26526615E-01 0.45526441E+03</pdfrwt>
<totfact> 0.67470066E+04</totfact>
</mgrwt>
</event>
<event>
 7    0  0.4709932E-002  0.4479021E+03  0.7546771E-02  0.1028350E+00
         21   -1    0    0  502  501  0.00000000000E+00  0.00000000000E+00  0.91963089149E+02  0.91963089149E+02  0.00000000000E+00 0. -1.
         21   -1    0    0  501  502 -0.00000000000E+00 -0.00000000000E+00 -0.54537179547E+03  0.54537179547E+03  0.00000000000E+00 0. -1.
      99926    2    1    2    0    0  0.00000000000E+00  0.14210854715E-13 -0.45340870632E+03  0.63733488462E+03  0.44790211005E+03 0.  0.
      99925    2    3    3    0    0  0.36447904049E+02  0.91608823787E+02 -0.22983203588E+03  0.36282684836E+03  0.26286865707E+03 0.  0.
         25    1    3    3    0    0 -0.36447904049E+02 -0.91608823787E+02 -0.22357667044E+03  0.27450803626E+03  0.12509000000E+03 0.  0.
         25    1    4    4    0    0  0.54352450494E+01  0.58974961311E+01 -0.11494557496E+03  0.17007150159E+03  0.12509000000E+03 0.  0.
         25    1    4    4    0    0  0.31012658999E+02  0.85711327656E+02 -0.11488646092E+03  0.19275534677E+03  0.12509000000E+03 0.  0.
<mgrwt>
<rscale>  2 0.44790211E+03</rscale>
<asrwt>0</asrwt>
<pdfrwt beam="1">  1       21 0.13523984E-01 0.44790211E+03</pdfrwt>
<pdfrwt beam="2">  1       21 0.80201732E-01 0.44790211E+03</pdfrwt>
<totfact> 0.59712231E+04</totfact>
</mgrwt>
</event>
<event>
 7    0  0.4709932E-002  0.4489691E+03  0.7546771E-02  0.1028030E+00
         21   -1    0    0  502  501  0.00000000000E+00  0.00000000000E+00  0.35613611539E+03  0.35613611539E+03  0.00000000000E+00 0.  1.
         21   -1    0    0  501  502 -0.00000000000E+00 -0.00000000000E+00 -0.14150016420E+03  0.14150016420E+03  0.00000000000E+00 0.  1.
      99926    2    1    2    0    0  0.00000000000E+00  0.35527136788E-14  0.21463595119E+03  0.49763627959E+03  0.44896912502E+03 0.  0.
      99925    2    3    3    0    0 -0.79691762818E+02  0.31490903480E+02  0.64126987611E+02  0.28399426527E+03  0.26305516172E+03 0.  0.
         25    1    4    4    0    0 -0.75098106230E+02 -0.13426343268E+01  0.47915866696E+02  0.15357397764E+03  0.12509000000E+03 0.  0.
         25    1    3    3    0    0  0.79691762818E+02 -0.31490903480E+02  0.15050896357E+03  0.21364201431E+03  0.12509000000E+03 0.  0.
         25    1    4    4    0    0 -0.45936565877E+01  0.32833537807E+02  0.16211120915E+02  0.13042028764E+03  0.12509000000E+03 0.  0.
<mgrwt>
<rscale>  2 0.44896913E+03</rscale>
<asrwt>0</asrwt>
<pdfrwt beam="1">  1       21 0.52372958E-01 0.44896913E+03</pdfrwt>
<pdfrwt beam="2">  1       21 0.20808848E-01 0.44896913E+03</pdfrwt>
<totfact> 0.68665832E+04</totfact>
</mgrwt>
</event>
<event>
 7    0  0.4709932E-002  0.4568529E+03  0.7546771E-02  0.1025698E+00
         21   -1    0    0  502  501  0.00000000000E+00  0.00000000000E+00  0.39862469214E+02  0.39862469214E+02  0.00000000000E+00 0. -1.
         21   -1    0    0  501  502 -0.00000000000E+00 -0.00000000000E+00 -0.13089665563E+04  0.13089665563E+04  0.00000000000E+00 0. -1.
      99926    2    1    2    0    0 -0.35527136788E-14  0.00000000000E+00 -0.12691040871E+04  0.13488290256E+04  0.45685288247E+03 0.  0.
      99925    2    3    3    0    0 -0.29137869481E+02  0.61644531777E+01 -0.11249041772E+04  0.11556241135E+04  0.26300317093E+03 0.  0.
         25    1    3    3    0    0  0.29137869481E+02 -0.61644531777E+01 -0.14419990998E+03  0.19320491210E+03  0.12509000000E+03 0.  0.
         25    1    4    4    0    0 -0.27742962586E+02  0.15043494266E+02 -0.41048244695E+03  0.43027819611E+03  0.12509000000E+03 0.  0.
         25    1    4    4    0    0 -0.13949068948E+01 -0.88790410886E+01 -0.71442173021E+03  0.72534591736E+03  0.12509000000E+03 0.  0.
<mgrwt>
<rscale>  2 0.45685288E+03</rscale>
<asrwt>0</asrwt>
<pdfrwt beam="1">  1       21 0.58621288E-02 0.45685288E+03</pdfrwt>
<pdfrwt beam="2">  1       21 0.19249505E+00 0.45685288E+03</pdfrwt>
<totfact> 0.27332283E+04</totfact>
</mgrwt>
</event>
<event>
 7    0  0.4709932E-002  0.4485046E+03  0.7546771E-02  0.1028169E+00
         21   -1    0    0  502  501  0.00000000000E+00  0.00000000000E+00  0.74711394031E+02  0.74711394031E+02  0.00000000000E+00 0.  1.
         21   -1    0    0  501  502 -0.00000000000E+00 -0.00000000000E+00 -0.67311136865E+03  0.67311136865E+03  0.00000000000E+00 0.  1.
      99926    2    1    2    0    0  0.71054273576E-14  0.00000000000E+00 -0.59839997462E+03  0.74782276268E+03  0.44850457607E+03 0.  0.
      99925    2    3    3    0    0 -0.59969901608E+02 -0.84745150416E+02 -0.42180401783E+03  0.50779824378E+03  0.26298725694E+03 0.  0.
         25    1    3    3    0    0  0.59969901608E+02  0.84745150416E+02 -0.17659595679E+03  0.24002451890E+03  0.12509000000E+03 0.  0.
         25    1    4    4    0    0  0.44417880104E+01 -0.21943616809E+02 -0.16418829529E+03  0.20762118439E+03  0.12509000000E+03 0.  0.
         25    1    4    4    0    0 -0.64411689618E+02 -0.62801533607E+02 -0.25761572254E+03  0.30017705939E+03  0.12509000000E+03 0.  0.
<mgrwt>
<rscale>  2 0.44850458E+03</rscale>
<asrwt>0</asrwt>
<pdfrwt beam="1">  1       21 0.10986969E-01 0.44850458E+03</pdfrwt>
<pdfrwt beam="2">  1       21 0.98986968E-01 0.44850458E+03</pdfrwt>
<totfact> 0.53038559E+04</totfact>
</mgrwt>
</event>
<event>
 7    0  0.4709932E-002  0.4601644E+03  0.7546771E-02  0.1024734E+00
         21   -1    0    0  502  501  0.00000000000E+00  0.00000000000E+00  0.87097649284E+03  0.87097649284E+03  0.00000000000E+00 0.  1.
         21   -1    0    0  501  502 -0.00000000000E+00 -0.00000000000E+00 -0.60779850487E+02  0.60779850487E+02  0.00000000000E+00 0.  1.
      99926    2    1    2    0    0  0.88817841970E-15  0.00000000000E+00  0.81019664235E+03  0.93175634332E+03  0.46016440980E+03 0.  0.
      99925    2    3    3    0    0  0.30527823740E+01 -0.11800617967E+03  0.47904947841E+03  0.55860660099E+03  0.26195067089E+03 0.  0.
         25    1    4    4    0    0 -0.62838103167E+01 -0.76240956147E+02  0.18390224309E+03  0.23520143022E+03  0.12509000000E+03 0.  0.
         25    1    4    4    0    0  0.93365926907E+01 -0.41765223522E+02  0.29514723533E+03  0.32340517077E+03  0.12509000000E+03 0.  0.
         25    1    3    3    0    0 -0.30527823740E+01  0.11800617967E+03  0.33114716394E+03  0.37314974233E+03  0.12509000000E+03 0.  0.
<mgrwt>
<rscale>  2 0.46016441E+03</rscale>
<asrwt>0</asrwt>
<pdfrwt beam="1">  1       21 0.12808477E+00 0.46016441E+03</pdfrwt>
<pdfrwt beam="2">  1       21 0.89382138E-02 0.46016441E+03</pdfrwt>
<totfact> 0.40238241E+04</totfact>
</mgrwt>
</event>
<event>
 7    0  0.4709932E-002  0.4378111E+03  0.7546771E-02  0.1031421E+00
         21   -1    0    0  502  501  0.00000000000E+00  0.00000000000E+00  0.30828903835E+04  0.30828903835E+04  0.00000000000E+00 0. -1.
         21   -1    0    0  501  502 -0.00000000000E+00 -0.00000000000E+00 -0.15543734540E+02  0.15543734540E+02  0.00000000000E+00 0. -1.
      99926    2    1    2    0    0  0.00000000000E+00  0.00000000000E+00  0.30673466490E+04  0.30984341181E+04  0.43781105394E+03 0.  0.
      99925    2    3    3    0    0 -0.38479710857E+02  0.42611853370E+02  0.25079454071E+04  0.25223493016E+04  0.26298170332E+03 0.  0.
         25    1    4    4    0    0 -0.14310142778E+02  0.57841772281E+02  0.14660056835E+04  0.14725388358E+04  0.12509000000E+03 0.  0.
         25    1    4    4    0    0 -0.24169568079E+02 -0.15229918911E+02  0.10419397236E+04  0.10498104658E+04  0.12509000000E+03 0.  0.
         25    1    3    3    0    0  0.38479710857E+02 -0.42611853370E+02  0.55940124188E+03  0.57608481642E+03  0.12509000000E+03 0.  0.
<mgrwt>
<rscale>  2 0.43781105E+03</rscale>
<asrwt>0</asrwt>
<pdfrwt beam="1">  1       21 0.45336581E+00 0.43781105E+03</pdfrwt>
<pdfrwt beam="2">  1       21 0.22858454E-02 0.43781105E+03</pdfrwt>
<totfact> 0.31343604E+03</totfact>
</mgrwt>
</event>
<event>
 7    0  0.4709932E-002  0.4612547E+03  0.7546771E-02  0.1024418E+00
         21   -1    0    0  502  501  0.00000000000E+00  0.00000000000E+00  0.76784557369E+02  0.76784557369E+02  0.00000000000E+00 0.  1.
         21   -1    0    0  501  502 -0.00000000000E+00 -0.00000000000E+00 -0.69270410356E+03  0.69270410356E+03  0.00000000000E+00 0.  1.
      99926    2    1    2    0    0  0.00000000000E+00  0.14210854715E-13 -0.61591954619E+03  0.76948866093E+03  0.46125471479E+03 0.  0.
      99925    2    3    3    0    0  0.82214417038E+02 -0.81686484681E+02 -0.43018953086E+03  0.51734775024E+03  0.26297104416E+03 0.  0.
         25    1    4    4    0    0  0.29843546670E+02 -0.38421872006E+02 -0.27950761076E+03  0.31006271962E+03  0.12509000000E+03 0.  0.
         25    1    4    4    0    0  0.52370870369E+02 -0.43264612675E+02 -0.15068192010E+03  0.20728503062E+03  0.12509000000E+03 0.  0.
         25    1    3    3    0    0 -0.82214417038E+02  0.81686484681E+02 -0.18573001533E+03  0.25214091069E+03  0.12509000000E+03 0.  0.
<mgrwt>
<rscale>  2 0.46125471E+03</rscale>
<asrwt>0</asrwt>
<pdfrwt beam="1">  1       21 0.11291847E-01 0.46125471E+03</pdfrwt>
<pdfrwt beam="2">  1       21 0.10186824E+00 0.46125471E+03</pdfrwt>
<totfact> 0.46928948E+04</totfact>
</mgrwt>
</event>
<event>
 7    0  0.4709932E-002  0.4602033E+03  0.7546771E-02  0.1024722E+00
         21   -1    0    0  502  501  0.00000000000E+00  0.00000000000E+00  0.24053744437E+03  0.24053744437E+03  0.00000000000E+00 0. -1.
         21   -1    0    0  501  502 -0.00000000000E+00 -0.00000000000E+00 -0.22011864259E+03  0.22011864259E+03  0.00000000000E+00 0. -1.
      99926    2    1    2    0    0 -0.14210854715E-13 -0.71054273576E-14  0.20418801782E+02  0.46065608697E+03  0.46020332788E+03 0.  0.
      99925    2    3    3    0    0  0.94484810500E+02  0.62673220672E+02  0.45273693433E+02  0.29000853866E+03  0.26305880174E+03 0.  0.
         25    1    4    4    0    0  0.57446623222E+01  0.38952528505E+02  0.24902132964E+02  0.13348380032E+03  0.12509000000E+03 0.  0.
         25    1    4    4    0    0  0.88740148177E+02  0.23720692166E+02  0.20371560469E+02  0.15652473834E+03  0.12509000000E+03 0.  0.
         25    1    3    3    0    0 -0.94484810500E+02 -0.62673220672E+02 -0.24854891651E+02  0.17064754831E+03  0.12509000000E+03 0.  0.
<mgrwt>
<rscale>  2 0.46020333E+03</rscale>
<asrwt>0</asrwt>
<pdfrwt beam="1">  1       21 0.35373154E-01 0.46020333E+03</pdfrwt>
<pdfrwt beam="2">  1       21 0.32370389E-01 0.46020333E+03</pdfrwt>
<totfact> 0.65376745E+04</totfact>
</mgrwt>
</event>
<event>
 7    0  0.4709932E-002  0.4548372E+03  0.7546771E-02  0.1026289E+00
         21   -1    0    0  502  501  0.00000000000E+00  0.00000000000E+00  0.78530637355E+02  0.78530637355E+02  0.00000000000E+00 0. -1.
         21   -1    0    0  501  502 -0.00000000000E+00 -0.00000000000E+00 -0.65858666239E+03  0.65858666239E+03  0.00000000000E+00 0. -1.
      99926    2    1    2    0    0  0.00000000000E+00  0.00000000000E+00 -0.58005602504E+03  0.73711729975E+03  0.45483724716E+03 0.  0.
      99925    2    3    3    0    0  0.85689941809E+02 -0.34480597086E+02 -0.25935150278E+03  0.38070380898E+03  0.26294583183E+03 0.  0.
         25    1    4    4    0    0  0.73338705100E+02 -0.27485245568E+02 -0.17613407867E+03  0.22979278962E+03  0.12509000000E+03 0.  0.
         25    1    4    4    0    0  0.12351236709E+02 -0.69953515180E+01 -0.83217424104E+02  0.15091101936E+03  0.12509000000E+03 0.  0.
         25    1    3    3    0    0 -0.85689941809E+02  0.34480597086E+02 -0.32070452226E+03  0.35641349077E+03  0.12509000000E+03 0.  0.
<mgrwt>
<rscale>  2 0.45483725E+03</rscale>
<asrwt>0</asrwt>
<pdfrwt beam="1">  1       21 0.11548623E-01 0.45483725E+03</pdfrwt>
<pdfrwt beam="2">  1       21 0.96850982E-01 0.45483725E+03</pdfrwt>
<totfact> 0.50998865E+04</totfact>
</mgrwt>
</event>
<event>
 7    0  0.4709932E-002  0.4454559E+03  0.7546771E-02  0.1029086E+00
         21   -1    0    0  502  501  0.00000000000E+00  0.00000000000E+00  0.15840367002E+03  0.15840367002E+03  0.00000000000E+00 0.  1.
         21   -1    0    0  501  502 -0.00000000000E+00 -0.00000000000E+00 -0.31317288526E+03  0.31317288526E+03  0.00000000000E+00 0.  1.
      99926    2    1    2    0    0  0.00000000000E+00 -0.88817841970E-15 -0.15476921524E+03  0.47157655529E+03  0.44545587605E+03 0.  0.
      99925    2    3    3    0    0  0.69631153721E+02  0.77276178911E+01 -0.17957817938E+03  0.32607326856E+03  0.26299665457E+03 0.  0.
         25    1    3    3    0    0 -0.69631153721E+02 -0.77276178911E+01  0.24808964135E+02  0.14550328673E+03  0.12509000000E+03 0.  0.
         25    1    4    4    0    0  0.67693322320E+02 -0.12525841639E+02 -0.72367573538E+02  0.16007453388E+03  0.12509000000E+03 0.  0.
         25    1    4    4    0    0  0.19378314010E+01  0.20253459530E+02 -0.10721060584E+03  0.16599873469E+03  0.12509000000E+03 0.  0.
<mgrwt>
<rscale>  2 0.44545588E+03</rscale>
<asrwt>0</asrwt>
<pdfrwt beam="1">  1       21 0.23294658E-01 0.44545588E+03</pdfrwt>
<pdfrwt beam="2">  1       21 0.46054836E-01 0.44545588E+03</pdfrwt>
<totfact> 0.72669012E+04</totfact>
</mgrwt>
</event>
<event>
 7    0  0.4709932E-002  0.4533743E+03  0.7546771E-02  0.1026721E+00
         21   -1    0    0  502  501  0.00000000000E+00  0.00000000000E+00  0.33079075524E+03  0.33079075524E+03  0.00000000000E+00 0.  1.
         21   -1    0    0  501  502 -0.00000000000E+00 -0.00000000000E+00 -0.15534610689E+03  0.15534610689E+03  0.00000000000E+00 0.  1.
      99926    2    1    2    0    0  0.00000000000E+00  0.14210854715E-13  0.17544464835E+03  0.48613686214E+03  0.45337426492E+03 0.  0.
      99925    2    3    3    0    0 -0.55191153957E+02  0.70033483180E+02  0.38689634834E+02  0.28046675234E+03  0.26308545966E+03 0.  0.
         25    1    4    4    0    0 -0.47408889304E+02  0.57627432990E+02  0.50037280105E+02  0.15401221159E+03  0.12509000000E+03 0.  0.
         25    1    4    4    0    0 -0.77822646531E+01  0.12406050190E+02 -0.11347645271E+02  0.12645454076E+03  0.12509000000E+03 0.  0.
         25    1    3    3    0    0  0.55191153957E+02 -0.70033483180E+02  0.13675501351E+03  0.20567010979E+03  0.12509000000E+03 0.  0.
<mgrwt>
<rscale>  2 0.45337426E+03</rscale>
<asrwt>0</asrwt>
<pdfrwt beam="1">  1       21 0.48645700E-01 0.45337426E+03</pdfrwt>
<pdfrwt beam="2">  1       21 0.22845016E-01 0.45337426E+03</pdfrwt>
<totfact> 0.67118077E+04</totfact>
</mgrwt>
</event>
<event>
 7    0  0.4709932E-002  0.4512421E+03  0.7546771E-02  0.1027352E+00
         21   -1    0    0  502  501  0.00000000000E+00  0.00000000000E+00  0.47297673980E+03  0.47297673980E+03  0.00000000000E+00 0.  1.
         21   -1    0    0  501  502 -0.00000000000E+00 -0.00000000000E+00 -0.10762657887E+03  0.10762657887E+03  0.00000000000E+00 0.  1.
      99926    2    1    2    0    0  0.14210854715E-13  0.00000000000E+00  0.36535016093E+03  0.58060331868E+03  0.45124214516E+03 0.  0.
      99925    2    3    3    0    0  0.66200625564E+02 -0.87702337249E+02  0.22947237747E+03  0.36569751857E+03  0.26268399319E+03 0.  0.
         25    1    4    4    0    0  0.26452099914E+02 -0.72621074813E+02  0.15661175217E+03  0.21482151455E+03  0.12509000000E+03 0.  0.
         25    1    4    4    0    0  0.39748525650E+02 -0.15081262436E+02  0.72860625305E+02  0.15087600402E+03  0.12509000000E+03 0.  0.
         25    1    3    3    0    0 -0.66200625564E+02  0.87702337249E+02  0.13587778346E+03  0.21490580011E+03  0.12509000000E+03 0.  0.
<mgrwt>
<rscale>  2 0.45124215E+03</rscale>
<asrwt>0</asrwt>
<pdfrwt beam="1">  1       21 0.69555402E-01 0.45124215E+03</pdfrwt>
<pdfrwt beam="2">  1       21 0.15827438E-01 0.45124215E+03</pdfrwt>
<totfact> 0.61701017E+04</totfact>
</mgrwt>
</event>
<event>
 7    0  0.4709932E-002  0.4434653E+03  0.7546771E-02  0.1029689E+00
         21   -1    0    0  502  501  0.00000000000E+00  0.00000000000E+00  0.25917192410E+03  0.25917192410E+03  0.00000000000E+00 0.  1.
         21   -1    0    0  501  502 -0.00000000000E+00 -0.00000000000E+00 -0.18970171492E+03  0.18970171492E+03  0.00000000000E+00 0.  1.
      99926    2    1    2    0    0  0.71054273576E-14  0.00000000000E+00  0.69470209182E+02  0.44887363902E+03  0.44346525663E+03 0.  0.
      99925    2    3    3    0    0 -0.50155609049E+02 -0.43187103992E+02 -0.34275912144E+02  0.27339863550E+03  0.26304232486E+03 0.  0.
         25    1    3    3    0    0  0.50155609049E+02  0.43187103992E+02  0.10374612133E+03  0.17547500352E+03  0.12509000000E+03 0.  0.
         25    1    4    4    0    0 -0.80141404704E+01 -0.58512966613E+02 -0.19370796222E+02  0.13968081313E+03  0.12509000000E+03 0.  0.
         25    1    4    4    0    0 -0.42141468579E+02  0.15325862620E+02 -0.14905115922E+02  0.13371782237E+03  0.12509000000E+03 0.  0.
<mgrwt>
<rscale>  2 0.44346526E+03</rscale>
<asrwt>0</asrwt>
<pdfrwt beam="1">  1       21 0.38113519E-01 0.44346526E+03</pdfrwt>
<pdfrwt beam="2">  1       21 0.27897311E-01 0.44346526E+03</pdfrwt>
<totfact> 0.75728932E+04</totfact>
</mgrwt>
</event>
<event>
 6    0  0.4709932E-002  0.4513452E+03  0.7546771E-02  0.1027322E+00
         21   -1    0    0  502  501  0.00000000000E+00  0.00000000000E+00  0.52758087604E+02  0.52758087604E+02  0.00000000000E+00 0. -1.
         21   -1    0    0  501  502 -0.00000000000E+00 -0.00000000000E+00 -0.96531395961E+03  0.96531395961E+03  0.00000000000E+00 0. -1.
      99926    2    1    2    0    0  0.71054273576E-14  0.00000000000E+00 -0.91255587201E+03  0.10180720472E+04  0.45134518252E+03 0.  0.
         25    1    3    3    0    0 -0.62254075605E+02 -0.46389887511E+02 -0.17153522306E+03  0.22605183575E+03  0.12509000000E+03 0.  0.
         25    1    3    3    0    0 -0.17340959025E+02  0.10227713699E+02 -0.31787457844E+03  0.34219449251E+03  0.12509000000E+03 0.  0.
         25    1    3    3    0    0  0.79595034631E+02  0.36162173812E+02 -0.42314607050E+03  0.44982571896E+03  0.12509000000E+03 0.  0.
<mgrwt>
<rscale>  2 0.45134518E+03</rscale>
<asrwt>0</asrwt>
<pdfrwt beam="1">  1       21 0.77585429E-02 0.45134518E+03</pdfrwt>
<pdfrwt beam="2">  1       21 0.14195793E+00 0.45134518E+03</pdfrwt>
<totfact> 0.39588863E+04</totfact>
</mgrwt>
</event>
<event>
 7    0  0.4709932E-002  0.4567337E+03  0.7546771E-02  0.1025733E+00
         21   -1    0    0  502  501  0.00000000000E+00  0.00000000000E+00  0.18277746436E+03  0.18277746436E+03  0.00000000000E+00 0. -1.
         21   -1    0    0  501  502 -0.00000000000E+00 -0.00000000000E+00 -0.28532744212E+03  0.28532744212E+03  0.00000000000E+00 0. -1.
      99926    2    1    2    0    0  0.35527136788E-14  0.35527136788E-14 -0.10254997776E+03  0.46810490648E+03  0.45673373592E+03 0.  0.
      99925    2    3    3    0    0  0.16243335315E+02 -0.31223233202E+02 -0.17626610364E+03  0.31870506864E+03  0.26318139229E+03 0.  0.
         25    1    4    4    0    0 -0.24129027238E+02  0.92367319955E+01 -0.77781120542E+02  0.14954911563E+03  0.12509000000E+03 0.  0.
         25    1    3    3    0    0 -0.16243335315E+02  0.31223233202E+02  0.73716125875E+02  0.14939983784E+03  0.12509000000E+03 0.  0.
         25    1    4    4    0    0  0.40372362553E+02 -0.40459965197E+02 -0.98484983096E+02  0.16915595301E+03  0.12509000000E+03 0.  0.
<mgrwt>
<rscale>  2 0.45673374E+03</rscale>
<asrwt>0</asrwt>
<pdfrwt beam="1">  1       21 0.26879039E-01 0.45673374E+03</pdfrwt>
<pdfrwt beam="2">  1       21 0.41959918E-01 0.45673374E+03</pdfrwt>
<totfact> 0.66655860E+04</totfact>
</mgrwt>
</event>
<event>
 7    0  0.4709932E-002  0.4666745E+03  0.7546771E-02  0.1022863E+00
         21   -1    0    0  502  501  0.00000000000E+00  0.00000000000E+00  0.25234179362E+03  0.25234179362E+03  0.00000000000E+00 0. -1.
         21   -1    0    0  501  502 -0.00000000000E+00 -0.00000000000E+00 -0.21576395284E+03  0.21576395284E+03  0.00000000000E+00 0. -1.
      99926    2    1    2    0    0  0.00000000000E+00  0.00000000000E+00  0.36577840779E+02  0.46810574646E+03  0.46667445981E+03 0.  0.
      99925    2    3    3    0    0  0.11069618726E+03 -0.19360496665E+02  0.75206694435E+02  0.29557119590E+03  0.26282657828E+03 0.  0.
         25    1    3    3    0    0 -0.11069618726E+03  0.19360496665E+02 -0.38628853656E+02  0.17253455057E+03  0.12509000000E+03 0.  0.
         25    1    4    4    0    0  0.44749807172E+02 -0.32180184095E+02  0.40618392350E+01  0.13675568042E+03  0.12509000000E+03 0.  0.
         25    1    4    4    0    0  0.65946380090E+02  0.12819687431E+02  0.71144855200E+02  0.15881551547E+03  0.12509000000E+03 0.  0.
<mgrwt>
<rscale>  2 0.46667446E+03</rscale>
<asrwt>0</asrwt>
<pdfrwt beam="1">  1       21 0.37109087E-01 0.46667446E+03</pdfrwt>
<pdfrwt beam="2">  1       21 0.31729993E-01 0.46667446E+03</pdfrwt>
<totfact> 0.61650362E+04</totfact>
</mgrwt>
</event>
<event>
 7    0  0.4709932E-002  0.4640796E+03  0.7546771E-02  0.1023605E+00
         21   -1    0    0  502  501  0.00000000000E+00  0.00000000000E+00  0.11713391684E+03  0.11713391684E+03  0.00000000000E+00 0. -1.
         21   -1    0    0  501  502 -0.00000000000E+00 -0.00000000000E+00 -0.45966593710E+03  0.45966593710E+03  0.00000000000E+00 0. -1.
      99926    2    1    2    0    0  0.88817841970E-15  0.00000000000E+00 -0.34253202026E+03  0.57679985393E+03  0.46407961235E+03 0.  0.
      99925    2    3    3    0    0 -0.50637929645E+01  0.10601314424E+03 -0.14048603889E+03  0.31654129896E+03  0.26305443937E+03 0.  0.
         25    1    4    4    0    0 -0.61321962171E+01  0.38590976947E+02 -0.24974911364E+02  0.13340960097E+03  0.12509000000E+03 0.  0.
         25    1    3    3    0    0  0.50637929645E+01 -0.10601314424E+03 -0.20204598137E+03  0.26025855498E+03  0.12509000000E+03 0.  0.
         25    1    4    4    0    0  0.10684032527E+01  0.67422167289E+02 -0.11551112752E+03  0.18313169799E+03  0.12509000000E+03 0.  0.
<mgrwt>
<rscale>  2 0.46407961E+03</rscale>
<asrwt>0</asrwt>
<pdfrwt beam="1">  1       21 0.17225576E-01 0.46407961E+03</pdfrwt>
<pdfrwt beam="2">  1       21 0.67597932E-01 0.46407961E+03</pdfrwt>
<totfact> 0.55999753E+04</totfact>
</mgrwt>
</event>
<event>
 7    0  0.4709932E-002  0.4858595E+03  0.7546771E-02  0.1017537E+00
         21   -1    0    0  502  501  0.00000000000E+00  0.00000000000E+00  0.69212069497E+02  0.69212069497E+02  0.00000000000E+00 0.  1.
         21   -1    0    0  501  502 -0.00000000000E+00 -0.00000000000E+00 -0.85266736039E+03  0.85266736039E+03  0.00000000000E+00 0.  1.
      99926    2    1    2    0    0  0.00000000000E+00  0.00000000000E+00 -0.78345529089E+03  0.92187942988E+03  0.48585953775E+03 0.  0.
      99925    2    3    3    0    0  0.13494512929E+03  0.37262396658E+02 -0.49193290849E+03  0.57513531434E+03  0.26302845705E+03 0.  0.
         25    1    3    3    0    0 -0.13494512929E+03 -0.37262396658E+02 -0.29152238240E+03  0.34674411554E+03  0.12509000000E+03 0.  0.
         25    1    4    4    0    0  0.53957999330E+02  0.51909341952E+02 -0.20599502457E+03  0.25236383204E+03  0.12509000000E+03 0.  0.
         25    1    4    4    0    0  0.80987129961E+02 -0.14646945293E+02 -0.28593788393E+03  0.32277148231E+03  0.12509000000E+03 0.  0.
<mgrwt>
<rscale>  2 0.48585954E+03</rscale>
<asrwt>0</asrwt>
<pdfrwt beam="1">  1       21 0.10178246E-01 0.48585954E+03</pdfrwt>
<pdfrwt beam="2">  1       21 0.12539226E+00 0.48585954E+03</pdfrwt>
<totfact> 0.33457134E+04</totfact>
</mgrwt>
</event>
<event>
 7    0  0.4709932E-002  0.4645745E+03  0.7546771E-02  0.1023463E+00
         21   -1    0    0  502  501  0.00000000000E+00  0.00000000000E+00  0.76524789018E+03  0.76524789018E+03  0.00000000000E+00 0.  1.
         21   -1    0    0  501  502 -0.00000000000E+00 -0.00000000000E+00 -0.70509654611E+02  0.70509654611E+02  0.00000000000E+00 0.  1.
      99926    2    1    2    0    0  0.00000000000E+00  0.00000000000E+00  0.69473823557E+03  0.83575754479E+03  0.46457449103E+03 0.  0.
      99925    2    3    3    0    0  0.11246953215E+02 -0.15594701368E+02  0.21685398445E+03  0.34139881448E+03  0.26297872783E+03 0.  0.
         25    1    4    4    0    0  0.11690995733E+02  0.16822887724E+02  0.14839403985E+03  0.19516144111E+03  0.12509000000E+03 0.  0.
         25    1    3    3    0    0 -0.11246953215E+02  0.15594701368E+02  0.47788425111E+03  0.49435873030E+03  0.12509000000E+03 0.  0.
         25    1    4    4    0    0 -0.44404251742E+00 -0.32417589092E+02  0.68459944604E+02  0.14623737337E+03  0.12509000000E+03 0.  0.
<mgrwt>
<rscale>  2 0.46457449E+03</rscale>
<asrwt>0</asrwt>
<pdfrwt beam="1">  1       21 0.11253645E+00 0.46457449E+03</pdfrwt>
<pdfrwt beam="2">  1       21 0.10369067E-01 0.46457449E+03</pdfrwt>
<totfact> 0.42778210E+04</totfact>
</mgrwt>
</event>
<event>
 7    0  0.4709932E-002  0.4616490E+03  0.7546771E-02  0.1024304E+00
         21   -1    0    0  502  501  0.00000000000E+00  0.00000000000E+00  0.13805880617E+04  0.13805880617E+04  0.00000000000E+00 0.  1.
         21   -1    0    0  501  502 -0.00000000000E+00 -0.00000000000E+00 -0.38592209266E+02  0.38592209266E+02  0.00000000000E+00 0.  1.
      99926    2    1    2    0    0  0.00000000000E+00  0.00000000000E+00  0.13419958525E+04  0.14191802710E+04  0.46164897223E+03 0.  0.
      99925    2    3    3    0    0  0.93247448136E+02 -0.60927460782E+02  0.70813155046E+03  0.76355941751E+03  0.26299324946E+03 0.  0.
         25    1    4    4    0    0  0.47785183611E+02  0.89484076186E+01  0.36729854012E+03  0.39104887603E+03  0.12509000000E+03 0.  0.
         25    1    3    3    0    0 -0.93247448136E+02  0.60927460782E+02  0.63386430202E+03  0.65562085349E+03  0.12509000000E+03 0.  0.
         25    1    4    4    0    0  0.45462264526E+02 -0.69875868401E+02  0.34083301033E+03  0.37251054148E+03  0.12509000000E+03 0.  0.
<mgrwt>
<rscale>  2 0.46164897E+03</rscale>
<asrwt>0</asrwt>
<pdfrwt beam="1">  1       21 0.20302762E+00 0.46164897E+03</pdfrwt>
<pdfrwt beam="2">  1       21 0.56753258E-02 0.46164897E+03</pdfrwt>
<totfact> 0.24533141E+04</totfact>
</mgrwt>
</event>
<event>
 7    0  0.4709932E-002  0.4512327E+03  0.7546771E-02  0.1027355E+00
         21   -1    0    0  502  501  0.00000000000E+00  0.00000000000E+00  0.53361430946E+02  0.53361430946E+02  0.00000000000E+00 0.  1.
         21   -1    0    0  501  502 -0.00000000000E+00 -0.00000000000E+00 -0.95392377323E+03  0.95392377323E+03  0.00000000000E+00 0.  1.
      99926    2    1    2    0    0  0.00000000000E+00  0.00000000000E+00 -0.90056234229E+03  0.10072852042E+04  0.45123270074E+03 0.  0.
      99925    2    3    3    0    0 -0.77944646946E+02 -0.71129724076E+02 -0.49480667028E+03  0.56976951406E+03  0.26204742427E+03 0.  0.
         25    1    4    4    0    0 -0.69577288219E+02 -0.51454768782E+02 -0.22476397821E+03  0.27139444774E+03  0.12509000000E+03 0.  0.
         25    1    3    3    0    0  0.77944646946E+02  0.71129724076E+02 -0.40575567201E+03  0.43751569012E+03  0.12509000000E+03 0.  0.
         25    1    4    4    0    0 -0.83673587270E+01 -0.19674955294E+02 -0.27004269207E+03  0.29837506632E+03  0.12509000000E+03 0.  0.
<mgrwt>
<rscale>  2 0.45123270E+03</rscale>
<asrwt>0</asrwt>
<pdfrwt beam="1">  1       21 0.78472688E-02 0.45123270E+03</pdfrwt>
<pdfrwt beam="2">  1       21 0.14028292E+00 0.45123270E+03</pdfrwt>
<totfact> 0.40049927E+04</totfact>
</mgrwt>
</event>
<event>
 7    0  0.4709932E-002  0.4449257E+03  0.7546771E-02  0.1029246E+00
         21   -1    0    0  502  501  0.00000000000E+00  0.00000000000E+00  0.14534299319E+04  0.14534299319E+04  0.00000000000E+00 0. -1.
         21   -1    0    0  501  502 -0.00000000000E+00 -0.00000000000E+00 -0.34050301271E+02  0.34050301271E+02  0.00000000000E+00 0. -1.
      99926    2    1    2    0    0 -0.71054273576E-14  0.00000000000E+00  0.14193796306E+04  0.14874802331E+04  0.44492573338E+03 0.  0.
      99925    2    3    3    0    0  0.56884914829E+02 -0.85909890604E+02  0.86848959679E+03  0.91324705726E+03  0.26292509392E+03 0.  0.
         25    1    3    3    0    0 -0.56884914829E+02  0.85909890604E+02  0.55089003380E+03  0.57423317588E+03  0.12509000000E+03 0.  0.
         25    1    4    4    0    0  0.13773905474E+02 -0.33838083970E+02  0.53630228406E+03  0.55190794920E+03  0.12509000000E+03 0.  0.
         25    1    4    4    0    0  0.43111009354E+02 -0.52071806634E+02  0.33218731273E+03  0.36133910806E+03  0.12509000000E+03 0.  0.
<mgrwt>
<rscale>  2 0.44492573E+03</rscale>
<asrwt>0</asrwt>
<pdfrwt beam="1">  1       21 0.21373965E+00 0.44492573E+03</pdfrwt>
<pdfrwt beam="2">  1       21 0.50073982E-02 0.44492573E+03</pdfrwt>
<totfact> 0.26068758E+04</totfact>
</mgrwt>
</event>
<event>
 6    0  0.4709932E-002  0.4597502E+03  0.7546771E-02  0.1024854E+00
         21   -1    0    0  502  501  0.00000000000E+00  0.00000000000E+00  0.48767882052E+02  0.48767882052E+02  0.00000000000E+00 0. -1.
         21   -1    0    0  501  502 -0.00000000000E+00 -0.00000000000E+00 -0.10835524800E+04  0.10835524800E+04  0.00000000000E+00 0. -1.
      99926    2    1    2    0    0 -0.71054273576E-14  0.00000000000E+00 -0.10347845979E+04  0.11323203620E+04  0.45975019104E+03 0.  0.
         25    1    3    3    0    0  0.44714490336E+02  0.69153417110E+02 -0.45491537375E+03  0.47893327940E+03  0.12509000000E+03 0.  0.
         25    1    3    3    0    0 -0.44259803838E+02 -0.60630981898E+02 -0.16625140183E+03  0.22118336943E+03  0.12509000000E+03 0.  0.
         25    1    3    3    0    0 -0.45468649786E+00 -0.85224352114E+01 -0.41361782235E+03  0.43220371320E+03  0.12509000000E+03 0.  0.
<mgrwt>
<rscale>  2 0.45975019E+03</rscale>
<asrwt>0</asrwt>
<pdfrwt beam="1">  1       21 0.71717476E-02 0.45975019E+03</pdfrwt>
<pdfrwt beam="2">  1       21 0.15934595E+00 0.45975019E+03</pdfrwt>
<totfact> 0.33134159E+04</totfact>
</mgrwt>
</event>
<event>
 7    0  0.4709932E-002  0.4594371E+03  0.7546771E-02  0.1024945E+00
         21   -1    0    0  502  501  0.00000000000E+00  0.00000000000E+00  0.15993314828E+04  0.15993314828E+04  0.00000000000E+00 0.  1.
         21   -1    0    0  501  502 -0.00000000000E+00 -0.00000000000E+00 -0.32995421375E+02  0.32995421375E+02  0.00000000000E+00 0.  1.
      99926    2    1    2    0    0  0.00000000000E+00  0.00000000000E+00  0.15663360614E+04  0.16323269042E+04  0.45943711732E+03 0.  0.
      99925    2    3    3    0    0  0.57328232858E+02 -0.10060018639E+03  0.91538942707E+03  0.95943318845E+03  0.26299679869E+03 0.  0.
         25    1    4    4    0    0  0.49410241545E+02 -0.28600554544E+02  0.53842145753E+03  0.55570184246E+03  0.12509000000E+03 0.  0.
         25    1    3    3    0    0 -0.57328232858E+02  0.10060018639E+03  0.65094663435E+03  0.67289371572E+03  0.12509000000E+03 0.  0.
         25    1    4    4    0    0  0.79179913126E+01 -0.71999631844E+02  0.37696796954E+03  0.40373134599E+03  0.12509000000E+03 0.  0.
<mgrwt>
<rscale>  2 0.45943712E+03</rscale>
<asrwt>0</asrwt>
<pdfrwt beam="1">  1       21 0.23519575E+00 0.45943712E+03</pdfrwt>
<pdfrwt beam="2">  1       21 0.48522689E-02 0.45943712E+03</pdfrwt>
<totfact> 0.20010696E+04</totfact>
</mgrwt>
</event>
<event>
 7    0  0.4709932E-002  0.4561969E+03  0.7546771E-02  0.1025890E+00
         21   -1    0    0  502  501  0.00000000000E+00  0.00000000000E+00  0.95390621976E+02  0.95390621976E+02  0.00000000000E+00 0. -1.
         21   -1    0    0  501  502 -0.00000000000E+00 -0.00000000000E+00 -0.54542999561E+03  0.54542999561E+03  0.00000000000E+00 0. -1.
      99926    2    1    2    0    0  0.14210854715E-13 -0.35527136788E-14 -0.45003937364E+03  0.64082061759E+03  0.45619691593E+03 0.  0.
      99925    2    3    3    0    0 -0.10880398324E+03  0.25330116600E+02 -0.31741423769E+03  0.42700561259E+03  0.26287273218E+03 0.  0.
         25    1    4    4    0    0 -0.10897987593E+02  0.12992240153E+02 -0.14480227237E+03  0.19210093863E+03  0.12509000000E+03 0.  0.
         25    1    4    4    0    0 -0.97905995652E+02  0.12337876447E+02 -0.17261196531E+03  0.23490467396E+03  0.12509000000E+03 0.  0.
         25    1    3    3    0    0  0.10880398324E+03 -0.25330116600E+02 -0.13262513595E+03  0.21381500500E+03  0.12509000000E+03 0.  0.
<mgrwt>
<rscale>  2 0.45619692E+03</rscale>
<asrwt>0</asrwt>
<pdfrwt beam="1">  1       21 0.14028033E-01 0.45619692E+03</pdfrwt>
<pdfrwt beam="2">  1       21 0.80210293E-01 0.45619692E+03</pdfrwt>
<totfact> 0.55705409E+04</totfact>
</mgrwt>
</event>
<event>
 7    0  0.4709932E-002  0.4527268E+03  0.7546771E-02  0.1026912E+00
         21   -1    0    0  502  501  0.00000000000E+00  0.00000000000E+00  0.88274344711E+02  0.88274344711E+02  0.00000000000E+00 0.  1.
         21   -1    0    0  501  502 -0.00000000000E+00 -0.00000000000E+00 -0.58046756754E+03  0.58046756754E+03  0.00000000000E+00 0.  1.
      99926    2    1    2    0    0  0.00000000000E+00 -0.14210854715E-13 -0.49219322283E+03  0.66874191225E+03  0.45272682337E+03 0.  0.
      99925    2    3    3    0    0 -0.52218982490E+02  0.95658022081E+02 -0.34168623118E+03  0.44473936326E+03  0.26299494545E+03 0.  0.
         25    1    4    4    0    0 -0.58643448723E+02  0.75933809685E+02 -0.18033218554E+03  0.23952495230E+03  0.12509000000E+03 0.  0.
         25    1    3    3    0    0  0.52218982490E+02 -0.95658022081E+02 -0.15050699165E+03  0.22400254899E+03  0.12509000000E+03 0.  0.
         25    1    4    4    0    0  0.64244662326E+01  0.19724212396E+02 -0.16135404564E+03  0.20521441096E+03  0.12509000000E+03 0.  0.
<mgrwt>
<rscale>  2 0.45272682E+03</rscale>
<asrwt>0</asrwt>
<pdfrwt beam="1">  1       21 0.12981521E-01 0.45272682E+03</pdfrwt>
<pdfrwt beam="2">  1       21 0.85362878E-01 0.45272682E+03</pdfrwt>
<totfact> 0.55623226E+04</totfact>
</mgrwt>
</event>
<event>
 7    0  0.4709932E-002  0.4580288E+03  0.7546771E-02  0.1025354E+00
         21   -1    0    0  502  501  0.00000000000E+00  0.00000000000E+00  0.65420938462E+03  0.65420938462E+03  0.00000000000E+00 0.  1.
         21   -1    0    0  501  502 -0.00000000000E+00 -0.00000000000E+00 -0.80169417530E+02  0.80169417530E+02  0.00000000000E+00 0.  1.
      99926    2    1    2    0    0  0.00000000000E+00  0.14210854715E-13  0.57403996709E+03  0.73437880215E+03  0.45802875590E+03 0.  0.
      99925    2    3    3    0    0  0.33654410064E+02 -0.10186781398E+03  0.28994955007E+03  0.40595142207E+03  0.26308961335E+03 0.  0.
         25    1    4    4    0    0  0.42144152064E+02 -0.45189114944E+02  0.10112610246E+03  0.17231419663E+03  0.12509000000E+03 0.  0.
         25    1    4    4    0    0 -0.84897420004E+01 -0.56678699039E+02  0.18882344761E+03  0.23363722544E+03  0.12509000000E+03 0.  0.
         25    1    3    3    0    0 -0.33654410064E+02  0.10186781398E+03  0.28409041702E+03  0.32842738008E+03  0.12509000000E+03 0.  0.
<mgrwt>
<rscale>  2 0.45802876E+03</rscale>
<asrwt>0</asrwt>
<pdfrwt beam="1">  1       21 0.96207259E-01 0.45802876E+03</pdfrwt>
<pdfrwt beam="2">  1       21 0.11789621E-01 0.45802876E+03</pdfrwt>
<totfact> 0.49877422E+04</totfact>
</mgrwt>
</event>
<event>
 7    0  0.4709932E-002  0.4549937E+03  0.7546771E-02  0.1026243E+00
         21   -1    0    0  502  501  0.00000000000E+00  0.00000000000E+00  0.79832826681E+02  0.79832826681E+02  0.00000000000E+00 0.  1.
         21   -1    0    0  501  502 -0.00000000000E+00 -0.00000000000E+00 -0.64828999348E+03  0.64828999348E+03  0.00000000000E+00 0.  1.
      99926    2    1    2    0    0  0.00000000000E+00  0.44408920985E-15 -0.56845716680E+03  0.72812282016E+03  0.45499372606E+03 0.  0.
      99925    2    3    3    0    0  0.10817225575E+03  0.16538636224E+01 -0.41022225350E+03  0.49923470762E+03  0.26315209261E+03 0.  0.
         25    1    4    4    0    0  0.67080395869E+02  0.18943562584E+02 -0.27299444094E+03  0.30827278660E+03  0.12509000000E+03 0.  0.
         25    1    3    3    0    0 -0.10817225575E+03 -0.16538636224E+01 -0.15823491330E+03  0.22888811254E+03  0.12509000000E+03 0.  0.
         25    1    4    4    0    0  0.41091859878E+02 -0.17289698962E+02 -0.13722781256E+03  0.19096192102E+03  0.12509000000E+03 0.  0.
<mgrwt>
<rscale>  2 0.45499373E+03</rscale>
<asrwt>0</asrwt>
<pdfrwt beam="1">  1       21 0.11740121E-01 0.45499373E+03</pdfrwt>
<pdfrwt beam="2">  1       21 0.95336767E-01 0.45499373E+03</pdfrwt>
<totfact> 0.51405101E+04</totfact>
</mgrwt>
</event>
<event>
 7    0  0.4709932E-002  0.4548204E+03  0.7546771E-02  0.1026294E+00
         21   -1    0    0  502  501  0.00000000000E+00  0.00000000000E+00  0.26600265780E+03  0.26600265780E+03  0.00000000000E+00 0. -1.
         21   -1    0    0  501  502 -0.00000000000E+00 -0.00000000000E+00 -0.19441681573E+03  0.19441681573E+03  0.00000000000E+00 0. -1.
      99926    2    1    2    0    0  0.00000000000E+00  0.00000000000E+00  0.71585842069E+02  0.46041947352E+03  0.45482035884E+03 0.  0.
      99925    2    3    3    0    0 -0.10043876120E+03  0.45548164261E+02  0.20465216123E+02  0.28599640591E+03  0.26308276094E+03 0.  0.
         25    1    4    4    0    0 -0.18081995185E+02 -0.68989165399E+01  0.88968109683E+01  0.12689056287E+03  0.12509000000E+03 0.  0.
         25    1    3    3    0    0  0.10043876120E+03 -0.45548164261E+02  0.51120625945E+02  0.17442306761E+03  0.12509000000E+03 0.  0.
         25    1    4    4    0    0 -0.82356766013E+02  0.52447080801E+02  0.11568405155E+02  0.15910584304E+03  0.12509000000E+03 0.  0.
<mgrwt>
<rscale>  2 0.45482036E+03</rscale>
<asrwt>0</asrwt>
<pdfrwt beam="1">  1       21 0.39118038E-01 0.45482036E+03</pdfrwt>
<pdfrwt beam="2">  1       21 0.28590708E-01 0.45482036E+03</pdfrwt>
<totfact> 0.68247701E+04</totfact>
</mgrwt>
</event>
<event>
 7    0  0.4709932E-002  0.4580969E+03  0.7546771E-02  0.1025335E+00
         21   -1    0    0  502  501  0.00000000000E+00  0.00000000000E+00  0.11387736762E+03  0.11387736762E+03  0.00000000000E+00 0.  1.
         21   -1    0    0  501  502 -0.00000000000E+00 -0.00000000000E+00 -0.46069898168E+03  0.46069898168E+03  0.00000000000E+00 0.  1.
      99926    2    1    2    0    0  0.00000000000E+00  0.00000000000E+00 -0.34682161406E+03  0.57457634930E+03  0.45809687753E+03 0.  0.
      99925    2    3    3    0    0 -0.51548938158E+02 -0.44270895670E+02 -0.99520397137E+02  0.28922988407E+03  0.26293043028E+03 0.  0.
         25    1    4    4    0    0 -0.56954785720E+02  0.43328035251E+00 -0.64012579049E+02  0.15162174555E+03  0.12509000000E+03 0.  0.
         25    1    3    3    0    0  0.51548938158E+02  0.44270895670E+02 -0.24730121692E+03  0.28534646523E+03  0.12509000000E+03 0.  0.
         25    1    4    4    0    0  0.54058475619E+01 -0.44704176022E+02 -0.35507818088E+02  0.13760813852E+03  0.12509000000E+03 0.  0.
<mgrwt>
<rscale>  2 0.45809688E+03</rscale>
<asrwt>0</asrwt>
<pdfrwt beam="1">  1       21 0.16746671E-01 0.45809688E+03</pdfrwt>
<pdfrwt beam="2">  1       21 0.67749852E-01 0.45809688E+03</pdfrwt>
<totfact> 0.58817560E+04</totfact>
</mgrwt>
</event>
<event>
 7    0  0.4709932E-002  0.4492996E+03  0.7546771E-02  0.1027931E+00
         21   -1    0    0  502  501  0.00000000000E+00  0.00000000000E+00  0.88380843409E+02  0.88380843409E+02  0.00000000000E+00 0. -1.
         21   -1    0    0  501  502 -0.00000000000E+00 -0.00000000000E+00 -0.57102335586E+03  0.57102335586E+03  0.00000000000E+00 0. -1.
      99926    2    1    2    0    0 -0.13322676296E-14  0.00000000000E+00 -0.48264251245E+03  0.65940419927E+03  0.44929956954E+03 0.  0.
      99925    2    3    3    0    0  0.18210424165E+01  0.90195235757E+02 -0.39413607782E+03  0.48158576991E+03  0.26161633968E+03 0.  0.
         25    1    3    3    0    0 -0.18210424165E+01 -0.90195235757E+02 -0.88506434631E+02  0.17781842936E+03  0.12509000000E+03 0.  0.
         25    1    4    4    0    0  0.30353506659E+02  0.51418663731E+02 -0.15904112367E+03  0.21096635150E+03  0.12509000000E+03 0.  0.
         25    1    4    4    0    0 -0.28532464242E+02  0.38776572026E+02 -0.23509495414E+03  0.27061941841E+03  0.12509000000E+03 0.  0.
<mgrwt>
<rscale>  2 0.44929957E+03</rscale>
<asrwt>0</asrwt>
<pdfrwt beam="1">  1       21 0.12997183E-01 0.44929957E+03</pdfrwt>
<pdfrwt beam="2">  1       21 0.83974021E-01 0.44929957E+03</pdfrwt>
<totfact> 0.57713357E+04</totfact>
</mgrwt>
</event>
<event>
 7    0  0.4709932E-002  0.4566571E+03  0.7546771E-02  0.1025755E+00
         21   -1    0    0  502  501  0.00000000000E+00  0.00000000000E+00  0.15193101996E+04  0.15193101996E+04  0.00000000000E+00 0.  1.
         21   -1    0    0  501  502 -0.00000000000E+00 -0.00000000000E+00 -0.34314205812E+02  0.34314205812E+02  0.00000000000E+00 0.  1.
      99926    2    1    2    0    0 -0.35527136788E-14  0.00000000000E+00  0.14849959938E+04  0.15536244054E+04  0.45665708308E+03 0.  0.
      99925    2    3    3    0    0  0.22182490462E+02  0.10378404078E+03  0.10813825879E+04  0.11179473696E+04  0.26297305912E+03 0.  0.
         25    1    4    4    0    0  0.47864482245E+00  0.78607011852E+02  0.45687477580E+03  0.48016805421E+03  0.12509000000E+03 0.  0.
         25    1    4    4    0    0  0.21703845640E+02  0.25177028930E+02  0.62450781210E+03  0.63777931542E+03  0.12509000000E+03 0.  0.
         25    1    3    3    0    0 -0.22182490462E+02 -0.10378404078E+03  0.40361340588E+03  0.43567703578E+03  0.12509000000E+03 0.  0.
<mgrwt>
<rscale>  2 0.45665708E+03</rscale>
<asrwt>0</asrwt>
<pdfrwt beam="1">  1       21 0.22342793E+00 0.45665708E+03</pdfrwt>
<pdfrwt beam="2">  1       21 0.50462077E-02 0.45665708E+03</pdfrwt>
<totfact> 0.22207802E+04</totfact>
</mgrwt>
</event>
<event>
 7    0  0.4709932E-002  0.4569273E+03  0.7546771E-02  0.1025676E+00
         21   -1    0    0  502  501  0.00000000000E+00  0.00000000000E+00  0.95343755576E+02  0.95343755576E+02  0.00000000000E+00 0. -1.
         21   -1    0    0  501  502 -0.00000000000E+00 -0.00000000000E+00 -0.54744694853E+03  0.54744694853E+03  0.00000000000E+00 0. -1.
      99926    2    1    2    0    0  0.71054273576E-14  0.14210854715E-13 -0.45210319295E+03  0.64279070410E+03  0.45692733799E+03 0.  0.
      99925    2    3    3    0    0  0.61249858154E+02  0.78522191769E+02 -0.20530272202E+03  0.34872394250E+03  0.26370798373E+03 0.  0.
         25    1    4    4    0    0  0.12127396894E+02  0.91983879630E-01 -0.10314948402E+03  0.16258661190E+03  0.12509000000E+03 0.  0.
         25    1    3    3    0    0 -0.61249858154E+02 -0.78522191769E+02 -0.24680047094E+03  0.29406676160E+03  0.12509000000E+03 0.  0.
         25    1    4    4    0    0  0.49122461261E+02  0.78430207890E+02 -0.10215323800E+03  0.18613733060E+03  0.12509000000E+03 0.  0.
<mgrwt>
<rscale>  2 0.45692734E+03</rscale>
<asrwt>0</asrwt>
<pdfrwt beam="1">  1       21 0.14021141E-01 0.45692734E+03</pdfrwt>
<pdfrwt beam="2">  1       21 0.80506903E-01 0.45692734E+03</pdfrwt>
<totfact> 0.55273303E+04</totfact>
</mgrwt>
</event>
<event>
 7    0  0.4709932E-002  0.4632850E+03  0.7546771E-02  0.1023833E+00
         21   -1    0    0  502  501  0.00000000000E+00  0.00000000000E+00  0.77379948726E+03  0.77379948726E+03  0.00000000000E+00 0.  1.
         21   -1    0    0  501  502 -0.00000000000E+00 -0.00000000000E+00 -0.69343865533E+02  0.69343865533E+02  0.00000000000E+00 0.  1.
      99926    2    1    2    0    0  0.00000000000E+00  0.00000000000E+00  0.70445562173E+03  0.84314335280E+03  0.46328499908E+03 0.  0.
      99925    2    3    3    0    0 -0.40796635701E+02 -0.71645448850E+02  0.27943887600E+03  0.39249473349E+03  0.26299922923E+03 0.  0.
         25    1    3    3    0    0  0.40796635701E+02  0.71645448850E+02  0.42501674574E+03  0.45064861931E+03  0.12509000000E+03 0.  0.
         25    1    4    4    0    0 -0.11220434920E+02 -0.50140247443E+02  0.89579894679E+02  0.16220976606E+03  0.12509000000E+03 0.  0.
         25    1    4    4    0    0 -0.29576200780E+02 -0.21505201408E+02  0.18985898132E+03  0.23028496744E+03  0.12509000000E+03 0.  0.
<mgrwt>
<rscale>  2 0.46328500E+03</rscale>
<asrwt>0</asrwt>
<pdfrwt beam="1">  1       21 0.11379404E+00 0.46328500E+03</pdfrwt>
<pdfrwt beam="2">  1       21 0.10197628E-01 0.46328500E+03</pdfrwt>
<totfact> 0.42891130E+04</totfact>
</mgrwt>
</event>
<event>
 7    0  0.4709932E-002  0.4595342E+03  0.7546771E-02  0.1024916E+00
         21   -1    0    0  502  501  0.00000000000E+00  0.00000000000E+00  0.38948675072E+03  0.38948675072E+03  0.00000000000E+00 0.  1.
         21   -1    0    0  501  502 -0.00000000000E+00 -0.00000000000E+00 -0.13554482008E+03  0.13554482008E+03  0.00000000000E+00 0.  1.
      99926    2    1    2    0    0  0.00000000000E+00 -0.35527136788E-14  0.25394193064E+03  0.52503157080E+03  0.45953416216E+03 0.  0.
      99925    2    3    3    0    0 -0.10533798427E+03 -0.25701923592E+02  0.21032824009E+03  0.35384061920E+03  0.26307515164E+03 0.  0.
         25    1    4    4    0    0 -0.33385417830E+02 -0.27707827110E+02  0.59717538153E+02  0.14524462906E+03  0.12509000000E+03 0.  0.
         25    1    3    3    0    0  0.10533798427E+03  0.25701923592E+02  0.43613690556E+02  0.17119095160E+03  0.12509000000E+03 0.  0.
         25    1    4    4    0    0 -0.71952566438E+02  0.20059035184E+01  0.15061070193E+03  0.20859599014E+03  0.12509000000E+03 0.  0.
<mgrwt>
<rscale>  2 0.45953416E+03</rscale>
<asrwt>0</asrwt>
<pdfrwt beam="1">  1       21 0.57277463E-01 0.45953416E+03</pdfrwt>
<pdfrwt beam="2">  1       21 0.19933062E-01 0.45953416E+03</pdfrwt>
<totfact> 0.61310360E+04</totfact>
</mgrwt>
</event>
<event>
 7    0  0.4709932E-002  0.4491131E+03  0.7546771E-02  0.1027987E+00
         21   -1    0    0  502  501  0.00000000000E+00  0.00000000000E+00  0.10812157490E+03  0.10812157490E+03  0.00000000000E+00 0.  1.
         21   -1    0    0  501  502 -0.00000000000E+00 -0.00000000000E+00 -0.46637909817E+03  0.46637909817E+03  0.00000000000E+00 0.  1.
      99926    2    1    2    0    0  0.00000000000E+00  0.00000000000E+00 -0.35825752327E+03  0.57450067307E+03  0.44911309308E+03 0.  0.
      99925    2    3    3    0    0 -0.86145014383E+02 -0.19887435502E+02 -0.14856618760E+03  0.31481925681E+03  0.26310222114E+03 0.  0.
         25    1    3    3    0    0  0.86145014383E+02  0.19887435502E+02 -0.20969133567E+03  0.25968141626E+03  0.12509000000E+03 0.  0.
         25    1    4    4    0    0 -0.25907446770E+02 -0.10960724605E+02 -0.11375997556E+03  0.17140645677E+03  0.12509000000E+03 0.  0.
         25    1    4    4    0    0 -0.60237567613E+02 -0.89267108974E+01 -0.34806212034E+02  0.14341280004E+03  0.12509000000E+03 0.  0.
<mgrwt>
<rscale>  2 0.44911309E+03</rscale>
<asrwt>0</asrwt>
<pdfrwt beam="1">  1       21 0.15900231E-01 0.44911309E+03</pdfrwt>
<pdfrwt beam="2">  1       21 0.68585163E-01 0.44911309E+03</pdfrwt>
<totfact> 0.63165083E+04</totfact>
</mgrwt>
</event>
<event>
 7    0  0.4709932E-002  0.4508309E+03  0.7546771E-02  0.1027475E+00
         21   -1    0    0  502  501  0.00000000000E+00  0.00000000000E+00  0.36114440628E+03  0.36114440628E+03  0.00000000000E+00 0.  1.
         21   -1    0    0  501  502 -0.00000000000E+00 -0.00000000000E+00 -0.14069750472E+03  0.14069750472E+03  0.00000000000E+00 0.  1.
      99926    2    1    2    0    0  0.00000000000E+00  0.00000000000E+00  0.22044690156E+03  0.50184191100E+03  0.45083086322E+03 0.  0.
      99925    2    3    3    0    0 -0.16083297085E+02  0.10162441693E+03  0.98528655859E+02  0.29911608310E+03  0.26301395511E+03 0.  0.
         25    1    4    4    0    0 -0.30691960639E+02  0.46760969175E+02  0.13806252825E+02  0.13771966237E+03  0.12509000000E+03 0.  0.
         25    1    3    3    0    0  0.16083297085E+02 -0.10162441693E+03  0.12191824571E+03  0.20272582790E+03  0.12509000000E+03 0.  0.
         25    1    4    4    0    0  0.14608663553E+02  0.54863447756E+02  0.84722403033E+02  0.16139642074E+03  0.12509000000E+03 0.  0.
<mgrwt>
<rscale>  2 0.45083086E+03</rscale>
<asrwt>0</asrwt>
<pdfrwt beam="1">  1       21 0.53109472E-01 0.45083086E+03</pdfrwt>
<pdfrwt beam="2">  1       21 0.20690810E-01 0.45083086E+03</pdfrwt>
<totfact> 0.67342526E+04</totfact>
</mgrwt>
</event>
<event>
 7    0  0.4709932E-002  0.4662808E+03  0.7546771E-02  0.1022975E+00
         21   -1    0    0  502  501  0.00000000000E+00  0.00000000000E+00  0.14046010181E+03  0.14046010181E+03  0.00000000000E+00 0.  1.
         21   -1    0    0  501  502 -0.00000000000E+00 -0.00000000000E+00 -0.38697425950E+03  0.38697425950E+03  0.00000000000E+00 0.  1.
      99926    2    1    2    0    0  0.35527136788E-14  0.00000000000E+00 -0.24651415770E+03  0.52743436131E+03  0.46628079045E+03 0.  0.
      99925    2    3    3    0    0  0.23514326016E+02  0.87706048035E+02 -0.24827495649E+03  0.37285142919E+03  0.26293052284E+03 0.  0.
         25    1    3    3    0    0 -0.23514326016E+02 -0.87706048035E+02  0.17607987910E+01  0.15458293212E+03  0.12509000000E+03 0.  0.
         25    1    4    4    0    0 -0.19756724146E+02  0.43239663307E+02 -0.87406995707E+02  0.15983581460E+03  0.12509000000E+03 0.  0.
         25    1    4    4    0    0  0.43271050162E+02  0.44466384728E+02 -0.16086796078E+03  0.21301561459E+03  0.12509000000E+03 0.  0.
<mgrwt>
<rscale>  2 0.46628079E+03</rscale>
<asrwt>0</asrwt>
<pdfrwt beam="1">  1       21 0.20655897E-01 0.46628079E+03</pdfrwt>
<pdfrwt beam="2">  1       21 0.56907979E-01 0.46628079E+03</pdfrwt>
<totfact> 0.58014838E+04</totfact>
</mgrwt>
</event>
<event>
 7    0  0.4709932E-002  0.4563775E+03  0.7546771E-02  0.1025837E+00
         21   -1    0    0  502  501  0.00000000000E+00  0.00000000000E+00  0.10714850178E+03  0.10714850178E+03  0.00000000000E+00 0. -1.
         21   -1    0    0  501  502 -0.00000000000E+00 -0.00000000000E+00 -0.48596201122E+03  0.48596201122E+03  0.00000000000E+00 0. -1.
      99926    2    1    2    0    0 -0.71054273576E-14 -0.14210854715E-13 -0.37881350944E+03  0.59311051301E+03  0.45637748159E+03 0.  0.
      99925    2    3    3    0    0 -0.38288380555E+02 -0.10211467719E+03 -0.28332247936E+03  0.40164393026E+03  0.26296922258E+03 0.  0.
         25    1    4    4    0    0 -0.35354972456E+02 -0.38403036593E+02 -0.18865933603E+03  0.23230286366E+03  0.12509000000E+03 0.  0.
         25    1    3    3    0    0  0.38288380555E+02  0.10211467719E+03 -0.95491030078E+02  0.19146658274E+03  0.12509000000E+03 0.  0.
         25    1    4    4    0    0 -0.29334080993E+01 -0.63711640595E+02 -0.94663143335E+02  0.16934106660E+03  0.12509000000E+03 0.  0.
<mgrwt>
<rscale>  2 0.45637748E+03</rscale>
<asrwt>0</asrwt>
<pdfrwt beam="1">  1       21 0.15757133E-01 0.45637748E+03</pdfrwt>
<pdfrwt beam="2">  1       21 0.71465002E-01 0.45637748E+03</pdfrwt>
<totfact> 0.58465287E+04</totfact>
</mgrwt>
</event>
<event>
 7    0  0.4709932E-002  0.4550106E+03  0.7546771E-02  0.1026238E+00
         21   -1    0    0  502  501  0.00000000000E+00  0.00000000000E+00  0.17994614234E+04  0.17994614234E+04  0.00000000000E+00 0. -1.
         21   -1    0    0  501  502 -0.00000000000E+00 -0.00000000000E+00 -0.28763412006E+02  0.28763412006E+02  0.00000000000E+00 0. -1.
      99926    2    1    2    0    0  0.00000000000E+00  0.00000000000E+00  0.17706980114E+04  0.18282248354E+04  0.45501055069E+03 0.  0.
      99925    2    3    3    0    0  0.54039837017E+02  0.27438888968E+02  0.14981134354E+04  0.15222459868E+04  0.26308892496E+03 0.  0.
         25    1    4    4    0    0  0.33013270697E+02  0.53595162264E+02  0.73524967296E+03  0.74846637008E+03  0.12509000000E+03 0.  0.
         25    1    3    3    0    0 -0.54039837017E+02 -0.27438888968E+02  0.27258457595E+03  0.30597884855E+03  0.12509000000E+03 0.  0.
         25    1    4    4    0    0  0.21026566320E+02 -0.26156273296E+02  0.76286376246E+03  0.77377961675E+03  0.12509000000E+03 0.  0.
<mgrwt>
<rscale>  2 0.45501055E+03</rscale>
<asrwt>0</asrwt>
<pdfrwt beam="1">  1       21 0.26462661E+00 0.45501055E+03</pdfrwt>
<pdfrwt beam="2">  1       21 0.42299147E-02 0.45501055E+03</pdfrwt>
<totfact> 0.16722064E+04</totfact>
</mgrwt>
</event>
<event>
 7    0  0.4709932E-002  0.4628538E+03  0.7546771E-02  0.1023957E+00
         21   -1    0    0  502  501  0.00000000000E+00  0.00000000000E+00  0.97118185203E+03  0.97118185203E+03  0.00000000000E+00 0. -1.
         21   -1    0    0  501  502 -0.00000000000E+00 -0.00000000000E+00 -0.55147671166E+02  0.55147671166E+02  0.00000000000E+00 0. -1.
      99926    2    1    2    0    0  0.00000000000E+00  0.00000000000E+00  0.91603418086E+03  0.10263295232E+04  0.46285383187E+03 0.  0.
      99925    2    3    3    0    0  0.99529391786E+02  0.60324520594E+02  0.50466552012E+03  0.58088948149E+03  0.26305922316E+03 0.  0.
         25    1    4    4    0    0  0.32922742646E+02 -0.80127602687E+01  0.24854865136E+03  0.28030706645E+03  0.12509000000E+03 0.  0.
         25    1    4    4    0    0  0.66606649140E+02  0.68337280863E+02  0.25611686876E+03  0.30058241504E+03  0.12509000000E+03 0.  0.
         25    1    3    3    0    0 -0.99529391786E+02 -0.60324520594E+02  0.41136866074E+03  0.44544004171E+03  0.12509000000E+03 0.  0.
<mgrwt>
<rscale>  2 0.46285383E+03</rscale>
<asrwt>0</asrwt>
<pdfrwt beam="1">  1       21 0.14282085E+00 0.46285383E+03</pdfrwt>
<pdfrwt beam="2">  1       21 0.81099522E-02 0.46285383E+03</pdfrwt>
<totfact> 0.35905424E+04</totfact>
</mgrwt>
</event>
<event>
 7    0  0.4709932E-002  0.4552799E+03  0.7546771E-02  0.1026159E+00
         21   -1    0    0  502  501  0.00000000000E+00  0.00000000000E+00  0.78788303603E+03  0.78788303603E+03  0.00000000000E+00 0. -1.
         21   -1    0    0  501  502 -0.00000000000E+00 -0.00000000000E+00 -0.65771110197E+02  0.65771110197E+02  0.00000000000E+00 0. -1.
      99926    2    1    2    0    0  0.00000000000E+00  0.00000000000E+00  0.72211192584E+03  0.85365414623E+03  0.45527987869E+03 0.  0.
      99925    2    3    3    0    0 -0.65012424671E+02 -0.90035279041E+02  0.41055982355E+03  0.50003685682E+03  0.26295346095E+03 0.  0.
         25    1    4    4    0    0  0.15607094065E+01 -0.66892407461E+02  0.20500393406E+03  0.24930132585E+03  0.12509000000E+03 0.  0.
         25    1    3    3    0    0  0.65012424671E+02  0.90035279041E+02  0.31155210228E+03  0.35361728941E+03  0.12509000000E+03 0.  0.
         25    1    4    4    0    0 -0.66573134077E+02 -0.23142871580E+02  0.20555588949E+03  0.25073553097E+03  0.12509000000E+03 0.  0.
<mgrwt>
<rscale>  2 0.45527988E+03</rscale>
<asrwt>0</asrwt>
<pdfrwt beam="1">  1       21 0.11586515E+00 0.45527988E+03</pdfrwt>
<pdfrwt beam="2">  1       21 0.96722225E-02 0.45527988E+03</pdfrwt>
<totfact> 0.45177087E+04</totfact>
</mgrwt>
</event>
<event>
 7    0  0.4709932E-002  0.4103626E+03  0.7546771E-02  0.1040249E+00
         21   -1    0    0  502  501  0.00000000000E+00  0.00000000000E+00  0.68939438479E+03  0.68939438479E+03  0.00000000000E+00 0.  1.
         21   -1    0    0  501  502 -0.00000000000E+00 -0.00000000000E+00 -0.61067162968E+02  0.61067162968E+02  0.00000000000E+00 0.  1.
      99926    2    1    2    0    0 -0.71054273576E-14  0.35527136788E-14  0.62832722182E+03  0.75046154776E+03  0.41036256771E+03 0.  0.
      99925    2    3    3    0    0  0.41049517217E+02 -0.54250804033E+01  0.50026195360E+03  0.56671521341E+03  0.26303919200E+03 0.  0.
         25    1    4    4    0    0  0.12332451217E+02 -0.41367188356E+02  0.22917928560E+03  0.26463935209E+03  0.12509000000E+03 0.  0.
         25    1    3    3    0    0 -0.41049517217E+02  0.54250804033E+01  0.12806526822E+03  0.18374633435E+03  0.12509000000E+03 0.  0.
         25    1    4    4    0    0  0.28717066000E+02  0.35942107952E+02  0.27108266800E+03  0.30207586133E+03  0.12509000000E+03 0.  0.
<mgrwt>
<rscale>  2 0.41036257E+03</rscale>
<asrwt>0</asrwt>
<pdfrwt beam="1">  1       21 0.10138152E+00 0.41036257E+03</pdfrwt>
<pdfrwt beam="2">  1       21 0.89804655E-02 0.41036257E+03</pdfrwt>
<totfact> 0.72528286E+04</totfact>
</mgrwt>
</event>
<event>
 7    0  0.4709932E-002  0.4555828E+03  0.7546771E-02  0.1026070E+00
         21   -1    0    0  502  501  0.00000000000E+00  0.00000000000E+00  0.97369986578E+03  0.97369986578E+03  0.00000000000E+00 0. -1.
         21   -1    0    0  501  502 -0.00000000000E+00 -0.00000000000E+00 -0.53290461324E+02  0.53290461324E+02  0.00000000000E+00 0. -1.
      99926    2    1    2    0    0  0.00000000000E+00  0.00000000000E+00  0.92040940445E+03  0.10269903271E+04  0.45558276982E+03 0.  0.
      99925    2    3    3    0    0 -0.10104449738E+03  0.12158619884E+02  0.46518820428E+03  0.54404967684E+03  0.26312005431E+03 0.  0.
         25    1    4    4    0    0 -0.80847874737E+02  0.45233342105E+01  0.19400500371E+03  0.24462683616E+03  0.12509000000E+03 0.  0.
         25    1    3    3    0    0  0.10104449738E+03 -0.12158619884E+02  0.45522120017E+03  0.48294065026E+03  0.12509000000E+03 0.  0.
         25    1    4    4    0    0 -0.20196622643E+02  0.76352856730E+01  0.27118320057E+03  0.29942284068E+03  0.12509000000E+03 0.  0.
<mgrwt>
<rscale>  2 0.45558277E+03</rscale>
<asrwt>0</asrwt>
<pdfrwt beam="1">  1       21 0.14319115E+00 0.45558277E+03</pdfrwt>
<pdfrwt beam="2">  1       21 0.78368332E-02 0.45558277E+03</pdfrwt>
<totfact> 0.37960177E+04</totfact>
</mgrwt>
</event>
<event>
 7    0  0.4709932E-002  0.4564987E+03  0.7546771E-02  0.1025802E+00
         21   -1    0    0  502  501  0.00000000000E+00  0.00000000000E+00  0.22892162560E+04  0.22892162560E+04  0.00000000000E+00 0.  1.
         21   -1    0    0  501  502 -0.00000000000E+00 -0.00000000000E+00 -0.22757900068E+02  0.22757900068E+02  0.00000000000E+00 0.  1.
      99926    2    1    2    0    0  0.71054273576E-14 -0.14210854715E-13  0.22664583559E+04  0.23119741561E+04  0.45649865186E+03 0.  0.
      99925    2    3    3    0    0 -0.53669588210E+02  0.10109340717E+03  0.13963943367E+04  0.14255435568E+04  0.26297716074E+03 0.  0.
         25    1    3    3    0    0  0.53669588210E+02 -0.10109340717E+03  0.87006401926E+03  0.88643059930E+03  0.12509000000E+03 0.  0.
         25    1    4    4    0    0  0.85698485756E+01  0.25519489688E+02  0.61949728472E+03  0.63257337957E+03  0.12509000000E+03 0.  0.
         25    1    4    4    0    0 -0.62239436785E+02  0.75573917483E+02  0.77689705197E+03  0.79297017721E+03  0.12509000000E+03 0.  0.
<mgrwt>
<rscale>  2 0.45649865E+03</rscale>
<asrwt>0</asrwt>
<pdfrwt beam="1">  1       21 0.33664929E+00 0.45649865E+03</pdfrwt>
<pdfrwt beam="2">  1       21 0.33467516E-02 0.45649865E+03</pdfrwt>
<totfact> 0.91453388E+03</totfact>
</mgrwt>
</event>
<event>
 7    0  0.4709932E-002  0.4509836E+03  0.7546771E-02  0.1027429E+00
         21   -1    0    0  502  501  0.00000000000E+00  0.00000000000E+00  0.22210201747E+02  0.22210201747E+02  0.00000000000E+00 0. -1.
         21   -1    0    0  501  502 -0.00000000000E+00 -0.00000000000E+00 -0.22893333539E+04  0.22893333539E+04  0.00000000000E+00 0. -1.
      99926    2    1    2    0    0  0.00000000000E+00  0.00000000000E+00 -0.22671231521E+04  0.23115435556E+04  0.45098361680E+03 0.  0.
      99925    2    3    3    0    0 -0.67544021199E+02 -0.43409031492E+02 -0.18098474397E+04  0.18307160147E+04  0.26367941281E+03 0.  0.
         25    1    4    4    0    0 -0.10776326020E+02  0.20345816645E+01 -0.10227933124E+04  0.10304726764E+04  0.12509000000E+03 0.  0.
         25    1    3    3    0    0  0.67544021199E+02  0.43409031492E+02 -0.45727571242E+03  0.48082754089E+03  0.12509000000E+03 0.  0.
         25    1    4    4    0    0 -0.56767695179E+02 -0.45443613157E+02 -0.78705412726E+03  0.80024333833E+03  0.12509000000E+03 0.  0.
<mgrwt>
<rscale>  2 0.45098362E+03</rscale>
<asrwt>0</asrwt>
<pdfrwt beam="1">  1       21 0.32662079E-02 0.45098362E+03</pdfrwt>
<pdfrwt beam="2">  1       21 0.33666649E+00 0.45098362E+03</pdfrwt>
<totfact> 0.95522477E+03</totfact>
</mgrwt>
</event>
<event>
 7    0  0.4709932E-002  0.4450603E+03  0.7546771E-02  0.1029205E+00
         21   -1    0    0  502  501  0.00000000000E+00  0.00000000000E+00  0.90525654230E+02  0.90525654230E+02  0.00000000000E+00 0.  1.
         21   -1    0    0  501  502 -0.00000000000E+00 -0.00000000000E+00 -0.54702354230E+03  0.54702354230E+03  0.00000000000E+00 0.  1.
      99926    2    1    2    0    0  0.00000000000E+00  0.14210854715E-13 -0.45649788807E+03  0.63754919653E+03  0.44506028376E+03 0.  0.
      99925    2    3    3    0    0 -0.25622998042E+02  0.79020549789E+02 -0.37857409759E+03  0.46837351701E+03  0.26297265780E+03 0.  0.
         25    1    4    4    0    0 -0.21650300656E+02  0.55613309345E+02 -0.13473501880E+03  0.19329409998E+03  0.12509000000E+03 0.  0.
         25    1    3    3    0    0  0.25622998042E+02 -0.79020549789E+02 -0.77923790476E+02  0.16917567952E+03  0.12509000000E+03 0.  0.
         25    1    4    4    0    0 -0.39726973866E+01  0.23407240444E+02 -0.24383907879E+03  0.27507941704E+03  0.12509000000E+03 0.  0.
<mgrwt>
<rscale>  2 0.44506028E+03</rscale>
<asrwt>0</asrwt>
<pdfrwt beam="1">  1       21 0.13312596E-01 0.44506028E+03</pdfrwt>
<pdfrwt beam="2">  1       21 0.80444641E-01 0.44506028E+03</pdfrwt>
<totfact> 0.61076193E+04</totfact>
</mgrwt>
</event>
<event>
 7    0  0.4709932E-002  0.4555565E+03  0.7546771E-02  0.1026078E+00
         21   -1    0    0  502  501  0.00000000000E+00  0.00000000000E+00  0.55128182407E+03  0.55128182407E+03  0.00000000000E+00 0. -1.
         21   -1    0    0  501  502 -0.00000000000E+00 -0.00000000000E+00 -0.94113251152E+02  0.94113251152E+02  0.00000000000E+00 0. -1.
      99926    2    1    2    0    0  0.00000000000E+00 -0.14210854715E-13  0.45716857292E+03  0.64539507523E+03  0.45555647186E+03 0.  0.
      99925    2    3    3    0    0  0.65321387889E+02 -0.92931585343E+02  0.28195958725E+03  0.40198418798E+03  0.26303405725E+03 0.  0.
         25    1    3    3    0    0 -0.65321387889E+02  0.92931585343E+02  0.17520898567E+03  0.24341088725E+03  0.12509000000E+03 0.  0.
         25    1    4    4    0    0  0.32851501868E+02 -0.85273662226E+02  0.12900089053E+03  0.20159255071E+03  0.12509000000E+03 0.  0.
         25    1    4    4    0    0  0.32469886021E+02 -0.76579231169E+01  0.15295869672E+03  0.20039163727E+03  0.12509000000E+03 0.  0.
<mgrwt>
<rscale>  2 0.45555647E+03</rscale>
<asrwt>0</asrwt>
<pdfrwt beam="1">  1       21 0.81070855E-01 0.45555647E+03</pdfrwt>
<pdfrwt beam="2">  1       21 0.13840184E-01 0.45555647E+03</pdfrwt>
<totfact> 0.55722498E+04</totfact>
</mgrwt>
</event>
<event>
 7    0  0.4709932E-002  0.4491379E+03  0.7546771E-02  0.1027979E+00
         21   -1    0    0  502  501  0.00000000000E+00  0.00000000000E+00  0.79803600416E+02  0.79803600416E+02  0.00000000000E+00 0.  1.
         21   -1    0    0  501  502 -0.00000000000E+00 -0.00000000000E+00 -0.63194165860E+03  0.63194165860E+03  0.00000000000E+00 0.  1.
      99926    2    1    2    0    0  0.00000000000E+00  0.00000000000E+00 -0.55213805819E+03  0.71174525902E+03  0.44913792808E+03 0.  0.
      99925    2    3    3    0    0 -0.80330936395E+02 -0.21724286419E+02 -0.45739876789E+03  0.53412756511E+03  0.26297075689E+03 0.  0.
         25    1    3    3    0    0  0.80330936395E+02  0.21724286419E+02 -0.94739290294E+02  0.17761769390E+03  0.12509000000E+03 0.  0.
         25    1    4    4    0    0 -0.18003293577E+02  0.22647713050E+02 -0.23388488774E+03  0.26680833252E+03  0.12509000000E+03 0.  0.
         25    1    4    4    0    0 -0.62327642819E+02 -0.44371999469E+02 -0.22351388015E+03  0.26731923260E+03  0.12509000000E+03 0.  0.
<mgrwt>
<rscale>  2 0.44913793E+03</rscale>
<asrwt>0</asrwt>
<pdfrwt beam="1">  1       21 0.11735824E-01 0.44913793E+03</pdfrwt>
<pdfrwt beam="2">  1       21 0.92932595E-01 0.44913793E+03</pdfrwt>
<totfact> 0.54751607E+04</totfact>
</mgrwt>
</event>
<event>
 7    0  0.4709932E-002  0.4458039E+03  0.7546771E-02  0.1028981E+00
         21   -1    0    0  502  501  0.00000000000E+00  0.00000000000E+00  0.73091571768E+02  0.73091571768E+02  0.00000000000E+00 0.  1.
         21   -1    0    0  501  502 -0.00000000000E+00 -0.00000000000E+00 -0.67976761857E+03  0.67976761857E+03  0.00000000000E+00 0.  1.
      99926    2    1    2    0    0  0.00000000000E+00  0.00000000000E+00 -0.60667604681E+03  0.75285919034E+03  0.44580391958E+03 0.  0.
      99925    2    3    3    0    0 -0.78274265129E+02 -0.69019510566E+02 -0.38064869514E+03  0.47424399832E+03  0.26291326976E+03 0.  0.
         25    1    4    4    0    0 -0.53906567261E+02 -0.45073734456E+02 -0.13773713626E+03  0.19888837658E+03  0.12509000000E+03 0.  0.
         25    1    4    4    0    0 -0.24367697868E+02 -0.23945776110E+02 -0.24291155887E+03  0.27535562175E+03  0.12509000000E+03 0.  0.
         25    1    3    3    0    0  0.78274265129E+02  0.69019510566E+02 -0.22602735167E+03  0.27861519202E+03  0.12509000000E+03 0.  0.
<mgrwt>
<rscale>  2 0.44580392E+03</rscale>
<asrwt>0</asrwt>
<pdfrwt beam="1">  1       21 0.10748761E-01 0.44580392E+03</pdfrwt>
<pdfrwt beam="2">  1       21 0.99965819E-01 0.44580392E+03</pdfrwt>
<totfact> 0.53917511E+04</totfact>
</mgrwt>
</event>
<event>
 7    0  0.4709932E-002  0.4603135E+03  0.7546771E-02  0.1024690E+00
         21   -1    0    0  502  501  0.00000000000E+00  0.00000000000E+00  0.24231363085E+03  0.24231363085E+03  0.00000000000E+00 0.  1.
         21   -1    0    0  501  502 -0.00000000000E+00 -0.00000000000E+00 -0.21860975621E+03  0.21860975621E+03  0.00000000000E+00 0.  1.
      99926    2    1    2    0    0  0.00000000000E+00  0.00000000000E+00  0.23703874639E+02  0.46092338707E+03  0.46031347479E+03 0.  0.
      99925    2    3    3    0    0  0.42210869081E+02  0.10709792565E+03 -0.10903346102E+02  0.28743883163E+03  0.26315485142E+03 0.  0.
         25    1    4    4    0    0  0.17874024001E+02  0.12073767468E+02  0.88943303164E+01  0.12724729391E+03  0.12509000000E+03 0.  0.
         25    1    4    4    0    0  0.24336845080E+02  0.95024158182E+02 -0.19797676419E+02  0.16019153772E+03  0.12509000000E+03 0.  0.
         25    1    3    3    0    0 -0.42210869081E+02 -0.10709792565E+03  0.34607220741E+02  0.17348455544E+03  0.12509000000E+03 0.  0.
<mgrwt>
<rscale>  2 0.46031347E+03</rscale>
<asrwt>0</asrwt>
<pdfrwt beam="1">  1       21 0.35634357E-01 0.46031347E+03</pdfrwt>
<pdfrwt beam="2">  1       21 0.32148494E-01 0.46031347E+03</pdfrwt>
<totfact> 0.65301337E+04</totfact>
</mgrwt>
</event>
<event>
 7    0  0.4709932E-002  0.4488781E+03  0.7546771E-02  0.1028057E+00
         21   -1    0    0  502  501  0.00000000000E+00  0.00000000000E+00  0.18984614210E+03  0.18984614210E+03  0.00000000000E+00 0.  1.
         21   -1    0    0  501  502 -0.00000000000E+00 -0.00000000000E+00 -0.26533529081E+03  0.26533529081E+03  0.00000000000E+00 0.  1.
      99926    2    1    2    0    0  0.00000000000E+00 -0.35527136788E-14 -0.75489148719E+02  0.45518143291E+03  0.44887807397E+03 0.  0.
      99925    2    3    3    0    0  0.79808299198E+02 -0.12888921558E+02  0.23247724299E+02  0.27648625359E+03  0.26337938951E+03 0.  0.
         25    1    3    3    0    0 -0.79808299198E+02  0.12888921558E+02 -0.98736873018E+02  0.17869517932E+03  0.12509000000E+03 0.  0.
         25    1    4    4    0    0  0.58832791591E+01  0.16143977863E+02  0.22832352750E+02  0.12831237441E+03  0.12509000000E+03 0.  0.
         25    1    4    4    0    0  0.73925020039E+02 -0.29032899421E+02  0.41537154864E+00  0.14817387918E+03  0.12509000000E+03 0.  0.
<mgrwt>
<rscale>  2 0.44887807E+03</rscale>
<asrwt>0</asrwt>
<pdfrwt beam="1">  1       21 0.27918550E-01 0.44887807E+03</pdfrwt>
<pdfrwt beam="2">  1       21 0.39019895E-01 0.44887807E+03</pdfrwt>
<totfact> 0.71983565E+04</totfact>
</mgrwt>
</event>
<event>
 7    0  0.4709932E-002  0.4564480E+03  0.7546771E-02  0.1025816E+00
         21   -1    0    0  502  501  0.00000000000E+00  0.00000000000E+00  0.40313077690E+03  0.40313077690E+03  0.00000000000E+00 0. -1.
         21   -1    0    0  501  502 -0.00000000000E+00 -0.00000000000E+00 -0.12920419717E+03  0.12920419717E+03  0.00000000000E+00 0. -1.
      99926    2    1    2    0    0  0.00000000000E+00  0.00000000000E+00  0.27392657973E+03  0.53233497407E+03  0.45644797462E+03 0.  0.
      99925    2    3    3    0    0 -0.23730171404E+02  0.10895180626E+03  0.14158589464E+03  0.31880469015E+03  0.26297575511E+03 0.  0.
         25    1    4    4    0    0 -0.33549036256E+02  0.19528721862E+02  0.54912642891E+02  0.14202047479E+03  0.12509000000E+03 0.  0.
         25    1    4    4    0    0  0.98188648523E+01  0.89423084396E+02  0.86673251751E+02  0.17678421536E+03  0.12509000000E+03 0.  0.
         25    1    3    3    0    0  0.23730171404E+02 -0.10895180626E+03  0.13234068509E+03  0.21353028392E+03  0.12509000000E+03 0.  0.
<mgrwt>
<rscale>  2 0.45644797E+03</rscale>
<asrwt>0</asrwt>
<pdfrwt beam="1">  1       21 0.59283937E-01 0.45644797E+03</pdfrwt>
<pdfrwt beam="2">  1       21 0.19000617E-01 0.45644797E+03</pdfrwt>
<totfact> 0.62330333E+04</totfact>
</mgrwt>
</event>
<event>
 7    0  0.4709932E-002  0.4567567E+03  0.7546771E-02  0.1025726E+00
         21   -1    0    0  502  501  0.00000000000E+00  0.00000000000E+00  0.39009082961E+02  0.39009082961E+02  0.00000000000E+00 0. -1.
         21   -1    0    0  501  502 -0.00000000000E+00 -0.00000000000E+00 -0.13370393899E+04  0.13370393899E+04  0.00000000000E+00 0. -1.
      99926    2    1    2    0    0 -0.14210854715E-13 -0.14210854715E-13 -0.12980303070E+04  0.13760484729E+04  0.45675674263E+03 0.  0.
      99925    2    3    3    0    0 -0.85896620263E+02 -0.76342831575E+02 -0.81483850159E+03  0.86386853752E+03  0.26286994721E+03 0.  0.
         25    1    4    4    0    0 -0.83373265710E+02 -0.43008150642E+02 -0.48225322487E+03  0.50696793139E+03  0.12509000000E+03 0.  0.
         25    1    4    4    0    0 -0.25233545533E+01 -0.33334680933E+02 -0.33258527672E+03  0.35690060614E+03  0.12509000000E+03 0.  0.
         25    1    3    3    0    0  0.85896620263E+02  0.76342831575E+02 -0.48319180538E+03  0.51217993537E+03  0.12509000000E+03 0.  0.
<mgrwt>
<rscale>  2 0.45675674E+03</rscale>
<asrwt>0</asrwt>
<pdfrwt beam="1">  1       21 0.57366291E-02 0.45675674E+03</pdfrwt>
<pdfrwt beam="2">  1       21 0.19662347E+00 0.45675674E+03</pdfrwt>
<totfact> 0.26612110E+04</totfact>
</mgrwt>
</event>
<event>
 7    0  0.4709932E-002  0.4394106E+03  0.7546771E-02  0.1030928E+00
         21   -1    0    0  502  501  0.00000000000E+00  0.00000000000E+00  0.78355552657E+02  0.78355552657E+02  0.00000000000E+00 0.  1.
         21   -1    0    0  501  502 -0.00000000000E+00 -0.00000000000E+00 -0.61604324279E+03  0.61604324279E+03  0.00000000000E+00 0.  1.
      99926    2    1    2    0    0  0.00000000000E+00  0.00000000000E+00 -0.53768769013E+03  0.69439879544E+03  0.43941055403E+03 0.  0.
      99925    2    3    3    0    0 -0.53248882125E+02 -0.38430990505E+02 -0.22867142023E+03  0.35461806079E+03  0.26296571284E+03 0.  0.
         25    1    4    4    0    0  0.89774478959E+01 -0.19975988848E+02 -0.81725658401E+02  0.15101730378E+03  0.12509000000E+03 0.  0.
         25    1    3    3    0    0  0.53248882125E+02  0.38430990505E+02 -0.30901626990E+03  0.33978073465E+03  0.12509000000E+03 0.  0.
         25    1    4    4    0    0 -0.62226330021E+02 -0.18455001658E+02 -0.14694576183E+03  0.20360075701E+03  0.12509000000E+03 0.  0.
<mgrwt>
<rscale>  2 0.43941055E+03</rscale>
<asrwt>0</asrwt>
<pdfrwt beam="1">  1       21 0.11522876E-01 0.43941055E+03</pdfrwt>
<pdfrwt beam="2">  1       21 0.90594593E-01 0.43941055E+03</pdfrwt>
<totfact> 0.60269841E+04</totfact>
</mgrwt>
</event>
<event>
 7    0  0.4709932E-002  0.4607652E+03  0.7546771E-02  0.1024560E+00
         21   -1    0    0  502  501  0.00000000000E+00  0.00000000000E+00  0.48406282578E+02  0.48406282578E+02  0.00000000000E+00 0.  1.
         21   -1    0    0  501  502 -0.00000000000E+00 -0.00000000000E+00 -0.10964723692E+04  0.10964723692E+04  0.00000000000E+00 0.  1.
      99926    2    1    2    0    0  0.00000000000E+00  0.71054273576E-14 -0.10480660866E+04  0.11448786517E+04  0.46076523888E+03 0.  0.
      99925    2    3    3    0    0  0.50438010515E+02  0.37799928424E+02 -0.90522247241E+03  0.94481707696E+03  0.26320858053E+03 0.  0.
         25    1    3    3    0    0 -0.50438010515E+02 -0.37799928424E+02 -0.14284361418E+03  0.20006157478E+03  0.12509000000E+03 0.  0.
         25    1    4    4    0    0  0.42892978553E+02 -0.17043360107E+01 -0.34723276879E+03  0.37156535924E+03  0.12509000000E+03 0.  0.
         25    1    4    4    0    0  0.75450319626E+01  0.39504264434E+02 -0.55798970363E+03  0.57325171772E+03  0.12509000000E+03 0.  0.
<mgrwt>
<rscale>  2 0.46076524E+03</rscale>
<asrwt>0</asrwt>
<pdfrwt beam="1">  1       21 0.71185710E-02 0.46076524E+03</pdfrwt>
<pdfrwt beam="2">  1       21 0.16124594E+00 0.46076524E+03</pdfrwt>
<totfact> 0.32470059E+04</totfact>
</mgrwt>
</event>
<event>
 7    0  0.4709932E-002  0.4534098E+03  0.7546771E-02  0.1026710E+00
         21   -1    0    0  502  501  0.00000000000E+00  0.00000000000E+00  0.79484566195E+02  0.79484566195E+02  0.00000000000E+00 0.  1.
         21   -1    0    0  501  502 -0.00000000000E+00 -0.00000000000E+00 -0.64660489973E+03  0.64660489973E+03  0.00000000000E+00 0.  1.
      99926    2    1    2    0    0  0.00000000000E+00  0.00000000000E+00 -0.56712033354E+03  0.72608946593E+03  0.45340979237E+03 0.  0.
      99925    2    3    3    0    0 -0.10616824751E+03  0.32209202230E+02 -0.37779880681E+03  0.47350427620E+03  0.26299283577E+03 0.  0.
         25    1    4    4    0    0 -0.32079874664E+02  0.32796332270E+02 -0.23242775388E+03  0.26790835493E+03  0.12509000000E+03 0.  0.
         25    1    3    3    0    0  0.10616824751E+03 -0.32209202230E+02 -0.18932152673E+03  0.25258518973E+03  0.12509000000E+03 0.  0.
         25    1    4    4    0    0 -0.74088372845E+02 -0.58713004008E+00 -0.14537105293E+03  0.20559592127E+03  0.12509000000E+03 0.  0.
<mgrwt>
<rscale>  2 0.45340979E+03</rscale>
<asrwt>0</asrwt>
<pdfrwt beam="1">  1       21 0.11688907E-01 0.45340979E+03</pdfrwt>
<pdfrwt beam="2">  1       21 0.95088956E-01 0.45340979E+03</pdfrwt>
<totfact> 0.52158530E+04</totfact>
</mgrwt>
</event>
<event>
 7    0  0.4709932E-002  0.4543719E+03  0.7546771E-02  0.1026426E+00
         21   -1    0    0  502  501  0.00000000000E+00  0.00000000000E+00  0.40760925879E+03  0.40760925879E+03  0.00000000000E+00 0.  1.
         21   -1    0    0  501  502 -0.00000000000E+00 -0.00000000000E+00 -0.12662483043E+03  0.12662483043E+03  0.00000000000E+00 0.  1.
      99926    2    1    2    0    0  0.00000000000E+00  0.14210854715E-13  0.28098442835E+03  0.53423408922E+03  0.45437188855E+03 0.  0.
      99925    2    3    3    0    0  0.32841400370E+02  0.75239444578E+02  0.85891648704E+02  0.28837186689E+03  0.26275735327E+03 0.  0.
         25    1    4    4    0    0  0.18572577743E+02  0.41323877811E+02  0.85192626039E+02  0.15798067968E+03  0.12509000000E+03 0.  0.
         25    1    4    4    0    0  0.14268822627E+02  0.33915566768E+02  0.69902266521E+00  0.13039118721E+03  0.12509000000E+03 0.  0.
         25    1    3    3    0    0 -0.32841400370E+02 -0.75239444578E+02  0.19509277965E+03  0.24586222233E+03  0.12509000000E+03 0.  0.
<mgrwt>
<rscale>  2 0.45437189E+03</rscale>
<asrwt>0</asrwt>
<pdfrwt beam="1">  1       21 0.59942538E-01 0.45437189E+03</pdfrwt>
<pdfrwt beam="2">  1       21 0.18621299E-01 0.45437189E+03</pdfrwt>
<totfact> 0.63234298E+04</totfact>
</mgrwt>
</event>
<event>
 7    0  0.4709932E-002  0.4387479E+03  0.7546771E-02  0.1031132E+00
         21   -1    0    0  502  501  0.00000000000E+00  0.00000000000E+00  0.64342605625E+02  0.64342605625E+02  0.00000000000E+00 0. -1.
         21   -1    0    0  501  502 -0.00000000000E+00 -0.00000000000E+00 -0.74794807046E+03  0.74794807046E+03  0.00000000000E+00 0. -1.
      99926    2    1    2    0    0  0.00000000000E+00 -0.53290705182E-14 -0.68360546483E+03  0.81229067608E+03  0.43874788991E+03 0.  0.
      99925    2    3    3    0    0 -0.94922860062E+02 -0.50009227643E+01 -0.47623496524E+03  0.55212651485E+03  0.26269485661E+03 0.  0.
         25    1    3    3    0    0  0.94922860062E+02  0.50009227643E+01 -0.20737049959E+03  0.26016416124E+03  0.12509000000E+03 0.  0.
         25    1    4    4    0    0 -0.33803219804E+02 -0.39083846261E+02 -0.21199493885E+03  0.25151454611E+03  0.12509000000E+03 0.  0.
         25    1    4    4    0    0 -0.61119640257E+02  0.34082923496E+02 -0.26424002640E+03  0.30061196874E+03  0.12509000000E+03 0.  0.
<mgrwt>
<rscale>  2 0.43874789E+03</rscale>
<asrwt>0</asrwt>
<pdfrwt beam="1">  1       21 0.94621486E-02 0.43874789E+03</pdfrwt>
<pdfrwt beam="2">  1       21 0.10999236E+00 0.43874789E+03</pdfrwt>
<totfact> 0.53704531E+04</totfact>
</mgrwt>
</event>
<event>
 7    0  0.4709932E-002  0.4448033E+03  0.7546771E-02  0.1029283E+00
         21   -1    0    0  502  501  0.00000000000E+00  0.00000000000E+00  0.29601856684E+04  0.29601856684E+04  0.00000000000E+00 0. -1.
         21   -1    0    0  501  502 -0.00000000000E+00 -0.00000000000E+00 -0.16709252026E+02  0.16709252026E+02  0.00000000000E+00 0. -1.
      99926    2    1    2    0    0 -0.99920072216E-15  0.00000000000E+00  0.29434764163E+04  0.29768949204E+04  0.44480327506E+03 0.  0.
      99925    2    3    3    0    0  0.98736325694E+00 -0.27400610561E+02  0.12032029107E+04  0.12319160807E+04  0.26299851196E+03 0.  0.
         25    1    4    4    0    0 -0.18351936569E+02 -0.48666485630E+02  0.57626036970E+03  0.59197022069E+03  0.12509000000E+03 0.  0.
         25    1    3    3    0    0 -0.98736325694E+00  0.27400610561E+02  0.17402735057E+04  0.17449788397E+04  0.12509000000E+03 0.  0.
         25    1    4    4    0    0  0.19339299826E+02  0.21265875069E+02  0.62694254097E+03  0.63994586000E+03  0.12509000000E+03 0.  0.
<mgrwt>
<rscale>  2 0.44480328E+03</rscale>
<asrwt>0</asrwt>
<pdfrwt beam="1">  1       21 0.43532106E+00 0.44480328E+03</pdfrwt>
<pdfrwt beam="2">  1       21 0.24572450E-02 0.44480328E+03</pdfrwt>
<totfact> 0.36597649E+03</totfact>
</mgrwt>
</event>
<event>
 7    0  0.4709932E-002  0.4532454E+03  0.7546771E-02  0.1026759E+00
         21   -1    0    0  502  501  0.00000000000E+00  0.00000000000E+00  0.39376903080E+02  0.39376903080E+02  0.00000000000E+00 0.  1.
         21   -1    0    0  501  502 -0.00000000000E+00 -0.00000000000E+00 -0.13042632631E+04  0.13042632631E+04  0.00000000000E+00 0.  1.
      99926    2    1    2    0    0  0.14210854715E-13  0.00000000000E+00 -0.12648863600E+04  0.13436401662E+04  0.45324539977E+03 0.  0.
      99925    2    3    3    0    0  0.10147521122E+03  0.46358768571E+02 -0.79970300157E+03  0.84918145304E+03  0.26294085944E+03 0.  0.
         25    1    4    4    0    0  0.37850164489E+02  0.37440590716E+02 -0.28745426926E+03  0.31798097081E+03  0.12509000000E+03 0.  0.
         25    1    3    3    0    0 -0.10147521122E+03 -0.46358768571E+02 -0.46518335847E+03  0.49445871315E+03  0.12509000000E+03 0.  0.
         25    1    4    4    0    0  0.63625046734E+02  0.89181778546E+01 -0.51224873231E+03  0.53120048223E+03  0.12509000000E+03 0.  0.
<mgrwt>
<rscale>  2 0.45324540E+03</rscale>
<asrwt>0</asrwt>
<pdfrwt beam="1">  1       21 0.57907219E-02 0.45324540E+03</pdfrwt>
<pdfrwt beam="2">  1       21 0.19180339E+00 0.45324540E+03</pdfrwt>
<totfact> 0.28256719E+04</totfact>
</mgrwt>
</event>
<event>
 7    0  0.4709932E-002  0.4583661E+03  0.7546771E-02  0.1025256E+00
         21   -1    0    0  502  501  0.00000000000E+00  0.00000000000E+00  0.24803093101E+03  0.24803093101E+03  0.00000000000E+00 0. -1.
         21   -1    0    0  501  502 -0.00000000000E+00 -0.00000000000E+00 -0.21176742777E+03  0.21176742777E+03  0.00000000000E+00 0. -1.
      99926    2    1    2    0    0  0.00000000000E+00  0.00000000000E+00  0.36263503244E+02  0.45979835877E+03  0.45836610811E+03 0.  0.
      99925    2    3    3    0    0 -0.29922402543E+02 -0.10338739078E+03  0.66929284300E+02  0.29195259334E+03  0.26300662523E+03 0.  0.
         25    1    3    3    0    0  0.29922402543E+02  0.10338739078E+03 -0.30665781056E+02  0.16784576543E+03  0.12509000000E+03 0.  0.
         25    1    4    4    0    0  0.25166454569E+02 -0.48133792307E+02  0.24672080792E+02  0.13858727239E+03  0.12509000000E+03 0.  0.
         25    1    4    4    0    0 -0.55088857112E+02 -0.55253598475E+02  0.42257203508E+02  0.15336532095E+03  0.12509000000E+03 0.  0.
<mgrwt>
<rscale>  2 0.45836611E+03</rscale>
<asrwt>0</asrwt>
<pdfrwt beam="1">  1       21 0.36475137E-01 0.45836611E+03</pdfrwt>
<pdfrwt beam="2">  1       21 0.31142269E-01 0.45836611E+03</pdfrwt>
<totfact> 0.66394552E+04</totfact>
</mgrwt>
</event>
<event>
 7    0  0.4709932E-002  0.4659118E+03  0.7546771E-02  0.1023080E+00
         21   -1    0    0  502  501  0.00000000000E+00  0.00000000000E+00  0.15727540444E+03  0.15727540444E+03  0.00000000000E+00 0. -1.
         21   -1    0    0  501  502 -0.00000000000E+00 -0.00000000000E+00 -0.34505359970E+03  0.34505359970E+03  0.00000000000E+00 0. -1.
      99926    2    1    2    0    0  0.00000000000E+00  0.00000000000E+00 -0.18777819527E+03  0.50232900414E+03  0.46591177038E+03 0.  0.
      99925    2    3    3    0    0 -0.92271461930E+02  0.31379141047E+02 -0.19842866573E+03  0.34339627056E+03  0.26277060352E+03 0.  0.
         25    1    4    4    0    0 -0.64023919101E+02  0.22781335737E+02 -0.14793615389E+03  0.20530627171E+03  0.12509000000E+03 0.  0.
         25    1    4    4    0    0 -0.28247542829E+02  0.85978053106E+01 -0.50492511840E+02  0.13808999886E+03  0.12509000000E+03 0.  0.
         25    1    3    3    0    0  0.92271461930E+02 -0.31379141047E+02  0.10650470464E+02  0.15893273357E+03  0.12509000000E+03 0.  0.
<mgrwt>
<rscale>  2 0.46591177E+03</rscale>
<asrwt>0</asrwt>
<pdfrwt beam="1">  1       21 0.23128736E-01 0.46591177E+03</pdfrwt>
<pdfrwt beam="2">  1       21 0.50743176E-01 0.46591177E+03</pdfrwt>
<totfact> 0.59760579E+04</totfact>
</mgrwt>
</event>
<event>
 7    0  0.4709932E-002  0.4519070E+03  0.7546771E-02  0.1027155E+00
         21   -1    0    0  502  501  0.00000000000E+00  0.00000000000E+00  0.42967060422E+03  0.42967060422E+03  0.00000000000E+00 0.  1.
         21   -1    0    0  501  502 -0.00000000000E+00 -0.00000000000E+00 -0.11882352615E+03  0.11882352615E+03  0.00000000000E+00 0.  1.
      99926    2    1    2    0    0  0.00000000000E+00  0.53290705182E-14  0.31084707807E+03  0.54849413036E+03  0.45190696509E+03 0.  0.
      99925    2    3    3    0    0 -0.70294153183E+02  0.64388049211E+01  0.29892260694E+03  0.40436770221E+03  0.26301290362E+03 0.  0.
         25    1    3    3    0    0  0.70294153183E+02 -0.64388049211E+01  0.11924471131E+02  0.14412642815E+03  0.12509000000E+03 0.  0.
         25    1    4    4    0    0 -0.27850987390E+02 -0.32996041027E+02  0.12120414310E+03  0.17945018425E+03  0.12509000000E+03 0.  0.
         25    1    4    4    0    0 -0.42443165793E+02  0.39434845948E+02  0.17771846383E+03  0.22491751796E+03  0.12509000000E+03 0.  0.
<mgrwt>
<rscale>  2 0.45190697E+03</rscale>
<asrwt>0</asrwt>
<pdfrwt beam="1">  1       21 0.63186853E-01 0.45190697E+03</pdfrwt>
<pdfrwt beam="2">  1       21 0.17474048E-01 0.45190697E+03</pdfrwt>
<totfact> 0.63506078E+04</totfact>
</mgrwt>
</event>
<event>
 7    0  0.4709932E-002  0.4560230E+03  0.7546771E-02  0.1025941E+00
         21   -1    0    0  502  501  0.00000000000E+00  0.00000000000E+00  0.34337308630E+03  0.34337308630E+03  0.00000000000E+00 0.  1.
         21   -1    0    0  501  502 -0.00000000000E+00 -0.00000000000E+00 -0.15140747947E+03  0.15140747947E+03  0.00000000000E+00 0.  1.
      99926    2    1    2    0    0  0.35527136788E-14  0.00000000000E+00  0.19196560683E+03  0.49478056577E+03  0.45602304115E+03 0.  0.
      99925    2    3    3    0    0  0.26279272666E+02  0.72333556753E+02  0.29284487623E+02  0.27561077257E+03  0.26302276164E+03 0.  0.
         25    1    4    4    0    0 -0.52089874034E+01  0.63223082849E+02 -0.95803651345E+01  0.14058301196E+03  0.12509000000E+03 0.  0.
         25    1    3    3    0    0 -0.26279272666E+02 -0.72333556753E+02  0.16268111921E+03  0.21916979320E+03  0.12509000000E+03 0.  0.
         25    1    4    4    0    0  0.31488260069E+02  0.91104739033E+01  0.38864852757E+02  0.13502776062E+03  0.12509000000E+03 0.  0.
<mgrwt>
<rscale>  2 0.45602304E+03</rscale>
<asrwt>0</asrwt>
<pdfrwt beam="1">  1       21 0.50496042E-01 0.45602304E+03</pdfrwt>
<pdfrwt beam="2">  1       21 0.22265806E-01 0.45602304E+03</pdfrwt>
<totfact> 0.65108527E+04</totfact>
</mgrwt>
</event>
<event>
 7    0  0.4709932E-002  0.4546987E+03  0.7546771E-02  0.1026330E+00
         21   -1    0    0  502  501  0.00000000000E+00  0.00000000000E+00  0.11352471422E+03  0.11352471422E+03  0.00000000000E+00 0. -1.
         21   -1    0    0  501  502 -0.00000000000E+00 -0.00000000000E+00 -0.45529933713E+03  0.45529933713E+03  0.00000000000E+00 0. -1.
      99926    2    1    2    0    0  0.17763568394E-14  0.00000000000E+00 -0.34177462290E+03  0.56882405135E+03  0.45469870083E+03 0.  0.
      99925    2    3    3    0    0 -0.87473869200E+01  0.78252613689E+02 -0.11377725539E+03  0.29710674233E+03  0.26292045217E+03 0.  0.
         25    1    3    3    0    0  0.87473869200E+01 -0.78252613689E+02 -0.22799736751E+03  0.27171730902E+03  0.12509000000E+03 0.  0.
         25    1    4    4    0    0 -0.35323525191E+02  0.15179736089E+02 -0.67141071964E+02  0.14708367504E+03  0.12509000000E+03 0.  0.
         25    1    4    4    0    0  0.26576138271E+02  0.63072877600E+02 -0.46636183426E+02  0.15002306729E+03  0.12509000000E+03 0.  0.
<mgrwt>
<rscale>  2 0.45469870E+03</rscale>
<asrwt>0</asrwt>
<pdfrwt beam="1">  1       21 0.16694811E-01 0.45469870E+03</pdfrwt>
<pdfrwt beam="2">  1       21 0.66955784E-01 0.45469870E+03</pdfrwt>
<totfact> 0.60784175E+04</totfact>
</mgrwt>
</event>
<event>
 7    0  0.4709932E-002  0.4615726E+03  0.7546771E-02  0.1024326E+00
         21   -1    0    0  502  501  0.00000000000E+00  0.00000000000E+00  0.74318656978E+03  0.74318656978E+03  0.00000000000E+00 0.  1.
         21   -1    0    0  501  502 -0.00000000000E+00 -0.00000000000E+00 -0.71667492712E+02  0.71667492712E+02  0.00000000000E+00 0.  1.
      99926    2    1    2    0    0  0.00000000000E+00  0.00000000000E+00  0.67151907707E+03  0.81485406249E+03  0.46157260782E+03 0.  0.
      99925    2    3    3    0    0 -0.50664131322E+02  0.23226256746E+02  0.23396537650E+03  0.35637062529E+03  0.26297131396E+03 0.  0.
         25    1    4    4    0    0 -0.21075629662E+02  0.28657015592E+02  0.16596515944E+03  0.21084911419E+03  0.12509000000E+03 0.  0.
         25    1    3    3    0    0  0.50664131322E+02 -0.23226256746E+02  0.43755370057E+03  0.45848343720E+03  0.12509000000E+03 0.  0.
         25    1    4    4    0    0 -0.29588501660E+02 -0.54307588456E+01  0.68000217059E+02  0.14552151110E+03  0.12509000000E+03 0.  0.
<mgrwt>
<rscale>  2 0.46157261E+03</rscale>
<asrwt>0</asrwt>
<pdfrwt beam="1">  1       21 0.10929214E+00 0.46157261E+03</pdfrwt>
<pdfrwt beam="2">  1       21 0.10539338E-01 0.46157261E+03</pdfrwt>
<totfact> 0.44704122E+04</totfact>
</mgrwt>
</event>
<event>
 7    0  0.4709932E-002  0.4456920E+03  0.7546771E-02  0.1029015E+00
         21   -1    0    0  502  501  0.00000000000E+00  0.00000000000E+00  0.91677222950E+02  0.91677222950E+02  0.00000000000E+00 0. -1.
         21   -1    0    0  501  502 -0.00000000000E+00 -0.00000000000E+00 -0.54168667060E+03  0.54168667060E+03  0.00000000000E+00 0. -1.
      99926    2    1    2    0    0  0.17763568394E-14  0.00000000000E+00 -0.45000944765E+03  0.63336389355E+03  0.44569195492E+03 0.  0.
      99925    2    3    3    0    0  0.10847311447E+02  0.84376675379E+02 -0.20032498516E+03  0.34142738261E+03  0.26306932622E+03 0.  0.
         25    1    4    4    0    0 -0.29289027358E+02  0.62696387393E+02 -0.11263993039E+03  0.18199985202E+03  0.12509000000E+03 0.  0.
         25    1    4    4    0    0  0.40136338805E+02  0.21680287986E+02 -0.87685054775E+02  0.15942753059E+03  0.12509000000E+03 0.  0.
         25    1    3    3    0    0 -0.10847311447E+02 -0.84376675379E+02 -0.24968446248E+03  0.29193651094E+03  0.12509000000E+03 0.  0.
<mgrwt>
<rscale>  2 0.44569195E+03</rscale>
<asrwt>0</asrwt>
<pdfrwt beam="1">  1       21 0.13481945E-01 0.44569195E+03</pdfrwt>
<pdfrwt beam="2">  1       21 0.79659803E-01 0.44569195E+03</pdfrwt>
<totfact> 0.61031876E+04</totfact>
</mgrwt>
</event>
<event>
 7    0  0.4709932E-002  0.4539368E+03  0.7546771E-02  0.1026555E+00
         21   -1    0    0  502  501  0.00000000000E+00  0.00000000000E+00  0.32475649166E+03  0.32475649166E+03  0.00000000000E+00 0.  1.
         21   -1    0    0  501  502 -0.00000000000E+00 -0.00000000000E+00 -0.15862550395E+03  0.15862550395E+03  0.00000000000E+00 0.  1.
      99926    2    1    2    0    0  0.00000000000E+00  0.00000000000E+00  0.16613098771E+03  0.48338199561E+03  0.45393683327E+03 0.  0.
      99925    2    3    3    0    0 -0.17225763951E+02 -0.10819556884E+03  0.12993294840E+03  0.31320322428E+03  0.26307922868E+03 0.  0.
         25    1    3    3    0    0  0.17225763951E+02  0.10819556884E+03  0.36198039309E+02  0.17017877133E+03  0.12509000000E+03 0.  0.
         25    1    4    4    0    0 -0.15586214605E+02 -0.47199123429E+02  0.10742536087E+03  0.17221615370E+03  0.12509000000E+03 0.  0.
         25    1    4    4    0    0 -0.16395493458E+01 -0.60996445410E+02  0.22507587537E+02  0.14098707058E+03  0.12509000000E+03 0.  0.
<mgrwt>
<rscale>  2 0.45393683E+03</rscale>
<asrwt>0</asrwt>
<pdfrwt beam="1">  1       21 0.47758308E-01 0.45393683E+03</pdfrwt>
<pdfrwt beam="2">  1       21 0.23327280E-01 0.45393683E+03</pdfrwt>
<totfact> 0.67018562E+04</totfact>
</mgrwt>
</event>
<event>
 7    0  0.4709932E-002  0.4537466E+03  0.7546771E-02  0.1026611E+00
         21   -1    0    0  502  501  0.00000000000E+00  0.00000000000E+00  0.16170053271E+03  0.16170053271E+03  0.00000000000E+00 0.  1.
         21   -1    0    0  501  502 -0.00000000000E+00 -0.00000000000E+00 -0.31831363211E+03  0.31831363211E+03  0.00000000000E+00 0.  1.
      99926    2    1    2    0    0  0.00000000000E+00  0.00000000000E+00 -0.15661309940E+03  0.48001416482E+03  0.45374655429E+03 0.  0.
      99925    2    3    3    0    0  0.40714753339E+02 -0.21538177110E+02 -0.20674370359E+03  0.33759868186E+03  0.26288462641E+03 0.  0.
         25    1    4    4    0    0 -0.62315566842E+01 -0.48479554163E+01 -0.13797813078E+03  0.18640763838E+03  0.12509000000E+03 0.  0.
         25    1    4    4    0    0  0.46946310023E+02 -0.16690221693E+02 -0.68765572806E+02  0.15119104348E+03  0.12509000000E+03 0.  0.
         25    1    3    3    0    0 -0.40714753339E+02  0.21538177110E+02  0.50130604188E+02  0.14241548297E+03  0.12509000000E+03 0.  0.
<mgrwt>
<rscale>  2 0.45374655E+03</rscale>
<asrwt>0</asrwt>
<pdfrwt beam="1">  1       21 0.23779491E-01 0.45374655E+03</pdfrwt>
<pdfrwt beam="2">  1       21 0.46810827E-01 0.45374655E+03</pdfrwt>
<totfact> 0.67366834E+04</totfact>
</mgrwt>
</event>
<event>
 7    0  0.4709932E-002  0.4522156E+03  0.7546771E-02  0.1027063E+00
         21   -1    0    0  502  501  0.00000000000E+00  0.00000000000E+00  0.28936093145E+03  0.28936093145E+03  0.00000000000E+00 0.  1.
         21   -1    0    0  501  502 -0.00000000000E+00 -0.00000000000E+00 -0.17668158108E+03  0.17668158108E+03  0.00000000000E+00 0.  1.
      99926    2    1    2    0    0  0.00000000000E+00  0.00000000000E+00  0.11267935038E+03  0.46604251253E+03  0.45221564268E+03 0.  0.
      99925    2    3    3    0    0 -0.79122773323E+02  0.66829138189E+02  0.32858971113E+02  0.28508575522E+03  0.26356712404E+03 0.  0.
         25    1    4    4    0    0 -0.20666991600E+02  0.33002622333E+02 -0.21742536971E+02  0.13280264921E+03  0.12509000000E+03 0.  0.
         25    1    4    4    0    0 -0.58455781722E+02  0.33826515855E+02  0.54601508083E+02  0.15228310601E+03  0.12509000000E+03 0.  0.
         25    1    3    3    0    0  0.79122773323E+02 -0.66829138189E+02  0.79820379263E+02  0.18095675731E+03  0.12509000000E+03 0.  0.
<mgrwt>
<rscale>  2 0.45221564E+03</rscale>
<asrwt>0</asrwt>
<pdfrwt beam="1">  1       21 0.42553079E-01 0.45221564E+03</pdfrwt>
<pdfrwt beam="2">  1       21 0.25982585E-01 0.45221564E+03</pdfrwt>
<totfact> 0.69248151E+04</totfact>
</mgrwt>
</event>
<event>
 7    0  0.4709932E-002  0.4430969E+03  0.7546771E-02  0.1029801E+00
         21   -1    0    0  502  501  0.00000000000E+00  0.00000000000E+00  0.61301886797E+02  0.61301886797E+02  0.00000000000E+00 0. -1.
         21   -1    0    0  501  502 -0.00000000000E+00 -0.00000000000E+00 -0.80068836557E+03  0.80068836557E+03  0.00000000000E+00 0. -1.
      99926    2    1    2    0    0  0.00000000000E+00  0.00000000000E+00 -0.73938647878E+03  0.86199025237E+03  0.44309686321E+03 0.  0.
      99925    2    3    3    0    0  0.90711665331E+02  0.43185707723E+02 -0.44104950883E+03  0.52324836344E+03  0.26300298292E+03 0.  0.
         25    1    3    3    0    0 -0.90711665331E+02 -0.43185707723E+02 -0.29833696995E+03  0.33874188893E+03  0.12509000000E+03 0.  0.
         25    1    4    4    0    0  0.34931776539E+02  0.36005824843E+02 -0.15094619763E+03  0.20235837298E+03  0.12509000000E+03 0.  0.
         25    1    4    4    0    0  0.55779888793E+02  0.71798828803E+01 -0.29010331120E+03  0.32088999046E+03  0.12509000000E+03 0.  0.
<mgrwt>
<rscale>  2 0.44309686E+03</rscale>
<asrwt>0</asrwt>
<pdfrwt beam="1">  1       21 0.90149840E-02 0.44309686E+03</pdfrwt>
<pdfrwt beam="2">  1       21 0.11774828E+00 0.44309686E+03</pdfrwt>
<totfact> 0.49356545E+04</totfact>
</mgrwt>
</event>
<event>
 7    0  0.4709932E-002  0.4629385E+03  0.7546771E-02  0.1023932E+00
         21   -1    0    0  502  501  0.00000000000E+00  0.00000000000E+00  0.25889292156E+02  0.25889292156E+02  0.00000000000E+00 0.  1.
         21   -1    0    0  501  502 -0.00000000000E+00 -0.00000000000E+00 -0.20695051860E+04  0.20695051860E+04  0.00000000000E+00 0.  1.
      99926    2    1    2    0    0  0.00000000000E+00  0.00000000000E+00 -0.20436158938E+04  0.20953944782E+04  0.46293854615E+03 0.  0.
      99925    2    3    3    0    0 -0.18535911852E+02  0.11765337789E+03 -0.13582282849E+04  0.13885779673E+04  0.26301863080E+03 0.  0.
         25    1    4    4    0    0 -0.50024542865E+01  0.46932463029E+02 -0.84213984818E+03  0.85268676114E+03  0.12509000000E+03 0.  0.
         25    1    4    4    0    0 -0.13533457566E+02  0.70720914857E+02 -0.51608843668E+03  0.53589120616E+03  0.12509000000E+03 0.  0.
         25    1    3    3    0    0  0.18535911852E+02 -0.11765337789E+03 -0.68538760898E+03  0.70681651085E+03  0.12509000000E+03 0.  0.
<mgrwt>
<rscale>  2 0.46293855E+03</rscale>
<asrwt>0</asrwt>
<pdfrwt beam="1">  1       21 0.38072472E-02 0.46293855E+03</pdfrwt>
<pdfrwt beam="2">  1       21 0.30433913E+00 0.46293855E+03</pdfrwt>
<totfact> 0.11489503E+04</totfact>
</mgrwt>
</event>
<event>
 7    0  0.4709932E-002  0.4599582E+03  0.7546771E-02  0.1024793E+00
         21   -1    0    0  502  501  0.00000000000E+00  0.00000000000E+00  0.22593436448E+04  0.22593436448E+04  0.00000000000E+00 0. -1.
         21   -1    0    0  501  502 -0.00000000000E+00 -0.00000000000E+00 -0.23409627671E+02  0.23409627671E+02  0.00000000000E+00 0. -1.
      99926    2    1    2    0    0  0.00000000000E+00 -0.44408920985E-15  0.22359340171E+04  0.22827532725E+04  0.45995823074E+03 0.  0.
      99925    2    3    3    0    0 -0.92828639446E+02 -0.38682729653E+01  0.17614637361E+04  0.17833519553E+04  0.26259775953E+03 0.  0.
         25    1    4    4    0    0 -0.22982071217E+02 -0.14930639243E+02  0.10279555571E+04  0.10359011705E+04  0.12509000000E+03 0.  0.
         25    1    3    3    0    0  0.92828639446E+02  0.38682729653E+01  0.47447028104E+03  0.49940131711E+03  0.12509000000E+03 0.  0.
         25    1    4    4    0    0 -0.69846568229E+02  0.11062366278E+02  0.73350817896E+03  0.74745078483E+03  0.12509000000E+03 0.  0.
<mgrwt>
<rscale>  2 0.45995823E+03</rscale>
<asrwt>0</asrwt>
<pdfrwt beam="1">  1       21 0.33225627E+00 0.45995823E+03</pdfrwt>
<pdfrwt beam="2">  1       21 0.34425938E-02 0.45995823E+03</pdfrwt>
<totfact> 0.92564741E+03</totfact>
</mgrwt>
</event>
<event>
 7    0  0.4709932E-002  0.4392831E+03  0.7546771E-02  0.1030967E+00
         21   -1    0    0  502  501  0.00000000000E+00  0.00000000000E+00  0.12762468488E+03  0.12762468488E+03  0.00000000000E+00 0.  1.
         21   -1    0    0  501  502 -0.00000000000E+00 -0.00000000000E+00 -0.37800222426E+03  0.37800222426E+03  0.00000000000E+00 0.  1.
      99926    2    1    2    0    0  0.00000000000E+00  0.00000000000E+00 -0.25037753939E+03  0.50562690914E+03  0.43928311943E+03 0.  0.
      99925    2    3    3    0    0  0.46946377570E+02 -0.85461245969E+02 -0.16667502711E+03  0.32629145366E+03  0.26301703584E+03 0.  0.
         25    1    4    4    0    0  0.42148423673E+02 -0.80581624913E+02 -0.10247402737E+03  0.18552175688E+03  0.12509000000E+03 0.  0.
         25    1    3    3    0    0 -0.46946377570E+02  0.85461245969E+02 -0.83702512280E+02  0.17933545548E+03  0.12509000000E+03 0.  0.
         25    1    4    4    0    0  0.47979538974E+01 -0.48796210568E+01 -0.64200999738E+02  0.14076969678E+03  0.12509000000E+03 0.  0.
<mgrwt>
<rscale>  2 0.43928312E+03</rscale>
<asrwt>0</asrwt>
<pdfrwt beam="1">  1       21 0.18768336E-01 0.43928312E+03</pdfrwt>
<pdfrwt beam="2">  1       21 0.55588562E-01 0.43928312E+03</pdfrwt>
<totfact> 0.73641590E+04</totfact>
</mgrwt>
</event>
<event>
 7    0  0.4709932E-002  0.4490951E+03  0.7546771E-02  0.1027992E+00
         21   -1    0    0  502  501  0.00000000000E+00  0.00000000000E+00  0.55273452656E+02  0.55273452656E+02  0.00000000000E+00 0. -1.
         21   -1    0    0  501  502 -0.00000000000E+00 -0.00000000000E+00 -0.91222083546E+03  0.91222083546E+03  0.00000000000E+00 0. -1.
      99926    2    1    2    0    0  0.00000000000E+00  0.00000000000E+00 -0.85694738280E+03  0.96749428812E+03  0.44909506860E+03 0.  0.
      99925    2    3    3    0    0  0.27324163622E+02  0.10052122187E+03 -0.48493551313E+03  0.56142598691E+03  0.26303148276E+03 0.  0.
         25    1    3    3    0    0 -0.27324163622E+02 -0.10052122187E+03 -0.37201186968E+03  0.40606830121E+03  0.12509000000E+03 0.  0.
         25    1    4    4    0    0 -0.21242813603E+02  0.35271975503E+02 -0.19426419130E+03  0.23469438320E+03  0.12509000000E+03 0.  0.
         25    1    4    4    0    0  0.48566977225E+02  0.65249246369E+02 -0.29067132182E+03  0.32673160371E+03  0.12509000000E+03 0.  0.
<mgrwt>
<rscale>  2 0.44909507E+03</rscale>
<asrwt>0</asrwt>
<pdfrwt beam="1">  1       21 0.81284488E-02 0.44909507E+03</pdfrwt>
<pdfrwt beam="2">  1       21 0.13415012E+00 0.44909507E+03</pdfrwt>
<totfact> 0.42362571E+04</totfact>
</mgrwt>
</event>
<event>
 7    0  0.4709932E-002  0.4444793E+03  0.7546771E-02  0.1029381E+00
         21   -1    0    0  502  501  0.00000000000E+00  0.00000000000E+00  0.26432749522E+03  0.26432749522E+03  0.00000000000E+00 0.  1.
         21   -1    0    0  501  502 -0.00000000000E+00 -0.00000000000E+00 -0.18685328529E+03  0.18685328529E+03  0.00000000000E+00 0.  1.
      99926    2    1    2    0    0  0.00000000000E+00  0.00000000000E+00  0.77474209932E+02  0.45118078050E+03  0.44447929478E+03 0.  0.
      99925    2    3    3    0    0 -0.27740667513E+02  0.99107318171E+02  0.53004562999E+02  0.28735747059E+03  0.26300765589E+03 0.  0.
         25    1    3    3    0    0  0.27740667513E+02 -0.99107318171E+02  0.24469646933E+02  0.16382330991E+03  0.12509000000E+03 0.  0.
         25    1    4    4    0    0  0.60380681202E+01  0.58057413688E+02 -0.82280904424E+01  0.13828351718E+03  0.12509000000E+03 0.  0.
         25    1    4    4    0    0 -0.33778735633E+02  0.41049904484E+02  0.61232653441E+02  0.14907395341E+03  0.12509000000E+03 0.  0.
<mgrwt>
<rscale>  2 0.44447929E+03</rscale>
<asrwt>0</asrwt>
<pdfrwt beam="1">  1       21 0.38871690E-01 0.44447929E+03</pdfrwt>
<pdfrwt beam="2">  1       21 0.27478424E-01 0.44447929E+03</pdfrwt>
<totfact> 0.74918789E+04</totfact>
</mgrwt>
</event>
<event>
 7    0  0.4709932E-002  0.4590250E+03  0.7546771E-02  0.1025064E+00
         21   -1    0    0  502  501  0.00000000000E+00  0.00000000000E+00  0.24957360759E+03  0.24957360759E+03  0.00000000000E+00 0.  1.
         21   -1    0    0  501  502 -0.00000000000E+00 -0.00000000000E+00 -0.21106396021E+03  0.21106396021E+03  0.00000000000E+00 0.  1.
      99926    2    1    2    0    0  0.00000000000E+00 -0.14210854715E-13  0.38509647382E+02  0.46063756781E+03  0.45902502757E+03 0.  0.
      99925    2    3    3    0    0  0.54863384642E+02  0.10317388123E+03  0.22467414475E+02  0.28870821581E+03  0.26304525927E+03 0.  0.
         25    1    3    3    0    0 -0.54863384642E+02 -0.10317388123E+03  0.16042232907E+02  0.17192935200E+03  0.12509000000E+03 0.  0.
         25    1    4    4    0    0  0.66242407456E+02  0.69528930584E+02  0.85940446217E+01  0.15793572882E+03  0.12509000000E+03 0.  0.
         25    1    4    4    0    0 -0.11379022814E+02  0.33644950642E+02  0.13873369853E+02  0.13077248700E+03  0.12509000000E+03 0.  0.
<mgrwt>
<rscale>  2 0.45902503E+03</rscale>
<asrwt>0</asrwt>
<pdfrwt beam="1">  1       21 0.36702001E-01 0.45902503E+03</pdfrwt>
<pdfrwt beam="2">  1       21 0.31038818E-01 0.45902503E+03</pdfrwt>
<totfact> 0.65989947E+04</totfact>
</mgrwt>
</event>
<event>
 7    0  0.4709932E-002  0.4532374E+03  0.7546771E-02  0.1026761E+00
         21   -1    0    0  502  501  0.00000000000E+00  0.00000000000E+00  0.20615057145E+03  0.20615057145E+03  0.00000000000E+00 0.  1.
         21   -1    0    0  501  502 -0.00000000000E+00 -0.00000000000E+00 -0.24911906771E+03  0.24911906771E+03  0.00000000000E+00 0.  1.
      99926    2    1    2    0    0  0.00000000000E+00 -0.71054273576E-14 -0.42968496262E+02  0.45526963916E+03  0.45323741314E+03 0.  0.
      99925    2    3    3    0    0 -0.78925328445E+02 -0.42158794751E+02  0.39773437377E+02  0.28062626789E+03  0.26298784090E+03 0.  0.
         25    1    4    4    0    0 -0.36413404193E+02 -0.60568069274E+02  0.30761603602E+02  0.14692927338E+03  0.12509000000E+03 0.  0.
         25    1    3    3    0    0  0.78925328445E+02  0.42158794751E+02 -0.82741933639E+02  0.17464337127E+03  0.12509000000E+03 0.  0.
         25    1    4    4    0    0 -0.42511924253E+02  0.18409274523E+02  0.90118337745E+01  0.13369699451E+03  0.12509000000E+03 0.  0.
<mgrwt>
<rscale>  2 0.45323741E+03</rscale>
<asrwt>0</asrwt>
<pdfrwt beam="1">  1       21 0.30316261E-01 0.45323741E+03</pdfrwt>
<pdfrwt beam="2">  1       21 0.36635157E-01 0.45323741E+03</pdfrwt>
<totfact> 0.69498272E+04</totfact>
</mgrwt>
</event>
<event>
 7    0  0.4709932E-002  0.4743959E+03  0.7546771E-02  0.1020687E+00
         21   -1    0    0  502  501  0.00000000000E+00  0.00000000000E+00  0.10393374695E+04  0.10393374695E+04  0.00000000000E+00 0. -1.
         21   -1    0    0  501  502 -0.00000000000E+00 -0.00000000000E+00 -0.54133386719E+02  0.54133386719E+02  0.00000000000E+00 0. -1.
      99926    2    1    2    0    0  0.00000000000E+00  0.00000000000E+00  0.98520408282E+03  0.10934708563E+04  0.47439585652E+03 0.  0.
      99925    2    3    3    0    0 -0.67906520047E+02  0.48277058973E+02  0.37828605973E+03  0.46821973491E+03  0.26303499252E+03 0.  0.
         25    1    3    3    0    0  0.67906520047E+02 -0.48277058973E+02  0.60691802310E+03  0.62525112135E+03  0.12509000000E+03 0.  0.
         25    1    4    4    0    0 -0.23676069087E+02  0.29128843905E+02  0.25306633194E+03  0.28477907622E+03  0.12509000000E+03 0.  0.
         25    1    4    4    0    0 -0.44230450959E+02  0.19148215069E+02  0.12521972779E+03  0.18344065869E+03  0.12509000000E+03 0.  0.
<mgrwt>
<rscale>  2 0.47439586E+03</rscale>
<asrwt>0</asrwt>
<pdfrwt beam="1">  1       21 0.15284373E+00 0.47439586E+03</pdfrwt>
<pdfrwt beam="2">  1       21 0.79607928E-02 0.47439586E+03</pdfrwt>
<totfact> 0.30791363E+04</totfact>
</mgrwt>
</event>
<event>
 7    0  0.4709932E-002  0.4545860E+03  0.7546771E-02  0.1026363E+00
         21   -1    0    0  502  501  0.00000000000E+00  0.00000000000E+00  0.63605680738E+02  0.63605680738E+02  0.00000000000E+00 0. -1.
         21   -1    0    0  501  502 -0.00000000000E+00 -0.00000000000E+00 -0.81222458370E+03  0.81222458370E+03  0.00000000000E+00 0. -1.
      99926    2    1    2    0    0  0.00000000000E+00 -0.14210854715E-13 -0.74861890296E+03  0.87583026443E+03  0.45458595472E+03 0.  0.
      99925    2    3    3    0    0  0.67154133239E+02  0.89959747459E+02 -0.45003722103E+03  0.53319202568E+03  0.26297871047E+03 0.  0.
         25    1    4    4    0    0  0.46275927336E+02  0.74804513670E+02 -0.19361546171E+03  0.24672177008E+03  0.12509000000E+03 0.  0.
         25    1    3    3    0    0 -0.67154133239E+02 -0.89959747459E+02 -0.29858168193E+03  0.34263823876E+03  0.12509000000E+03 0.  0.
         25    1    4    4    0    0  0.20878205903E+02  0.15155233789E+02 -0.25642175932E+03  0.28647025560E+03  0.12509000000E+03 0.  0.
<mgrwt>
<rscale>  2 0.45458595E+03</rscale>
<asrwt>0</asrwt>
<pdfrwt beam="1">  1       21 0.93537774E-02 0.45458595E+03</pdfrwt>
<pdfrwt beam="2">  1       21 0.11944478E+00 0.45458595E+03</pdfrwt>
<totfact> 0.44439179E+04</totfact>
</mgrwt>
</event>
<event>
 7    0  0.4709932E-002  0.4603779E+03  0.7546771E-02  0.1024672E+00
         21   -1    0    0  502  501  0.00000000000E+00  0.00000000000E+00  0.47527017577E+02  0.47527017577E+02  0.00000000000E+00 0.  1.
         21   -1    0    0  501  502 -0.00000000000E+00 -0.00000000000E+00 -0.11148808712E+04  0.11148808712E+04  0.00000000000E+00 0.  1.
      99926    2    1    2    0    0  0.00000000000E+00 -0.88817841970E-15 -0.10673538537E+04  0.11624078888E+04  0.46037794371E+03 0.  0.
      99925    2    3    3    0    0  0.10211126966E+03 -0.63456205116E+01 -0.81771978394E+03  0.86503328473E+03  0.26296380044E+03 0.  0.
         25    1    4    4    0    0  0.24416723566E+02  0.11611492140E+02 -0.29264108664E+03  0.31940149785E+03  0.12509000000E+03 0.  0.
         25    1    3    3    0    0 -0.10211126966E+03  0.63456205116E+01 -0.24963406972E+03  0.29737460409E+03  0.12509000000E+03 0.  0.
         25    1    4    4    0    0  0.77694546099E+02 -0.17957112652E+02 -0.52507869730E+03  0.54563178687E+03  0.12509000000E+03 0.  0.
<mgrwt>
<rscale>  2 0.46037794E+03</rscale>
<asrwt>0</asrwt>
<pdfrwt beam="1">  1       21 0.69892663E-02 0.46037794E+03</pdfrwt>
<pdfrwt beam="2">  1       21 0.16395309E+00 0.46037794E+03</pdfrwt>
<totfact> 0.32008163E+04</totfact>
</mgrwt>
</event>
<event>
 7    0  0.4709932E-002  0.4548051E+03  0.7546771E-02  0.1026299E+00
         21   -1    0    0  502  501  0.00000000000E+00  0.00000000000E+00  0.46653452000E+02  0.46653452000E+02  0.00000000000E+00 0. -1.
         21   -1    0    0  501  502 -0.00000000000E+00 -0.00000000000E+00 -0.11084262905E+04  0.11084262905E+04  0.00000000000E+00 0. -1.
      99926    2    1    2    0    0  0.00000000000E+00  0.35527136788E-14 -0.10617728385E+04  0.11550797425E+04  0.45480506918E+03 0.  0.
      99925    2    3    3    0    0  0.10294908221E+03 -0.29251871166E+02 -0.57339716727E+03  0.63970367607E+03  0.26264481006E+03 0.  0.
         25    1    4    4    0    0  0.26611195300E+02  0.14753279774E+02 -0.29883994559E+03  0.32538997550E+03  0.12509000000E+03 0.  0.
         25    1    4    4    0    0  0.76337886910E+02 -0.44005150940E+02 -0.27455722168E+03  0.31431370057E+03  0.12509000000E+03 0.  0.
         25    1    3    3    0    0 -0.10294908221E+03  0.29251871166E+02 -0.48837567119E+03  0.51537606638E+03  0.12509000000E+03 0.  0.
<mgrwt>
<rscale>  2 0.45480507E+03</rscale>
<asrwt>0</asrwt>
<pdfrwt beam="1">  1       21 0.68608024E-02 0.45480507E+03</pdfrwt>
<pdfrwt beam="2">  1       21 0.16300385E+00 0.45480507E+03</pdfrwt>
<totfact> 0.33664330E+04</totfact>
</mgrwt>
</event>
<event>
 7    0  0.4709932E-002  0.4563734E+03  0.7546771E-02  0.1025838E+00
         21   -1    0    0  502  501  0.00000000000E+00  0.00000000000E+00  0.16092411119E+04  0.16092411119E+04  0.00000000000E+00 0.  1.
         21   -1    0    0  501  502 -0.00000000000E+00 -0.00000000000E+00 -0.32356357077E+02  0.32356357077E+02  0.00000000000E+00 0.  1.
      99926    2    1    2    0    0  0.00000000000E+00  0.17763568394E-14  0.15768847548E+04  0.16415974689E+04  0.45637344374E+03 0.  0.
      99925    2    3    3    0    0 -0.94493144436E+02 -0.11611036748E+02  0.12196475929E+04  0.12513031333E+04  0.26297435228E+03 0.  0.
         25    1    3    3    0    0  0.94493144436E+02  0.11611036748E+02  0.35723716187E+03  0.39029433565E+03  0.12509000000E+03 0.  0.
         25    1    4    4    0    0 -0.59152103304E+01  0.24264975053E+01  0.58486576124E+03  0.59812736467E+03  0.12509000000E+03 0.  0.
         25    1    4    4    0    0 -0.88577934106E+02 -0.14037534254E+02  0.63478183168E+03  0.65317576861E+03  0.12509000000E+03 0.  0.
<mgrwt>
<rscale>  2 0.45637344E+03</rscale>
<asrwt>0</asrwt>
<pdfrwt beam="1">  1       21 0.23665305E+00 0.45637344E+03</pdfrwt>
<pdfrwt beam="2">  1       21 0.47582889E-02 0.45637344E+03</pdfrwt>
<totfact> 0.20288670E+04</totfact>
</mgrwt>
</event>
<event>
 7    0  0.4709932E-002  0.4576418E+03  0.7546771E-02  0.1025467E+00
         21   -1    0    0  502  501  0.00000000000E+00  0.00000000000E+00  0.83774458519E+02  0.83774458519E+02  0.00000000000E+00 0. -1.
         21   -1    0    0  501  502 -0.00000000000E+00 -0.00000000000E+00 -0.62499967319E+03  0.62499967319E+03  0.00000000000E+00 0. -1.
      99926    2    1    2    0    0  0.71054273576E-14 -0.17763568394E-14 -0.54122521467E+03  0.70877413171E+03  0.45764182150E+03 0.  0.
      99925    2    3    3    0    0  0.40063870247E+02  0.13862080475E+02 -0.17300960571E+03  0.31758681883E+03  0.26292925446E+03 0.  0.
         25    1    4    4    0    0  0.47648017866E+02 -0.28664428955E+01 -0.12239093263E+03  0.18139900383E+03  0.12509000000E+03 0.  0.
         25    1    4    4    0    0 -0.75841476187E+01  0.16728523370E+02 -0.50618673079E+02  0.13618781500E+03  0.12509000000E+03 0.  0.
         25    1    3    3    0    0 -0.40063870247E+02 -0.13862080475E+02 -0.36821560896E+03  0.39118731288E+03  0.12509000000E+03 0.  0.
<mgrwt>
<rscale>  2 0.45764182E+03</rscale>
<asrwt>0</asrwt>
<pdfrwt beam="1">  1       21 0.12319773E-01 0.45764182E+03</pdfrwt>
<pdfrwt beam="2">  1       21 0.91911721E-01 0.45764182E+03</pdfrwt>
<totfact> 0.51353397E+04</totfact>
</mgrwt>
</event>
<event>
 7    0  0.4709932E-002  0.4486909E+03  0.7546771E-02  0.1028113E+00
         21   -1    0    0  502  501  0.00000000000E+00  0.00000000000E+00  0.24585780489E+03  0.24585780489E+03  0.00000000000E+00 0. -1.
         21   -1    0    0  501  502 -0.00000000000E+00 -0.00000000000E+00 -0.20471540597E+03  0.20471540597E+03  0.00000000000E+00 0. -1.
      99926    2    1    2    0    0 -0.35527136788E-14  0.00000000000E+00  0.41142398914E+02  0.45057321086E+03  0.44869089734E+03 0.  0.
      99925    2    3    3    0    0 -0.30633710399E+02  0.10221915887E+03  0.34177868673E+02  0.28600348875E+03  0.26314005438E+03 0.  0.
         25    1    4    4    0    0 -0.51351213897E+02  0.64413554111E+02  0.34466959346E+02  0.15369298132E+03  0.12509000000E+03 0.  0.
         25    1    3    3    0    0  0.30633710399E+02 -0.10221915887E+03  0.69645302409E+01  0.16456972211E+03  0.12509000000E+03 0.  0.
         25    1    4    4    0    0  0.20717503498E+02  0.37805604757E+02 -0.28909067323E+00  0.13231050743E+03  0.12509000000E+03 0.  0.
<mgrwt>
<rscale>  2 0.44869090E+03</rscale>
<asrwt>0</asrwt>
<pdfrwt beam="1">  1       21 0.36155560E-01 0.44869090E+03</pdfrwt>
<pdfrwt beam="2">  1       21 0.30105207E-01 0.44869090E+03</pdfrwt>
<totfact> 0.72450216E+04</totfact>
</mgrwt>
</event>
<event>
 7    0  0.4709932E-002  0.4547935E+03  0.7546771E-02  0.1026302E+00
         21   -1    0    0  502  501  0.00000000000E+00  0.00000000000E+00  0.12968245592E+04  0.12968245592E+04  0.00000000000E+00 0. -1.
         21   -1    0    0  501  502 -0.00000000000E+00 -0.00000000000E+00 -0.39873763240E+02  0.39873763240E+02  0.00000000000E+00 0. -1.
      99926    2    1    2    0    0  0.00000000000E+00  0.00000000000E+00  0.12569507960E+04  0.13366983224E+04  0.45479347153E+03 0.  0.
      99925    2    3    3    0    0 -0.97227749105E+02  0.29840854382E+02  0.64652997569E+03  0.70534675817E+03  0.26300062359E+03 0.  0.
         25    1    4    4    0    0 -0.55028763703E+02  0.21518402577E+02  0.42900702490E+03  0.45076129159E+03  0.12509000000E+03 0.  0.
         25    1    3    3    0    0  0.97227749105E+02 -0.29840854382E+02  0.61042082026E+03  0.63135156426E+03  0.12509000000E+03 0.  0.
         25    1    4    4    0    0 -0.42198985402E+02  0.83224518047E+01  0.21752295080E+03  0.25458546658E+03  0.12509000000E+03 0.  0.
<mgrwt>
<rscale>  2 0.45479347E+03</rscale>
<asrwt>0</asrwt>
<pdfrwt beam="1">  1       21 0.19070947E+00 0.45479347E+03</pdfrwt>
<pdfrwt beam="2">  1       21 0.58637895E-02 0.45479347E+03</pdfrwt>
<totfact> 0.28112422E+04</totfact>
</mgrwt>
</event>
<event>
 7    0  0.4709932E-002  0.4452602E+03  0.7546771E-02  0.1029145E+00
         21   -1    0    0  502  501  0.00000000000E+00  0.00000000000E+00  0.19605806321E+04  0.19605806321E+04  0.00000000000E+00 0.  1.
         21   -1    0    0  501  502 -0.00000000000E+00 -0.00000000000E+00 -0.25280342965E+02  0.25280342965E+02  0.00000000000E+00 0.  1.
      99926    2    1    2    0    0 -0.35527136788E-14  0.14210854715E-13  0.19353002892E+04  0.19858609751E+04  0.44526015223E+03 0.  0.
      99925    2    3    3    0    0  0.18899897864E+02 -0.95935380823E+02  0.10742479510E+04  0.11102929077E+04  0.26302257944E+03 0.  0.
         25    1    4    4    0    0 -0.23749731915E+02 -0.25109282304E+02  0.45458458838E+03  0.47274642454E+03  0.12509000000E+03 0.  0.
         25    1    4    4    0    0  0.42649629780E+02 -0.70826098519E+02  0.61966336264E+03  0.63754648321E+03  0.12509000000E+03 0.  0.
         25    1    3    3    0    0 -0.18899897864E+02  0.95935380823E+02  0.86105233814E+03  0.87556806734E+03  0.12509000000E+03 0.  0.
<mgrwt>
<rscale>  2 0.44526015E+03</rscale>
<asrwt>0</asrwt>
<pdfrwt beam="1">  1       21 0.28832058E+00 0.44526015E+03</pdfrwt>
<pdfrwt beam="2">  1       21 0.37176988E-02 0.44526015E+03</pdfrwt>
<totfact> 0.15047858E+04</totfact>
</mgrwt>
</event>
<event>
 7    0  0.4709932E-002  0.4729426E+03  0.7546771E-02  0.1021093E+00
         21   -1    0    0  502  501  0.00000000000E+00  0.00000000000E+00  0.10508127897E+03  0.10508127897E+03  0.00000000000E+00 0.  1.
         21   -1    0    0  501  502 -0.00000000000E+00 -0.00000000000E+00 -0.53214686002E+03  0.53214686002E+03  0.00000000000E+00 0.  1.
      99926    2    1    2    0    0  0.14210854715E-13  0.00000000000E+00 -0.42706558105E+03  0.63722813899E+03  0.47294258700E+03 0.  0.
      99925    2    3    3    0    0 -0.10242136938E+03  0.36899406995E+02 -0.17100053787E+03  0.33215680703E+03  0.26312593442E+03 0.  0.
         25    1    3    3    0    0  0.10242136938E+03 -0.36899406995E+02 -0.25606504318E+03  0.30507133196E+03  0.12509000000E+03 0.  0.
         25    1    4    4    0    0 -0.66440858189E+02  0.54529431426E+02 -0.73880762941E+02  0.16880083460E+03  0.12509000000E+03 0.  0.
         25    1    4    4    0    0 -0.35980511191E+02 -0.17630024431E+02 -0.97119774927E+02  0.16335597243E+03  0.12509000000E+03 0.  0.
<mgrwt>
<rscale>  2 0.47294259E+03</rscale>
<asrwt>0</asrwt>
<pdfrwt beam="1">  1       21 0.15453129E-01 0.47294259E+03</pdfrwt>
<pdfrwt beam="2">  1       21 0.78256892E-01 0.47294259E+03</pdfrwt>
<totfact> 0.49109668E+04</totfact>
</mgrwt>
</event>
<event>
 7    0  0.4709932E-002  0.4523186E+03  0.7546771E-02  0.1027033E+00
         21   -1    0    0  502  501  0.00000000000E+00  0.00000000000E+00  0.26141488590E+03  0.26141488590E+03  0.00000000000E+00 0. -1.
         21   -1    0    0  501  502 -0.00000000000E+00 -0.00000000000E+00 -0.19565842877E+03  0.19565842877E+03  0.00000000000E+00 0. -1.
      99926    2    1    2    0    0  0.00000000000E+00 -0.44408920985E-15  0.65756457127E+02  0.45707331467E+03  0.45231858610E+03 0.  0.
      99925    2    3    3    0    0  0.70795958176E+02  0.18529087078E+01 -0.45299031667E+02  0.27542439324E+03  0.26228056191E+03 0.  0.
         25    1    4    4    0    0  0.44574308624E+02 -0.25747705626E+02 -0.50956132333E+02  0.14454704721E+03  0.12509000000E+03 0.  0.
         25    1    3    3    0    0 -0.70795958176E+02 -0.18529087078E+01  0.11105548879E+03  0.18164892143E+03  0.12509000000E+03 0.  0.
         25    1    4    4    0    0  0.26221649552E+02  0.27600614334E+02  0.56571006658E+01  0.13087734603E+03  0.12509000000E+03 0.  0.
<mgrwt>
<rscale>  2 0.45231859E+03</rscale>
<asrwt>0</asrwt>
<pdfrwt beam="1">  1       21 0.38443365E-01 0.45231859E+03</pdfrwt>
<pdfrwt beam="2">  1       21 0.28773298E-01 0.45231859E+03</pdfrwt>
<totfact> 0.69876685E+04</totfact>
</mgrwt>
</event>
<event>
 7    0  0.4709932E-002  0.4558129E+03  0.7546771E-02  0.1026003E+00
         21   -1    0    0  502  501  0.00000000000E+00  0.00000000000E+00  0.35619822702E+03  0.35619822702E+03  0.00000000000E+00 0. -1.
         21   -1    0    0  501  502 -0.00000000000E+00 -0.00000000000E+00 -0.14582150419E+03  0.14582150419E+03  0.00000000000E+00 0. -1.
      99926    2    1    2    0    0  0.71054273576E-14  0.00000000000E+00  0.21037672283E+03  0.50201973121E+03  0.45581294959E+03 0.  0.
      99925    2    3    3    0    0  0.47848611313E+02 -0.57768011174E+02  0.37671879561E+02  0.27596419886E+03  0.26288863768E+03 0.  0.
         25    1    3    3    0    0 -0.47848611313E+02  0.57768011174E+02  0.17270484327E+03  0.22605553236E+03  0.12509000000E+03 0.  0.
         25    1    4    4    0    0 -0.12956743412E+02 -0.27387107380E+02  0.29568809827E-01  0.12870679790E+03  0.12509000000E+03 0.  0.
         25    1    4    4    0    0  0.60805354725E+02 -0.30380903794E+02  0.37642310751E+02  0.14725740096E+03  0.12509000000E+03 0.  0.
<mgrwt>
<rscale>  2 0.45581295E+03</rscale>
<asrwt>0</asrwt>
<pdfrwt beam="1">  1       21 0.52382092E-01 0.45581295E+03</pdfrwt>
<pdfrwt beam="2">  1       21 0.21444339E-01 0.45581295E+03</pdfrwt>
<totfact> 0.64710412E+04</totfact>
</mgrwt>
</event>
<event>
 7    0  0.4709932E-002  0.4498835E+03  0.7546771E-02  0.1027757E+00
         21   -1    0    0  502  501  0.00000000000E+00  0.00000000000E+00  0.34757697079E+03  0.34757697079E+03  0.00000000000E+00 0.  1.
         21   -1    0    0  501  502 -0.00000000000E+00 -0.00000000000E+00 -0.14557577410E+03  0.14557577410E+03  0.00000000000E+00 0.  1.
      99926    2    1    2    0    0  0.00000000000E+00  0.14210854715E-13  0.20200119669E+03  0.49315274489E+03  0.44988348083E+03 0.  0.
      99925    2    3    3    0    0 -0.31732181392E+02  0.10030639651E+03  0.99119343744E+02  0.30001940161E+03  0.26290434101E+03 0.  0.
         25    1    4    4    0    0 -0.25357015023E+02  0.89774442972E+01  0.50579660824E+02  0.13758409394E+03  0.12509000000E+03 0.  0.
         25    1    3    3    0    0  0.31732181392E+02 -0.10030639651E+03  0.10288185295E+03  0.19313334327E+03  0.12509000000E+03 0.  0.
         25    1    4    4    0    0 -0.63751663689E+01  0.91328952218E+02  0.48539682919E+02  0.16243530767E+03  0.12509000000E+03 0.  0.
<mgrwt>
<rscale>  2 0.44988348E+03</rscale>
<asrwt>0</asrwt>
<pdfrwt beam="1">  1       21 0.51114260E-01 0.44988348E+03</pdfrwt>
<pdfrwt beam="2">  1       21 0.21408202E-01 0.44988348E+03</pdfrwt>
<totfact> 0.68494490E+04</totfact>
</mgrwt>
</event>
<event>
 7    0  0.4709932E-002  0.4357943E+03  0.7546771E-02  0.1032045E+00
         21   -1    0    0  502  501  0.00000000000E+00  0.00000000000E+00  0.13564462664E+03  0.13564462664E+03  0.00000000000E+00 0.  1.
         21   -1    0    0  501  502 -0.00000000000E+00 -0.00000000000E+00 -0.35002608295E+03  0.35002608295E+03  0.00000000000E+00 0.  1.
      99926    2    1    2    0    0  0.00000000000E+00  0.00000000000E+00 -0.21438145631E+03  0.48567070959E+03  0.43579425116E+03 0.  0.
      99925    2    3    3    0    0 -0.81989744833E+02 -0.43858177363E+02 -0.12182781163E+03  0.30439869514E+03  0.26300321659E+03 0.  0.
         25    1    3    3    0    0  0.81989744833E+02  0.43858177363E+02 -0.92553644672E+02  0.18127201445E+03  0.12509000000E+03 0.  0.
         25    1    4    4    0    0 -0.37191721982E+02 -0.58677389819E+02 -0.81911425020E+02  0.16487343603E+03  0.12509000000E+03 0.  0.
         25    1    4    4    0    0 -0.44798022851E+02  0.14819212456E+02 -0.39916386612E+02  0.13952525911E+03  0.12509000000E+03 0.  0.
<mgrwt>
<rscale>  2 0.43579425E+03</rscale>
<asrwt>0</asrwt>
<pdfrwt beam="1">  1       21 0.19947739E-01 0.43579425E+03</pdfrwt>
<pdfrwt beam="2">  1       21 0.51474423E-01 0.43579425E+03</pdfrwt>
<totfact> 0.77439510E+04</totfact>
</mgrwt>
</event>
<event>
 7    0  0.4709932E-002  0.4525771E+03  0.7546771E-02  0.1026956E+00
         21   -1    0    0  502  501  0.00000000000E+00  0.00000000000E+00  0.19614327018E+03  0.19614327018E+03  0.00000000000E+00 0. -1.
         21   -1    0    0  501  502 -0.00000000000E+00 -0.00000000000E+00 -0.26106683290E+03  0.26106683290E+03  0.00000000000E+00 0. -1.
      99926    2    1    2    0    0  0.00000000000E+00  0.00000000000E+00 -0.64923562717E+02  0.45721010308E+03  0.45257707561E+03 0.  0.
      99925    2    3    3    0    0  0.94999996555E+02 -0.35140958022E+02  0.47829218942E+01  0.28180660148E+03  0.26293002495E+03 0.  0.
         25    1    3    3    0    0 -0.94999996555E+02  0.35140958022E+02 -0.69706484611E+02  0.17540350160E+03  0.12509000000E+03 0.  0.
         25    1    4    4    0    0  0.17121459851E+02 -0.37370049445E+02 -0.17264653537E+02  0.13279774601E+03  0.12509000000E+03 0.  0.
         25    1    4    4    0    0  0.77878536704E+02  0.22290914231E+01  0.22047575431E+02  0.14900885548E+03  0.12509000000E+03 0.  0.
<mgrwt>
<rscale>  2 0.45257708E+03</rscale>
<asrwt>0</asrwt>
<pdfrwt beam="1">  1       21 0.28844599E-01 0.45257708E+03</pdfrwt>
<pdfrwt beam="2">  1       21 0.38392181E-01 0.45257708E+03</pdfrwt>
<totfact> 0.69721842E+04</totfact>
</mgrwt>
</event>
<event>
 7    0  0.4709932E-002  0.4512490E+03  0.7546771E-02  0.1027350E+00
         21   -1    0    0  502  501  0.00000000000E+00  0.00000000000E+00  0.93308648592E+02  0.93308648592E+02  0.00000000000E+00 0.  1.
         21   -1    0    0  501  502 -0.00000000000E+00 -0.00000000000E+00 -0.54557024782E+03  0.54557024782E+03  0.00000000000E+00 0.  1.
      99926    2    1    2    0    0  0.35527136788E-14 -0.35527136788E-14 -0.45226159923E+03  0.63887889642E+03  0.45124903340E+03 0.  0.
      99925    2    3    3    0    0 -0.20972910819E+02  0.21803887846E+02 -0.13631773002E+03  0.29772891604E+03  0.26295381993E+03 0.  0.
         25    1    3    3    0    0  0.20972910819E+02 -0.21803887846E+02 -0.31594386921E+03  0.34114998037E+03  0.12509000000E+03 0.  0.
         25    1    4    4    0    0 -0.34394230644E+02 -0.19158145621E+02 -0.82256011808E+02  0.15480167061E+03  0.12509000000E+03 0.  0.
         25    1    4    4    0    0  0.13421319825E+02  0.40962033466E+02 -0.54061718211E+02  0.14292724543E+03  0.12509000000E+03 0.  0.
<mgrwt>
<rscale>  2 0.45124903E+03</rscale>
<asrwt>0</asrwt>
<pdfrwt beam="1">  1       21 0.13721860E-01 0.45124903E+03</pdfrwt>
<pdfrwt beam="2">  1       21 0.80230920E-01 0.45124903E+03</pdfrwt>
<totfact> 0.58046001E+04</totfact>
</mgrwt>
</event>
<event>
 7    0  0.4709932E-002  0.4579184E+03  0.7546771E-02  0.1025387E+00
         21   -1    0    0  502  501  0.00000000000E+00  0.00000000000E+00  0.57639073182E+02  0.57639073182E+02  0.00000000000E+00 0. -1.
         21   -1    0    0  501  502 -0.00000000000E+00 -0.00000000000E+00 -0.90949286029E+03  0.90949286029E+03  0.00000000000E+00 0. -1.
      99926    2    1    2    0    0  0.00000000000E+00  0.00000000000E+00 -0.85185378711E+03  0.96713193347E+03  0.45791844485E+03 0.  0.
      99925    2    3    3    0    0  0.46444901311E+02  0.65635099044E+02 -0.35853135228E+03  0.45188478124E+03  0.26303997768E+03 0.  0.
         25    1    4    4    0    0  0.30572668371E+02  0.72752708290E+02 -0.21108822072E+03  0.25774675486E+03  0.12509000000E+03 0.  0.
         25    1    3    3    0    0 -0.46444901311E+02 -0.65635099044E+02 -0.49332243482E+03  0.51524715223E+03  0.12509000000E+03 0.  0.
         25    1    4    4    0    0  0.15872232939E+02 -0.71176092454E+01 -0.14744313156E+03  0.19413802637E+03  0.12509000000E+03 0.  0.
<mgrwt>
<rscale>  2 0.45791844E+03</rscale>
<asrwt>0</asrwt>
<pdfrwt beam="1">  1       21 0.84763345E-02 0.45791844E+03</pdfrwt>
<pdfrwt beam="2">  1       21 0.13374895E+00 0.45791844E+03</pdfrwt>
<totfact> 0.39544747E+04</totfact>
</mgrwt>
</event>
<event>
 7    0  0.4709932E-002  0.4580138E+03  0.7546771E-02  0.1025359E+00
         21   -1    0    0  502  501  0.00000000000E+00  0.00000000000E+00  0.74078399808E+03  0.74078399808E+03  0.00000000000E+00 0.  1.
         21   -1    0    0  501  502 -0.00000000000E+00 -0.00000000000E+00 -0.70795491507E+02  0.70795491507E+02  0.00000000000E+00 0.  1.
      99926    2    1    2    0    0  0.88817841970E-15  0.00000000000E+00  0.66998850657E+03  0.81157948959E+03  0.45801383055E+03 0.  0.
      99925    2    3    3    0    0  0.68257559221E+01 -0.96684239264E+02  0.53332652205E+03  0.60248994135E+03  0.26298767508E+03 0.  0.
         25    1    4    4    0    0 -0.21206180325E+02 -0.59740119343E+02  0.20786677068E+03  0.25074825303E+03  0.12509000000E+03 0.  0.
         25    1    3    3    0    0 -0.68257559221E+01  0.96684239264E+02  0.13666198452E+03  0.20908954823E+03  0.12509000000E+03 0.  0.
         25    1    4    4    0    0  0.28031936247E+02 -0.36944119921E+02  0.32545975137E+03  0.35174168833E+03  0.12509000000E+03 0.  0.
<mgrwt>
<rscale>  2 0.45801383E+03</rscale>
<asrwt>0</asrwt>
<pdfrwt beam="1">  1       21 0.10893882E+00 0.45801383E+03</pdfrwt>
<pdfrwt beam="2">  1       21 0.10411102E-01 0.45801383E+03</pdfrwt>
<totfact> 0.46109620E+04</totfact>
</mgrwt>
</event>
<event>
 7    0  0.4709932E-002  0.4539326E+03  0.7546771E-02  0.1026556E+00
         21   -1    0    0  502  501  0.00000000000E+00  0.00000000000E+00  0.21806508433E+03  0.21806508433E+03  0.00000000000E+00 0.  1.
         21   -1    0    0  501  502 -0.00000000000E+00 -0.00000000000E+00 -0.23623085046E+03  0.23623085046E+03  0.00000000000E+00 0.  1.
      99926    2    1    2    0    0  0.00000000000E+00  0.71054273576E-14 -0.18165766130E+02  0.45429593479E+03  0.45393259556E+03 0.  0.
      99925    2    3    3    0    0 -0.52496277055E+01 -0.56475722498E+02 -0.10841679309E+03  0.28994928350E+03  0.26286749543E+03 0.  0.
         25    1    4    4    0    0  0.15999505633E+02 -0.28411586036E+01 -0.24046037682E+02  0.12841252428E+03  0.12509000000E+03 0.  0.
         25    1    4    4    0    0 -0.21249133338E+02 -0.53634563895E+02 -0.84370755411E+02  0.16153675922E+03  0.12509000000E+03 0.  0.
         25    1    3    3    0    0  0.52496277055E+01  0.56475722498E+02  0.90251026963E+02  0.16434665129E+03  0.12509000000E+03 0.  0.
<mgrwt>
<rscale>  2 0.45393260E+03</rscale>
<asrwt>0</asrwt>
<pdfrwt beam="1">  1       21 0.32068395E-01 0.45393260E+03</pdfrwt>
<pdfrwt beam="2">  1       21 0.34739831E-01 0.45393260E+03</pdfrwt>
<totfact> 0.69184773E+04</totfact>
</mgrwt>
</event>
<event>
 7    0  0.4709932E-002  0.4571118E+03  0.7546771E-02  0.1025622E+00
         21   -1    0    0  502  501  0.00000000000E+00  0.00000000000E+00  0.19461957289E+03  0.19461957289E+03  0.00000000000E+00 0. -1.
         21   -1    0    0  501  502 -0.00000000000E+00 -0.00000000000E+00 -0.26840974721E+03  0.26840974721E+03  0.00000000000E+00 0. -1.
      99926    2    1    2    0    0  0.00000000000E+00  0.00000000000E+00 -0.73790174319E+02  0.46302932010E+03  0.45711176035E+03 0.  0.
      99925    2    3    3    0    0 -0.10405028661E+02  0.49539461816E+02 -0.15104298278E+03  0.30753678840E+03  0.26306362477E+03 0.  0.
         25    1    3    3    0    0  0.10405028661E+02 -0.49539461816E+02  0.77252808461E+02  0.15549253170E+03  0.12509000000E+03 0.  0.
         25    1    4    4    0    0  0.29790949457E+01  0.37222762307E+01 -0.11226235066E+03  0.16814598961E+03  0.12509000000E+03 0.  0.
         25    1    4    4    0    0 -0.13384123606E+02  0.45817185585E+02 -0.38780632116E+02  0.13939079879E+03  0.12509000000E+03 0.  0.
<mgrwt>
<rscale>  2 0.45711176E+03</rscale>
<asrwt>0</asrwt>
<pdfrwt beam="1">  1       21 0.28620526E-01 0.45711176E+03</pdfrwt>
<pdfrwt beam="2">  1       21 0.39472022E-01 0.45711176E+03</pdfrwt>
<totfact> 0.66827698E+04</totfact>
</mgrwt>
</event>
<event>
 7    0  0.4709932E-002  0.4340538E+03  0.7546771E-02  0.1032587E+00
         21   -1    0    0  502  501  0.00000000000E+00  0.00000000000E+00  0.29904803307E+03  0.29904803307E+03  0.00000000000E+00 0. -1.
         21   -1    0    0  501  502 -0.00000000000E+00 -0.00000000000E+00 -0.15750204635E+03  0.15750204635E+03  0.00000000000E+00 0. -1.
      99926    2    1    2    0    0  0.71054273576E-14  0.00000000000E+00  0.14154598672E+03  0.45655007942E+03  0.43405380848E+03 0.  0.
      99925    2    3    3    0    0  0.55964036708E+02 -0.68327084032E+02  0.11932199313E+03  0.30181812471E+03  0.26278485219E+03 0.  0.
         25    1    3    3    0    0 -0.55964036708E+02  0.68327084032E+02  0.22223993592E+02  0.15473195471E+03  0.12509000000E+03 0.  0.
         25    1    4    4    0    0  0.41801389858E+02  0.37212739489E+01  0.50579606443E+02  0.14130466645E+03  0.12509000000E+03 0.  0.
         25    1    4    4    0    0  0.14162646850E+02 -0.72048357981E+02  0.68742386686E+02  0.16051345825E+03  0.12509000000E+03 0.  0.
<mgrwt>
<rscale>  2 0.43405381E+03</rscale>
<asrwt>0</asrwt>
<pdfrwt beam="1">  1       21 0.43977652E-01 0.43405381E+03</pdfrwt>
<pdfrwt beam="2">  1       21 0.23162066E-01 0.43405381E+03</pdfrwt>
<totfact> 0.81114018E+04</totfact>
</mgrwt>
</event>
<event>
 7    0  0.4709932E-002  0.4537120E+03  0.7546771E-02  0.1026621E+00
         21   -1    0    0  502  501  0.00000000000E+00  0.00000000000E+00  0.28103706904E+02  0.28103706904E+02  0.00000000000E+00 0.  1.
         21   -1    0    0  501  502 -0.00000000000E+00 -0.00000000000E+00 -0.18312048419E+04  0.18312048419E+04  0.00000000000E+00 0.  1.
      99926    2    1    2    0    0  0.88817841970E-15 -0.14210854715E-13 -0.18031011350E+04  0.18593085488E+04  0.45371199746E+03 0.  0.
      99925    2    3    3    0    0  0.31255832445E+01 -0.11013377151E+03 -0.10605950713E+04  0.10983210459E+04  0.26326412144E+03 0.  0.
         25    1    4    4    0    0  0.16103191843E+02 -0.84919932309E+02 -0.47092004137E+03  0.49485745539E+03  0.12509000000E+03 0.  0.
         25    1    4    4    0    0 -0.12977608598E+02 -0.25213839203E+02 -0.58967502997E+03  0.60346359052E+03  0.12509000000E+03 0.  0.
         25    1    3    3    0    0 -0.31255832445E+01  0.11013377151E+03 -0.74250606368E+03  0.76098750292E+03  0.12509000000E+03 0.  0.
<mgrwt>
<rscale>  2 0.45371200E+03</rscale>
<asrwt>0</asrwt>
<pdfrwt beam="1">  1       21 0.41328960E-02 0.45371200E+03</pdfrwt>
<pdfrwt beam="2">  1       21 0.26929497E+00 0.45371200E+03</pdfrwt>
<totfact> 0.16308317E+04</totfact>
</mgrwt>
</event>
<event>
 7    0  0.4709932E-002  0.4531670E+03  0.7546771E-02  0.1026782E+00
         21   -1    0    0  502  501  0.00000000000E+00  0.00000000000E+00  0.63465961884E+02  0.63465961884E+02  0.00000000000E+00 0. -1.
         21   -1    0    0  501  502 -0.00000000000E+00 -0.00000000000E+00 -0.80893889354E+03  0.80893889354E+03  0.00000000000E+00 0. -1.
      99926    2    1    2    0    0  0.00000000000E+00  0.00000000000E+00 -0.74547293166E+03  0.87240485543E+03  0.45316701109E+03 0.  0.
      99925    2    3    3    0    0 -0.61363134955E+02 -0.50503763278E+02 -0.31956614348E+03  0.42145012959E+03  0.26302400506E+03 0.  0.
         25    1    3    3    0    0  0.61363134955E+02  0.50503763278E+02 -0.42590678818E+03  0.45095472583E+03  0.12509000000E+03 0.  0.
         25    1    4    4    0    0 -0.95766337510E+01 -0.45984021475E+02 -0.20139143880E+03  0.24168628813E+03  0.12509000000E+03 0.  0.
         25    1    4    4    0    0 -0.51786501204E+02 -0.45197418032E+01 -0.11817470468E+03  0.17976384147E+03  0.12509000000E+03 0.  0.
<mgrwt>
<rscale>  2 0.45316701E+03</rscale>
<asrwt>0</asrwt>
<pdfrwt beam="1">  1       21 0.93332304E-02 0.45316701E+03</pdfrwt>
<pdfrwt beam="2">  1       21 0.11896159E+00 0.45316701E+03</pdfrwt>
<totfact> 0.45092282E+04</totfact>
</mgrwt>
</event>
<event>
 7    0  0.4709932E-002  0.4548578E+03  0.7546771E-02  0.1026283E+00
         21   -1    0    0  502  501  0.00000000000E+00  0.00000000000E+00  0.51933314002E+03  0.51933314002E+03  0.00000000000E+00 0.  1.
         21   -1    0    0  501  502 -0.00000000000E+00 -0.00000000000E+00 -0.99596755913E+02  0.99596755913E+02  0.00000000000E+00 0.  1.
      99926    2    1    2    0    0  0.00000000000E+00  0.00000000000E+00  0.41973638410E+03  0.61892989593E+03  0.45485776231E+03 0.  0.
      99925    2    3    3    0    0 -0.98497794588E+02 -0.39715420743E+02  0.31682831762E+03  0.42523759244E+03  0.26299752279E+03 0.  0.
         25    1    4    4    0    0 -0.38708385325E+02  0.20376161935E+02  0.14947883188E+03  0.19976224956E+03  0.12509000000E+03 0.  0.
         25    1    4    4    0    0 -0.59789409263E+02 -0.60091582677E+02  0.16734948574E+03  0.22547534288E+03  0.12509000000E+03 0.  0.
         25    1    3    3    0    0  0.98497794588E+02  0.39715420743E+02  0.10290806648E+03  0.19369230349E+03  0.12509000000E+03 0.  0.
<mgrwt>
<rscale>  2 0.45485776E+03</rscale>
<asrwt>0</asrwt>
<pdfrwt beam="1">  1       21 0.76372519E-01 0.45485776E+03</pdfrwt>
<pdfrwt beam="2">  1       21 0.14646582E-01 0.45485776E+03</pdfrwt>
<totfact> 0.57592618E+04</totfact>
</mgrwt>
</event>
<event>
 7    0  0.4709932E-002  0.4894717E+03  0.7546771E-02  0.1016564E+00
         21   -1    0    0  502  501  0.00000000000E+00  0.00000000000E+00  0.22133865891E+03  0.22133865891E+03  0.00000000000E+00 0. -1.
         21   -1    0    0  501  502 -0.00000000000E+00 -0.00000000000E+00 -0.27060633308E+03  0.27060633308E+03  0.00000000000E+00 0. -1.
      99926    2    1    2    0    0 -0.14210854715E-13  0.14210854715E-13 -0.49267674168E+02  0.49194499199E+03  0.48947172689E+03 0.  0.
      99925    2    3    3    0    0  0.92080030220E+02 -0.84857243457E+02  0.39500085120E+02  0.29393815644E+03  0.26298269783E+03 0.  0.
         25    1    4    4    0    0  0.71369367597E+02 -0.68298273500E+02 -0.23042102857E+01  0.15940846364E+03  0.12509000000E+03 0.  0.
         25    1    3    3    0    0 -0.92080030220E+02  0.84857243457E+02 -0.88767759289E+02  0.19800683554E+03  0.12509000000E+03 0.  0.
         25    1    4    4    0    0  0.20710662623E+02 -0.16558969957E+02  0.41804295406E+02  0.13452969281E+03  0.12509000000E+03 0.  0.
<mgrwt>
<rscale>  2 0.48947173E+03</rscale>
<asrwt>0</asrwt>
<pdfrwt beam="1">  1       21 0.32549803E-01 0.48947173E+03</pdfrwt>
<pdfrwt beam="2">  1       21 0.39795049E-01 0.48947173E+03</pdfrwt>
<totfact> 0.50525439E+04</totfact>
</mgrwt>
</event>
<event>
 7    0  0.4709932E-002  0.4513359E+03  0.7546771E-02  0.1027324E+00
         21   -1    0    0  502  501  0.00000000000E+00  0.00000000000E+00  0.68827977911E+03  0.68827977911E+03  0.00000000000E+00 0.  1.
         21   -1    0    0  501  502 -0.00000000000E+00 -0.00000000000E+00 -0.73990309664E+02  0.73990309664E+02  0.00000000000E+00 0.  1.
      99926    2    1    2    0    0  0.00000000000E+00  0.00000000000E+00  0.61428946945E+03  0.76227008878E+03  0.45133594580E+03 0.  0.
      99925    2    3    3    0    0 -0.72936950666E+02  0.37800802253E+02  0.26426712179E+03  0.38159719588E+03  0.26273676717E+03 0.  0.
         25    1    4    4    0    0  0.27004488153E+01  0.29175621621E+02  0.13340218181E+03  0.18520842187E+03  0.12509000000E+03 0.  0.
         25    1    4    4    0    0 -0.75637399482E+02  0.86251806321E+01  0.13086493998E+03  0.19638877401E+03  0.12509000000E+03 0.  0.
         25    1    3    3    0    0  0.72936950666E+02 -0.37800802253E+02  0.35002234766E+03  0.38067289290E+03  0.12509000000E+03 0.  0.
<mgrwt>
<rscale>  2 0.45133595E+03</rscale>
<asrwt>0</asrwt>
<pdfrwt beam="1">  1       21 0.10121761E+00 0.45133595E+03</pdfrwt>
<pdfrwt beam="2">  1       21 0.10880928E-01 0.45133595E+03</pdfrwt>
<totfact> 0.51097715E+04</totfact>
</mgrwt>
</event>
<event>
 7    0  0.4709932E-002  0.4505496E+03  0.7546771E-02  0.1027558E+00
         21   -1    0    0  502  501  0.00000000000E+00  0.00000000000E+00  0.21562507644E+03  0.21562507644E+03  0.00000000000E+00 0. -1.
         21   -1    0    0  501  502 -0.00000000000E+00 -0.00000000000E+00 -0.23535640712E+03  0.23535640712E+03  0.00000000000E+00 0. -1.
      99926    2    1    2    0    0  0.14210854715E-13  0.00000000000E+00 -0.19731330679E+02  0.45098148355E+03  0.45054963445E+03 0.  0.
      99925    2    3    3    0    0  0.84116608285E+02 -0.43940825985E+02  0.41103581607E+02  0.28259266376E+03  0.26298804006E+03 0.  0.
         25    1    4    4    0    0  0.15411922985E+02  0.38520266895E+01 -0.17431550092E+01  0.12610674910E+03  0.12509000000E+03 0.  0.
         25    1    4    4    0    0  0.68704685300E+02 -0.47792852674E+02  0.42846736616E+02  0.15648591466E+03  0.12509000000E+03 0.  0.
         25    1    3    3    0    0 -0.84116608285E+02  0.43940825985E+02 -0.60834912286E+02  0.16838881979E+03  0.12509000000E+03 0.  0.
<mgrwt>
<rscale>  2 0.45054963E+03</rscale>
<asrwt>0</asrwt>
<pdfrwt beam="1">  1       21 0.31709570E-01 0.45054963E+03</pdfrwt>
<pdfrwt beam="2">  1       21 0.34611236E-01 0.45054963E+03</pdfrwt>
<totfact> 0.71341004E+04</totfact>
</mgrwt>
</event>
<event>
 7    0  0.4709932E-002  0.4477283E+03  0.7546771E-02  0.1028402E+00
         21   -1    0    0  502  501  0.00000000000E+00  0.00000000000E+00  0.26871190394E+02  0.26871190394E+02  0.00000000000E+00 0. -1.
         21   -1    0    0  501  502 -0.00000000000E+00 -0.00000000000E+00 -0.18650146410E+04  0.18650146410E+04  0.00000000000E+00 0. -1.
      99926    2    1    2    0    0  0.00000000000E+00  0.00000000000E+00 -0.18381434506E+04  0.18918858314E+04  0.44772832613E+03 0.  0.
      99925    2    3    3    0    0 -0.65362404609E+02 -0.30756245559E+02 -0.14936138064E+04  0.15182999987E+04  0.26293438859E+03 0.  0.
         25    1    3    3    0    0  0.65362404609E+02  0.30756245559E+02 -0.34452964419E+03  0.37358583271E+03  0.12509000000E+03 0.  0.
         25    1    4    4    0    0  0.15881464857E+01 -0.43287318788E+01 -0.81033247173E+03  0.81994358524E+03  0.12509000000E+03 0.  0.
         25    1    4    4    0    0 -0.66950551095E+02 -0.26427513680E+02 -0.68328133469E+03  0.69835641345E+03  0.12509000000E+03 0.  0.
<mgrwt>
<rscale>  2 0.44772833E+03</rscale>
<asrwt>0</asrwt>
<pdfrwt beam="1">  1       21 0.39516454E-02 0.44772833E+03</pdfrwt>
<pdfrwt beam="2">  1       21 0.27426687E+00 0.44772833E+03</pdfrwt>
<totfact> 0.16466072E+04</totfact>
</mgrwt>
</event>
<event>
 7    0  0.4709932E-002  0.4594129E+03  0.7546771E-02  0.1024952E+00
         21   -1    0    0  502  501  0.00000000000E+00  0.00000000000E+00  0.77399627441E+03  0.77399627441E+03  0.00000000000E+00 0.  1.
         21   -1    0    0  501  502 -0.00000000000E+00 -0.00000000000E+00 -0.68172232894E+02  0.68172232894E+02  0.00000000000E+00 0.  1.
      99926    2    1    2    0    0 -0.14210854715E-13  0.00000000000E+00  0.70582404151E+03  0.84216850730E+03  0.45941290482E+03 0.  0.
      99925    2    3    3    0    0  0.11084094483E+03 -0.23507470559E+02  0.38681059024E+03  0.48125936857E+03  0.26296355431E+03 0.  0.
         25    1    4    4    0    0  0.27572265147E+02  0.65508026339E+01  0.22064877767E+03  0.25521860043E+03  0.12509000000E+03 0.  0.
         25    1    3    3    0    0 -0.11084094483E+03  0.23507470559E+02  0.31901345128E+03  0.36090913873E+03  0.12509000000E+03 0.  0.
         25    1    4    4    0    0  0.83268679687E+02 -0.30058273193E+02  0.16616181256E+03  0.22604076813E+03  0.12509000000E+03 0.  0.
<mgrwt>
<rscale>  2 0.45941290E+03</rscale>
<asrwt>0</asrwt>
<pdfrwt beam="1">  1       21 0.11382298E+00 0.45941290E+03</pdfrwt>
<pdfrwt beam="2">  1       21 0.10025329E-01 0.45941290E+03</pdfrwt>
<totfact> 0.44240149E+04</totfact>
</mgrwt>
</event>
<event>
 7    0  0.4709932E-002  0.4516421E+03  0.7546771E-02  0.1027233E+00
         21   -1    0    0  502  501  0.00000000000E+00  0.00000000000E+00  0.15433715935E+03  0.15433715935E+03  0.00000000000E+00 0. -1.
         21   -1    0    0  501  502 -0.00000000000E+00 -0.00000000000E+00 -0.33041388793E+03  0.33041388793E+03  0.00000000000E+00 0. -1.
      99926    2    1    2    0    0  0.00000000000E+00  0.00000000000E+00 -0.17607672857E+03  0.48475104728E+03  0.45164207454E+03 0.  0.
      99925    2    3    3    0    0 -0.44310762732E+02  0.54497500809E+02 -0.21599782767E+02  0.27393345747E+03  0.26389309809E+03 0.  0.
         25    1    4    4    0    0 -0.29259029448E+02  0.66692081329E+02  0.39481463275E+01  0.14479993258E+03  0.12509000000E+03 0.  0.
         25    1    4    4    0    0 -0.15051733283E+02 -0.12194580520E+02 -0.25547929094E+02  0.12913352489E+03  0.12509000000E+03 0.  0.
         25    1    3    3    0    0  0.44310762732E+02 -0.54497500809E+02 -0.15447694581E+03  0.21081758981E+03  0.12509000000E+03 0.  0.
<mgrwt>
<rscale>  2 0.45164207E+03</rscale>
<asrwt>0</asrwt>
<pdfrwt beam="1">  1       21 0.22696642E-01 0.45164207E+03</pdfrwt>
<pdfrwt beam="2">  1       21 0.48590277E-01 0.45164207E+03</pdfrwt>
<totfact> 0.68154612E+04</totfact>
</mgrwt>
</event>
<event>
 7    0  0.4709932E-002  0.4560885E+03  0.7546771E-02  0.1025922E+00
         21   -1    0    0  502  501  0.00000000000E+00  0.00000000000E+00  0.27583400492E+03  0.27583400492E+03  0.00000000000E+00 0. -1.
         21   -1    0    0  501  502 -0.00000000000E+00 -0.00000000000E+00 -0.18853431036E+03  0.18853431036E+03  0.00000000000E+00 0. -1.
      99926    2    1    2    0    0  0.14210854715E-13  0.00000000000E+00  0.87299694565E+02  0.46436831528E+03  0.45608847339E+03 0.  0.
      99925    2    3    3    0    0  0.79370327094E+02 -0.13073040323E+02 -0.27744816491E+02  0.27634358065E+03  0.26291718567E+03 0.  0.
         25    1    4    4    0    0 -0.14105603809E+01 -0.13020689263E+02 -0.18775972515E+02  0.12716750085E+03  0.12509000000E+03 0.  0.
         25    1    4    4    0    0  0.80780887475E+02 -0.52351059622E-01 -0.89688439760E+01  0.14917607980E+03  0.12509000000E+03 0.  0.
         25    1    3    3    0    0 -0.79370327094E+02  0.13073040323E+02  0.11504451106E+03  0.18802473462E+03  0.12509000000E+03 0.  0.
<mgrwt>
<rscale>  2 0.45608847E+03</rscale>
<asrwt>0</asrwt>
<pdfrwt beam="1">  1       21 0.40563824E-01 0.45608847E+03</pdfrwt>
<pdfrwt beam="2">  1       21 0.27725634E-01 0.45608847E+03</pdfrwt>
<totfact> 0.67273127E+04</totfact>
</mgrwt>
</event>
<event>
 6    0  0.4709932E-002  0.4547677E+03  0.7546771E-02  0.1026310E+00
         21   -1    0    0  502  501  0.00000000000E+00  0.00000000000E+00  0.99378057918E+03  0.99378057918E+03  0.00000000000E+00 0.  1.
         21   -1    0    0  501  502 -0.00000000000E+00 -0.00000000000E+00 -0.52027001837E+02  0.52027001837E+02  0.00000000000E+00 0.  1.
      99926    2    1    2    0    0  0.00000000000E+00  0.00000000000E+00  0.94175357734E+03  0.10458075810E+04  0.45476773860E+03 0.  0.
         25    1    3    3    0    0 -0.91797535686E+02 -0.61294004952E+02  0.37580430145E+03  0.41116921540E+03  0.12509000000E+03 0.  0.
         25    1    3    3    0    0  0.66657470172E+02  0.61408243379E+02  0.36831087626E+03  0.39939278957E+03  0.12509000000E+03 0.  0.
         25    1    3    3    0    0  0.25140065514E+02 -0.11423842704E+00  0.19763839963E+03  0.23524557605E+03  0.12509000000E+03 0.  0.
<mgrwt>
<rscale>  2 0.45476774E+03</rscale>
<asrwt>0</asrwt>
<pdfrwt beam="1">  1       21 0.14614419E+00 0.45476774E+03</pdfrwt>
<pdfrwt beam="2">  1       21 0.76510303E-02 0.45476774E+03</pdfrwt>
<totfact> 0.37499537E+04</totfact>
</mgrwt>
</event>
<event>
 7    0  0.4709932E-002  0.4349946E+03  0.7546771E-02  0.1032294E+00
         21   -1    0    0  502  501  0.00000000000E+00  0.00000000000E+00  0.21255568537E+04  0.21255568537E+04  0.00000000000E+00 0. -1.
         21   -1    0    0  501  502 -0.00000000000E+00 -0.00000000000E+00 -0.22255382130E+02  0.22255382130E+02  0.00000000000E+00 0. -1.
      99926    2    1    2    0    0  0.00000000000E+00  0.00000000000E+00  0.21033014716E+04  0.21478122358E+04  0.43499462074E+03 0.  0.
      99925    2    3    3    0    0  0.27323053342E+02 -0.44239657189E+02  0.96716693154E+03  0.10036300398E+04  0.26297849124E+03 0.  0.
         25    1    4    4    0    0 -0.15153797373E+02 -0.50061857205E+02  0.51133779895E+03  0.52900820396E+03  0.12509000000E+03 0.  0.
         25    1    4    4    0    0  0.42476850715E+02  0.58222000160E+01  0.45582913260E+03  0.47462183587E+03  0.12509000000E+03 0.  0.
         25    1    3    3    0    0 -0.27323053342E+02  0.44239657189E+02  0.11361345400E+04  0.11441821960E+04  0.12509000000E+03 0.  0.
<mgrwt>
<rscale>  2 0.43499462E+03</rscale>
<asrwt>0</asrwt>
<pdfrwt beam="1">  1       21 0.31258175E+00 0.43499462E+03</pdfrwt>
<pdfrwt beam="2">  1       21 0.32728518E-02 0.43499462E+03</pdfrwt>
<totfact> 0.13408502E+04</totfact>
</mgrwt>
</event>
<event>
 7    0  0.4709932E-002  0.4552484E+03  0.7546771E-02  0.1026168E+00
         21   -1    0    0  502  501  0.00000000000E+00  0.00000000000E+00  0.35097662522E+03  0.35097662522E+03  0.00000000000E+00 0.  1.
         21   -1    0    0  501  502 -0.00000000000E+00 -0.00000000000E+00 -0.14762458911E+03  0.14762458911E+03  0.00000000000E+00 0.  1.
      99926    2    1    2    0    0  0.00000000000E+00  0.00000000000E+00  0.20335203611E+03  0.49860121433E+03  0.45524841608E+03 0.  0.
      99925    2    3    3    0    0 -0.61358320998E+02 -0.88658019301E+02  0.89592268858E+02  0.29806722547E+03  0.26304411858E+03 0.  0.
         25    1    3    3    0    0  0.61358320998E+02  0.88658019301E+02  0.11375976725E+03  0.20053398886E+03  0.12509000000E+03 0.  0.
         25    1    4    4    0    0 -0.47774708390E+02 -0.19107077504E+02  0.14966302063E+02  0.13608453795E+03  0.12509000000E+03 0.  0.
         25    1    4    4    0    0 -0.13583612607E+02 -0.69550941797E+02  0.74625966795E+02  0.16198268752E+03  0.12509000000E+03 0.  0.
<mgrwt>
<rscale>  2 0.45524842E+03</rscale>
<asrwt>0</asrwt>
<pdfrwt beam="1">  1       21 0.51614210E-01 0.45524842E+03</pdfrwt>
<pdfrwt beam="2">  1       21 0.21709498E-01 0.45524842E+03</pdfrwt>
<totfact> 0.65240293E+04</totfact>
</mgrwt>
</event>
<event>
 7    0  0.4709932E-002  0.4529951E+03  0.7546771E-02  0.1026833E+00
         21   -1    0    0  502  501  0.00000000000E+00  0.00000000000E+00  0.24490343013E+03  0.24490343013E+03  0.00000000000E+00 0. -1.
         21   -1    0    0  501  502 -0.00000000000E+00 -0.00000000000E+00 -0.20947495654E+03  0.20947495654E+03  0.00000000000E+00 0. -1.
      99926    2    1    2    0    0  0.44408920985E-15  0.00000000000E+00  0.35428473591E+02  0.45437838666E+03  0.45299507892E+03 0.  0.
      99925    2    3    3    0    0 -0.34962736337E+01  0.10472288985E+03  0.59317482187E+02  0.28946234615E+03  0.26323141635E+03 0.  0.
         25    1    4    4    0    0 -0.99670314444E+01  0.88413106132E+02  0.98955614678E+01  0.15382343543E+03  0.12509000000E+03 0.  0.
         25    1    3    3    0    0  0.34962736337E+01 -0.10472288985E+03 -0.23889008597E+02  0.16491604052E+03  0.12509000000E+03 0.  0.
         25    1    4    4    0    0  0.64707578107E+01  0.16309783718E+02  0.49421920720E+02  0.13563891071E+03  0.12509000000E+03 0.  0.
<mgrwt>
<rscale>  2 0.45299508E+03</rscale>
<asrwt>0</asrwt>
<pdfrwt beam="1">  1       21 0.36015210E-01 0.45299508E+03</pdfrwt>
<pdfrwt beam="2">  1       21 0.30805141E-01 0.45299508E+03</pdfrwt>
<totfact> 0.69699698E+04</totfact>
</mgrwt>
</event>
<event>
 7    0  0.4709932E-002  0.4475363E+03  0.7546771E-02  0.1028459E+00
         21   -1    0    0  502  501  0.00000000000E+00  0.00000000000E+00  0.17011680187E+03  0.17011680187E+03  0.00000000000E+00 0.  1.
         21   -1    0    0  501  502 -0.00000000000E+00 -0.00000000000E+00 -0.29434003653E+03  0.29434003653E+03  0.00000000000E+00 0.  1.
      99926    2    1    2    0    0  0.00000000000E+00 -0.17763568394E-14 -0.12422323466E+03  0.46445683839E+03  0.44753630322E+03 0.  0.
      99925    2    3    3    0    0  0.52629128083E+01  0.13653156568E+02 -0.18778815836E+03  0.32338198393E+03  0.26286385864E+03 0.  0.
         25    1    4    4    0    0 -0.81159594325E+01  0.22496761646E+02 -0.13802778357E+03  0.18780615064E+03  0.12509000000E+03 0.  0.
         25    1    4    4    0    0  0.13378872241E+02 -0.88436050782E+01 -0.49760374787E+02  0.13557583329E+03  0.12509000000E+03 0.  0.
         25    1    3    3    0    0 -0.52629128083E+01 -0.13653156568E+02  0.63564923701E+02  0.14107485446E+03  0.12509000000E+03 0.  0.
<mgrwt>
<rscale>  2 0.44753630E+03</rscale>
<asrwt>0</asrwt>
<pdfrwt beam="1">  1       21 0.25017177E-01 0.44753630E+03</pdfrwt>
<pdfrwt beam="2">  1       21 0.43285299E-01 0.44753630E+03</pdfrwt>
<totfact> 0.72021044E+04</totfact>
</mgrwt>
</event>
<event>
 7    0  0.4709932E-002  0.4611581E+03  0.7546771E-02  0.1024446E+00
         21   -1    0    0  502  501  0.00000000000E+00  0.00000000000E+00  0.14541819588E+04  0.14541819588E+04  0.00000000000E+00 0. -1.
         21   -1    0    0  501  502 -0.00000000000E+00 -0.00000000000E+00 -0.36561239705E+02  0.36561239705E+02  0.00000000000E+00 0. -1.
      99926    2    1    2    0    0 -0.14210854715E-13  0.00000000000E+00  0.14176207191E+04  0.14907431986E+04  0.46115808644E+03 0.  0.
      99925    2    3    3    0    0 -0.95496889596E+02  0.40926167794E+02  0.70072037815E+03  0.75563217691E+03  0.26301393744E+03 0.  0.
         25    1    3    3    0    0  0.95496889596E+02 -0.40926167794E+02  0.71690034099E+03  0.73511102164E+03  0.12509000000E+03 0.  0.
         25    1    4    4    0    0 -0.55697614780E+01  0.26943498739E+02  0.31310097185E+03  0.33828494060E+03  0.12509000000E+03 0.  0.
         25    1    4    4    0    0 -0.89927128118E+02  0.13982669056E+02  0.38761940631E+03  0.41734723631E+03  0.12509000000E+03 0.  0.
<mgrwt>
<rscale>  2 0.46115809E+03</rscale>
<asrwt>0</asrwt>
<pdfrwt beam="1">  1       21 0.21385025E+00 0.46115809E+03</pdfrwt>
<pdfrwt beam="2">  1       21 0.53766539E-02 0.46115809E+03</pdfrwt>
<totfact> 0.22892184E+04</totfact>
</mgrwt>
</event>
<event>
 7    0  0.4709932E-002  0.4601001E+03  0.7546771E-02  0.1024752E+00
         21   -1    0    0  502  501  0.00000000000E+00  0.00000000000E+00  0.85799085389E+02  0.85799085389E+02  0.00000000000E+00 0.  1.
         21   -1    0    0  501  502 -0.00000000000E+00 -0.00000000000E+00 -0.61682511801E+03  0.61682511801E+03  0.00000000000E+00 0.  1.
      99926    2    1    2    0    0  0.00000000000E+00  0.00000000000E+00 -0.53102603262E+03  0.70262420340E+03  0.46010012376E+03 0.  0.
      99925    2    3    3    0    0 -0.52607370854E+02 -0.10453432578E+03 -0.30903540139E+03  0.42222750373E+03  0.26282736702E+03 0.  0.
         25    1    4    4    0    0 -0.53727264412E+02 -0.72148318439E+02 -0.13098822001E+03  0.20223110709E+03  0.12509000000E+03 0.  0.
         25    1    3    3    0    0  0.52607370854E+02  0.10453432578E+03 -0.22199063123E+03  0.28039669967E+03  0.12509000000E+03 0.  0.
         25    1    4    4    0    0  0.11198935584E+01 -0.32386007340E+02 -0.17804718138E+03  0.21999639663E+03  0.12509000000E+03 0.  0.
<mgrwt>
<rscale>  2 0.46010012E+03</rscale>
<asrwt>0</asrwt>
<pdfrwt beam="1">  1       21 0.12617513E-01 0.46010012E+03</pdfrwt>
<pdfrwt beam="2">  1       21 0.90709572E-01 0.46010012E+03</pdfrwt>
<totfact> 0.50695224E+04</totfact>
</mgrwt>
</event>
<event>
 7    0  0.4709932E-002  0.4540293E+03  0.7546771E-02  0.1026527E+00
         21   -1    0    0  502  501  0.00000000000E+00  0.00000000000E+00  0.89747174187E+02  0.89747174187E+02  0.00000000000E+00 0. -1.
         21   -1    0    0  501  502 -0.00000000000E+00 -0.00000000000E+00 -0.57423153809E+03  0.57423153809E+03  0.00000000000E+00 0. -1.
      99926    2    1    2    0    0  0.00000000000E+00 -0.71054273576E-14 -0.48448436390E+03  0.66397871227E+03  0.45402932889E+03 0.  0.
      99925    2    3    3    0    0  0.89183918787E+02 -0.54477728021E+02 -0.24320869749E+03  0.37280342225E+03  0.26250776538E+03 0.  0.
         25    1    4    4    0    0  0.14701315335E+02 -0.18770239980E+02 -0.14790722254E+03  0.19517301340E+03  0.12509000000E+03 0.  0.
         25    1    3    3    0    0 -0.89183918787E+02  0.54477728021E+02 -0.24127566640E+03  0.29117529002E+03  0.12509000000E+03 0.  0.
         25    1    4    4    0    0  0.74482603452E+02 -0.35707488041E+02 -0.95301474959E+02  0.17763040885E+03  0.12509000000E+03 0.  0.
<mgrwt>
<rscale>  2 0.45402933E+03</rscale>
<asrwt>0</asrwt>
<pdfrwt beam="1">  1       21 0.13198114E-01 0.45402933E+03</pdfrwt>
<pdfrwt beam="2">  1       21 0.84445815E-01 0.45402933E+03</pdfrwt>
<totfact> 0.55324625E+04</totfact>
</mgrwt>
</event>
<event>
 7    0  0.4709932E-002  0.4582323E+03  0.7546771E-02  0.1025295E+00
         21   -1    0    0  502  501  0.00000000000E+00  0.00000000000E+00  0.22086970586E+02  0.22086970586E+02  0.00000000000E+00 0. -1.
         21   -1    0    0  501  502 -0.00000000000E+00 -0.00000000000E+00 -0.23767053577E+04  0.23767053577E+04  0.00000000000E+00 0. -1.
      99926    2    1    2    0    0  0.00000000000E+00 -0.71054273576E-14 -0.23546183871E+04  0.23987923283E+04  0.45823234860E+03 0.  0.
      99925    2    3    3    0    0  0.16747843082E+02 -0.61100237081E+02 -0.19864279019E+04  0.20048056906E+04  0.26331790320E+03 0.  0.
         25    1    4    4    0    0 -0.65779361322E+01  0.72393724039E+01 -0.84138353699E+03  0.85068762902E+03  0.12509000000E+03 0.  0.
         25    1    3    3    0    0 -0.16747843082E+02  0.61100237081E+02 -0.36819048516E+03  0.39398663769E+03  0.12509000000E+03 0.  0.
         25    1    4    4    0    0  0.23325779214E+02 -0.68339609485E+02 -0.11450443649E+04  0.11541180615E+04  0.12509000000E+03 0.  0.
<mgrwt>
<rscale>  2 0.45823235E+03</rscale>
<asrwt>0</asrwt>
<pdfrwt beam="1">  1       21 0.32480829E-02 0.45823235E+03</pdfrwt>
<pdfrwt beam="2">  1       21 0.34951560E+00 0.45823235E+03</pdfrwt>
<totfact> 0.80200485E+03</totfact>
</mgrwt>
</event>
<event>
 7    0  0.4709932E-002  0.4562446E+03  0.7546771E-02  0.1025876E+00
         21   -1    0    0  502  501  0.00000000000E+00  0.00000000000E+00  0.14929552151E+03  0.14929552151E+03  0.00000000000E+00 0. -1.
         21   -1    0    0  501  502 -0.00000000000E+00 -0.00000000000E+00 -0.34856898558E+03  0.34856898558E+03  0.00000000000E+00 0. -1.
      99926    2    1    2    0    0  0.00000000000E+00  0.00000000000E+00 -0.19927346407E+03  0.49786450708E+03  0.45624462072E+03 0.  0.
      99925    2    3    3    0    0  0.82238808247E+02  0.79374622749E+02 -0.12157565076E+03  0.31145632429E+03  0.26298450670E+03 0.  0.
         25    1    4    4    0    0  0.28391717819E+02  0.60212207761E+02 -0.97071488737E+02  0.17176140902E+03  0.12509000000E+03 0.  0.
         25    1    3    3    0    0 -0.82238808247E+02 -0.79374622749E+02 -0.77697813310E+02  0.18640818279E+03  0.12509000000E+03 0.  0.
         25    1    4    4    0    0  0.53847090427E+02  0.19162414988E+02 -0.24504162019E+02  0.13969491527E+03  0.12509000000E+03 0.  0.
<mgrwt>
<rscale>  2 0.45624462E+03</rscale>
<asrwt>0</asrwt>
<pdfrwt beam="1">  1       21 0.21955224E-01 0.45624462E+03</pdfrwt>
<pdfrwt beam="2">  1       21 0.51260145E-01 0.45624462E+03</pdfrwt>
<totfact> 0.64778547E+04</totfact>
</mgrwt>
</event>
<event>
 7    0  0.4709932E-002  0.4516193E+03  0.7546771E-02  0.1027240E+00
         21   -1    0    0  502  501  0.00000000000E+00  0.00000000000E+00  0.72930773386E+03  0.72930773386E+03  0.00000000000E+00 0. -1.
         21   -1    0    0  501  502 -0.00000000000E+00 -0.00000000000E+00 -0.69915606705E+02  0.69915606705E+02  0.00000000000E+00 0. -1.
      99926    2    1    2    0    0  0.00000000000E+00  0.00000000000E+00  0.65939212715E+03  0.79922334056E+03  0.45161927633E+03 0.  0.
      99925    2    3    3    0    0 -0.90799159194E+02 -0.31774144480E+02  0.32175786490E+03  0.42653246770E+03  0.26295957638E+03 0.  0.
         25    1    4    4    0    0 -0.46977136987E+02 -0.37259406871E+02  0.21677569433E+03  0.25736030105E+03  0.12509000000E+03 0.  0.
         25    1    3    3    0    0  0.90799159194E+02  0.31774144480E+02  0.33763426226E+03  0.37269087287E+03  0.12509000000E+03 0.  0.
         25    1    4    4    0    0 -0.43822022207E+02  0.54852623916E+01  0.10498217056E+03  0.16917216665E+03  0.12509000000E+03 0.  0.
<mgrwt>
<rscale>  2 0.45161928E+03</rscale>
<asrwt>0</asrwt>
<pdfrwt beam="1">  1       21 0.10725113E+00 0.45161928E+03</pdfrwt>
<pdfrwt beam="2">  1       21 0.10281707E-01 0.45161928E+03</pdfrwt>
<totfact> 0.49091980E+04</totfact>
</mgrwt>
</event>
<event>
 7    0  0.4709932E-002  0.4556018E+03  0.7546771E-02  0.1026065E+00
         21   -1    0    0  502  501  0.00000000000E+00  0.00000000000E+00  0.73005799250E+02  0.73005799250E+02  0.00000000000E+00 0.  1.
         21   -1    0    0  501  502 -0.00000000000E+00 -0.00000000000E+00 -0.71080985536E+03  0.71080985536E+03  0.00000000000E+00 0.  1.
      99926    2    1    2    0    0  0.27755575616E-15  0.14210854715E-13 -0.63780405611E+03  0.78381565461E+03  0.45560176297E+03 0.  0.
      99925    2    3    3    0    0 -0.30645659306E+00  0.10650866572E+03 -0.46921539948E+03  0.54841422506E+03  0.26315562193E+03 0.  0.
         25    1    4    4    0    0 -0.93520808523E+01  0.95111325803E+02 -0.27736410519E+03  0.31892315792E+03  0.12509000000E+03 0.  0.
         25    1    3    3    0    0  0.30645659306E+00 -0.10650866572E+03 -0.16858865663E+03  0.23540142955E+03  0.12509000000E+03 0.  0.
         25    1    4    4    0    0  0.90456242593E+01  0.11397339914E+02 -0.19185129429E+03  0.22949106714E+03  0.12509000000E+03 0.  0.
<mgrwt>
<rscale>  2 0.45560176E+03</rscale>
<asrwt>0</asrwt>
<pdfrwt beam="1">  1       21 0.10736146E-01 0.45560176E+03</pdfrwt>
<pdfrwt beam="2">  1       21 0.10453087E+00 0.45560176E+03</pdfrwt>
<totfact> 0.48328954E+04</totfact>
</mgrwt>
</event>
<event>
 7    0  0.4709932E-002  0.4491940E+03  0.7546771E-02  0.1027963E+00
         21   -1    0    0  502  501  0.00000000000E+00  0.00000000000E+00  0.14238185737E+03  0.14238185737E+03  0.00000000000E+00 0. -1.
         21   -1    0    0  501  502 -0.00000000000E+00 -0.00000000000E+00 -0.35428541148E+03  0.35428541148E+03  0.00000000000E+00 0. -1.
      99926    2    1    2    0    0  0.00000000000E+00 -0.35527136788E-14 -0.21190355411E+03  0.49666726885E+03  0.44919401120E+03 0.  0.
      99925    2    3    3    0    0 -0.65067097593E+02 -0.28326400749E+02 -0.22348572713E+03  0.35238363498E+03  0.26304418603E+03 0.  0.
         25    1    3    3    0    0  0.65067097593E+02  0.28326400749E+02  0.11582173024E+02  0.14428363386E+03  0.12509000000E+03 0.  0.
         25    1    4    4    0    0 -0.71876956857E+02 -0.77372921767E+01 -0.10373400400E+03  0.17786065980E+03  0.12509000000E+03 0.  0.
         25    1    4    4    0    0  0.68098592643E+01 -0.20589108572E+02 -0.11975172313E+03  0.17452297519E+03  0.12509000000E+03 0.  0.
<mgrwt>
<rscale>  2 0.44919401E+03</rscale>
<asrwt>0</asrwt>
<pdfrwt beam="1">  1       21 0.20938509E-01 0.44919401E+03</pdfrwt>
<pdfrwt beam="2">  1       21 0.52100796E-01 0.44919401E+03</pdfrwt>
<totfact> 0.68613599E+04</totfact>
</mgrwt>
</event>
<event>
 7    0  0.4709932E-002  0.4556187E+03  0.7546771E-02  0.1026060E+00
         21   -1    0    0  502  501  0.00000000000E+00  0.00000000000E+00  0.10113815377E+04  0.10113815377E+04  0.00000000000E+00 0.  1.
         21   -1    0    0  501  502 -0.00000000000E+00 -0.00000000000E+00 -0.51313082420E+02  0.51313082420E+02  0.00000000000E+00 0.  1.
      99926    2    1    2    0    0  0.00000000000E+00  0.00000000000E+00  0.96006845524E+03  0.10626946201E+04  0.45561871867E+03 0.  0.
      99925    2    3    3    0    0  0.30727231659E+02 -0.10886805300E+03  0.57100790873E+03  0.63865213084E+03  0.26273579251E+03 0.  0.
         25    1    4    4    0    0 -0.19227677035E+02 -0.30668915894E+02  0.26760534322E+03  0.29760781876E+03  0.12509000000E+03 0.  0.
         25    1    4    4    0    0  0.49954908694E+02 -0.78199137102E+02  0.30340256551E+03  0.34104431208E+03  0.12509000000E+03 0.  0.
         25    1    3    3    0    0 -0.30727231659E+02  0.10886805300E+03  0.38906054651E+03  0.42404248924E+03  0.12509000000E+03 0.  0.
<mgrwt>
<rscale>  2 0.45561872E+03</rscale>
<asrwt>0</asrwt>
<pdfrwt beam="1">  1       21 0.14873257E+00 0.45561872E+03</pdfrwt>
<pdfrwt beam="2">  1       21 0.75460422E-02 0.45561872E+03</pdfrwt>
<totfact> 0.36637781E+04</totfact>
</mgrwt>
</event>
<event>
 6    0  0.4709932E-002  0.4039099E+03  0.7546771E-02  0.1042434E+00
         21   -1    0    0  502  501  0.00000000000E+00  0.00000000000E+00  0.24325894893E+02  0.24325894893E+02  0.00000000000E+00 0.  1.
         21   -1    0    0  501  502 -0.00000000000E+00 -0.00000000000E+00 -0.16766411617E+04  0.16766411617E+04  0.00000000000E+00 0.  1.
      99926    2    1    2    0    0  0.00000000000E+00 -0.35527136788E-14 -0.16523152668E+04  0.17009670566E+04  0.40390987446E+03 0.  0.
         25    1    3    3    0    0  0.16171447189E+02 -0.14864674509E+02 -0.81632645523E+03  0.82614699894E+03  0.12509000000E+03 0.  0.
         25    1    3    3    0    0  0.16386906988E+02  0.20815138161E+02 -0.38865086474E+03  0.40914398866E+03  0.12509000000E+03 0.  0.
         25    1    3    3    0    0 -0.32558354177E+02 -0.59504636518E+01 -0.44733794679E+03  0.46567606894E+03  0.12509000000E+03 0.  0.
<mgrwt>
<rscale>  2 0.40390987E+03</rscale>
<asrwt>0</asrwt>
<pdfrwt beam="1">  1       21 0.35773365E-02 0.40390987E+03</pdfrwt>
<pdfrwt beam="2">  1       21 0.24656495E+00 0.40390987E+03</pdfrwt>
<totfact> 0.29229105E+04</totfact>
</mgrwt>
</event>
<event>
 7    0  0.4709932E-002  0.4544499E+03  0.7546771E-02  0.1026403E+00
         21   -1    0    0  502  501  0.00000000000E+00  0.00000000000E+00  0.22158148470E+03  0.22158148470E+03  0.00000000000E+00 0.  1.
         21   -1    0    0  501  502 -0.00000000000E+00 -0.00000000000E+00 -0.23301214576E+03  0.23301214576E+03  0.00000000000E+00 0.  1.
      99926    2    1    2    0    0  0.35527136788E-14 -0.14210854715E-13 -0.11430661065E+02  0.45459363046E+03  0.45444989696E+03 0.  0.
      99925    2    3    3    0    0  0.23415147196E+02 -0.64648755722E+02 -0.96474172415E+02  0.28843816815E+03  0.26298589347E+03 0.  0.
         25    1    4    4    0    0 -0.23565797015E+02 -0.33210819771E+02 -0.68611372851E+02  0.14836891158E+03  0.12509000000E+03 0.  0.
         25    1    4    4    0    0  0.46980944211E+02 -0.31437935951E+02 -0.27862799563E+02  0.14006925657E+03  0.12509000000E+03 0.  0.
         25    1    3    3    0    0 -0.23415147196E+02  0.64648755722E+02  0.85043511349E+02  0.16615546232E+03  0.12509000000E+03 0.  0.
<mgrwt>
<rscale>  2 0.45444990E+03</rscale>
<asrwt>0</asrwt>
<pdfrwt beam="1">  1       21 0.32585513E-01 0.45444990E+03</pdfrwt>
<pdfrwt beam="2">  1       21 0.34266492E-01 0.45444990E+03</pdfrwt>
<totfact> 0.68877403E+04</totfact>
</mgrwt>
</event>
<event>
 7    0  0.4709932E-002  0.4604872E+03  0.7546771E-02  0.1024640E+00
         21   -1    0    0  502  501  0.00000000000E+00  0.00000000000E+00  0.22560120383E+03  0.22560120383E+03  0.00000000000E+00 0. -1.
         21   -1    0    0  501  502 -0.00000000000E+00 -0.00000000000E+00 -0.23498152763E+03  0.23498152763E+03  0.00000000000E+00 0. -1.
      99926    2    1    2    0    0  0.26645352591E-14  0.00000000000E+00 -0.93803237975E+01  0.46058273146E+03  0.46048720074E+03 0.  0.
      99925    2    3    3    0    0  0.69928366270E+01  0.39624428402E+02 -0.11709108440E+03  0.29067654811E+03  0.26298961669E+03 0.  0.
         25    1    4    4    0    0  0.42469264871E+02  0.86629518987E+01 -0.59106487426E+02  0.14498196491E+03  0.12509000000E+03 0.  0.
         25    1    3    3    0    0 -0.69928366270E+01 -0.39624428402E+02  0.10771076060E+03  0.16990618335E+03  0.12509000000E+03 0.  0.
         25    1    4    4    0    0 -0.35476428244E+02  0.30961476503E+02 -0.57984596972E+02  0.14569458320E+03  0.12509000000E+03 0.  0.
<mgrwt>
<rscale>  2 0.46048720E+03</rscale>
<asrwt>0</asrwt>
<pdfrwt beam="1">  1       21 0.33176648E-01 0.46048720E+03</pdfrwt>
<pdfrwt beam="2">  1       21 0.34556107E-01 0.46048720E+03</pdfrwt>
<totfact> 0.65235460E+04</totfact>
</mgrwt>
</event>
<event>
 7    0  0.4709932E-002  0.4383582E+03  0.7546771E-02  0.1031252E+00
         21   -1    0    0  502  501  0.00000000000E+00  0.00000000000E+00  0.16675320977E+03  0.16675320977E+03  0.00000000000E+00 0. -1.
         21   -1    0    0  501  502 -0.00000000000E+00 -0.00000000000E+00 -0.28808729907E+03  0.28808729907E+03  0.00000000000E+00 0. -1.
      99926    2    1    2    0    0  0.00000000000E+00 -0.22204460493E-14 -0.12133408929E+03  0.45484050884E+03  0.43835821797E+03 0.  0.
      99925    2    3    3    0    0  0.65281154457E+02 -0.20698433963E+01 -0.15154707389E+03  0.31052749516E+03  0.26304922784E+03 0.  0.
         25    1    4    4    0    0 -0.34389639479E+01  0.19208264268E+02 -0.65977721961E+02  0.14276327183E+03  0.12509000000E+03 0.  0.
         25    1    4    4    0    0  0.68720118405E+02 -0.21278107664E+02 -0.85569351933E+02  0.16776422333E+03  0.12509000000E+03 0.  0.
         25    1    3    3    0    0 -0.65281154457E+02  0.20698433963E+01  0.30212984601E+02  0.14431301368E+03  0.12509000000E+03 0.  0.
<mgrwt>
<rscale>  2 0.43835822E+03</rscale>
<asrwt>0</asrwt>
<pdfrwt beam="1">  1       21 0.24522531E-01 0.43835822E+03</pdfrwt>
<pdfrwt beam="2">  1       21 0.42365779E-01 0.43835822E+03</pdfrwt>
<totfact> 0.78433941E+04</totfact>
</mgrwt>
</event>
<event>
 7    0  0.4709932E-002  0.4502453E+03  0.7546771E-02  0.1027649E+00
         21   -1    0    0  502  501  0.00000000000E+00  0.00000000000E+00  0.34405858578E+03  0.34405858578E+03  0.00000000000E+00 0.  1.
         21   -1    0    0  501  502 -0.00000000000E+00 -0.00000000000E+00 -0.14730111734E+03  0.14730111734E+03  0.00000000000E+00 0.  1.
      99926    2    1    2    0    0  0.00000000000E+00  0.14210854715E-13  0.19675746844E+03  0.49135970312E+03  0.45024532920E+03 0.  0.
      99925    2    3    3    0    0 -0.40697745604E+02  0.10045709009E+03  0.11574805037E+03  0.30708282621E+03  0.26297208511E+03 0.  0.
         25    1    3    3    0    0  0.40697745604E+02 -0.10045709009E+03  0.81009418073E+02  0.18427687691E+03  0.12509000000E+03 0.  0.
         25    1    4    4    0    0 -0.59107768850E+02  0.66402802086E+02  0.60306850364E+02  0.16488627828E+03  0.12509000000E+03 0.  0.
         25    1    4    4    0    0  0.18410023247E+02  0.34054288000E+02  0.55441200003E+02  0.14219654794E+03  0.12509000000E+03 0.  0.
<mgrwt>
<rscale>  2 0.45024533E+03</rscale>
<asrwt>0</asrwt>
<pdfrwt beam="1">  1       21 0.50596851E-01 0.45024533E+03</pdfrwt>
<pdfrwt beam="2">  1       21 0.21661929E-01 0.45024533E+03</pdfrwt>
<totfact> 0.68428648E+04</totfact>
</mgrwt>
</event>
<event>
 7    0  0.4709932E-002  0.4560703E+03  0.7546771E-02  0.1025927E+00
         21   -1    0    0  502  501  0.00000000000E+00  0.00000000000E+00  0.82174973413E+03  0.82174973413E+03  0.00000000000E+00 0.  1.
         21   -1    0    0  501  502 -0.00000000000E+00 -0.00000000000E+00 -0.63279642455E+02  0.63279642455E+02  0.00000000000E+00 0.  1.
      99926    2    1    2    0    0  0.00000000000E+00 -0.14210854715E-13  0.75847009168E+03  0.88502937659E+03  0.45607029880E+03 0.  0.
      99925    2    3    3    0    0 -0.46600880155E+02  0.72728367487E+02  0.62173581956E+03  0.68056708975E+03  0.26297352881E+03 0.  0.
         25    1    4    4    0    0 -0.22769101132E+02  0.61554228400E+02  0.24589708850E+03  0.28358462799E+03  0.12509000000E+03 0.  0.
         25    1    3    3    0    0  0.46600880155E+02 -0.72728367487E+02  0.13673427212E+03  0.20446228684E+03  0.12509000000E+03 0.  0.
         25    1    4    4    0    0 -0.23831779022E+02  0.11174139087E+02  0.37583873106E+03  0.39698246176E+03  0.12509000000E+03 0.  0.
<mgrwt>
<rscale>  2 0.45607030E+03</rscale>
<asrwt>0</asrwt>
<pdfrwt beam="1">  1       21 0.12084554E+00 0.45607030E+03</pdfrwt>
<pdfrwt beam="2">  1       21 0.93058303E-02 0.45607030E+03</pdfrwt>
<totfact> 0.43521379E+04</totfact>
</mgrwt>
</event>
<event>
 7    0  0.4709932E-002  0.4542728E+03  0.7546771E-02  0.1026455E+00
         21   -1    0    0  502  501  0.00000000000E+00  0.00000000000E+00  0.12521440589E+03  0.12521440589E+03  0.00000000000E+00 0. -1.
         21   -1    0    0  501  502 -0.00000000000E+00 -0.00000000000E+00 -0.41202082814E+03  0.41202082814E+03  0.00000000000E+00 0. -1.
      99926    2    1    2    0    0  0.00000000000E+00  0.00000000000E+00 -0.28680642225E+03  0.53723523403E+03  0.45427279562E+03 0.  0.
      99925    2    3    3    0    0 -0.20684245292E+02  0.83056326892E+02 -0.94316993668E+02  0.29223343882E+03  0.26301805267E+03 0.  0.
         25    1    4    4    0    0 -0.26579742849E+02  0.61849184663E+02 -0.83463245018E+02  0.16475868943E+03  0.12509000000E+03 0.  0.
         25    1    3    3    0    0  0.20684245292E+02 -0.83056326892E+02 -0.19248942859E+03  0.24500179521E+03  0.12509000000E+03 0.  0.
         25    1    4    4    0    0  0.58954975574E+01  0.21207142229E+02 -0.10853748649E+02  0.12747474939E+03  0.12509000000E+03 0.  0.
<mgrwt>
<rscale>  2 0.45427280E+03</rscale>
<asrwt>0</asrwt>
<pdfrwt beam="1">  1       21 0.18413883E-01 0.45427280E+03</pdfrwt>
<pdfrwt beam="2">  1       21 0.60591298E-01 0.45427280E+03</pdfrwt>
<totfact> 0.63080252E+04</totfact>
</mgrwt>
</event>
<event>
 7    0  0.4709932E-002  0.4495024E+03  0.7546771E-02  0.1027871E+00
         21   -1    0    0  502  501  0.00000000000E+00  0.00000000000E+00  0.17978424945E+04  0.17978424945E+04  0.00000000000E+00 0. -1.
         21   -1    0    0  501  502 -0.00000000000E+00 -0.00000000000E+00 -0.28096516709E+02  0.28096516709E+02  0.00000000000E+00 0. -1.
      99926    2    1    2    0    0  0.00000000000E+00  0.00000000000E+00  0.17697459778E+04  0.18259390112E+04  0.44950244353E+03 0.  0.
      99925    2    3    3    0    0 -0.61445328303E+02 -0.77430590993E+02  0.12940356177E+04  0.13242230760E+04  0.26318729164E+03 0.  0.
         25    1    4    4    0    0  0.48785161388E+00 -0.62601630326E+02  0.69851772518E+03  0.71238593656E+03  0.12509000000E+03 0.  0.
         25    1    3    3    0    0  0.61445328303E+02  0.77430590993E+02  0.47571036010E+03  0.50171593516E+03  0.12509000000E+03 0.  0.
         25    1    4    4    0    0 -0.61933179917E+02 -0.14828960667E+02  0.59551789249E+03  0.61183713946E+03  0.12509000000E+03 0.  0.
<mgrwt>
<rscale>  2 0.44950244E+03</rscale>
<asrwt>0</asrwt>
<pdfrwt beam="1">  1       21 0.26438852E+00 0.44950244E+03</pdfrwt>
<pdfrwt beam="2">  1       21 0.41318419E-02 0.44950244E+03</pdfrwt>
<totfact> 0.17501217E+04</totfact>
</mgrwt>
</event>
<event>
 7    0  0.4709932E-002  0.4345413E+03  0.7546771E-02  0.1032435E+00
         21   -1    0    0  502  501  0.00000000000E+00  0.00000000000E+00  0.14864899872E+03  0.14864899872E+03  0.00000000000E+00 0.  1.
         21   -1    0    0  501  502 -0.00000000000E+00 -0.00000000000E+00 -0.31757051491E+03  0.31757051491E+03  0.00000000000E+00 0.  1.
      99926    2    1    2    0    0  0.00000000000E+00  0.00000000000E+00 -0.16892151619E+03  0.46621951362E+03  0.43454131708E+03 0.  0.
      99925    2    3    3    0    0 -0.84154720043E+02  0.38274836645E+02 -0.11463864971E+03  0.30147389845E+03  0.26305419862E+03 0.  0.
         25    1    4    4    0    0 -0.23579791443E+02  0.52192382055E+02 -0.72859861349E+02  0.15567953881E+03  0.12509000000E+03 0.  0.
         25    1    3    3    0    0  0.84154720043E+02 -0.38274836645E+02 -0.54282866481E+02  0.16474561517E+03  0.12509000000E+03 0.  0.
         25    1    4    4    0    0 -0.60574928600E+02 -0.13917545410E+02 -0.41778788365E+02  0.14579435964E+03  0.12509000000E+03 0.  0.
<mgrwt>
<rscale>  2 0.43454132E+03</rscale>
<asrwt>0</asrwt>
<pdfrwt beam="1">  1       21 0.21860147E-01 0.43454132E+03</pdfrwt>
<pdfrwt beam="2">  1       21 0.46701546E-01 0.43454132E+03</pdfrwt>
<totfact> 0.79928627E+04</totfact>
</mgrwt>
</event>
<event>
 7    0  0.4709932E-002  0.4490067E+03  0.7546771E-02  0.1028019E+00
         21   -1    0    0  502  501  0.00000000000E+00  0.00000000000E+00  0.47271403955E+02  0.47271403955E+02  0.00000000000E+00 0.  1.
         21   -1    0    0  501  502 -0.00000000000E+00 -0.00000000000E+00 -0.10662206684E+04  0.10662206684E+04  0.00000000000E+00 0.  1.
      99926    2    1    2    0    0  0.00000000000E+00  0.00000000000E+00 -0.10189492645E+04  0.11134920724E+04  0.44900667221E+03 0.  0.
      99925    2    3    3    0    0 -0.51880150854E+02 -0.93474979622E+02 -0.61805424603E+03  0.68014066097E+03  0.26300407942E+03 0.  0.
         25    1    4    4    0    0 -0.39960364225E+02 -0.53747240580E+02 -0.22924815413E+03  0.26960678933E+03  0.12509000000E+03 0.  0.
         25    1    4    4    0    0 -0.11919786629E+02 -0.39727739043E+02 -0.38880609190E+03  0.41053387164E+03  0.12509000000E+03 0.  0.
         25    1    3    3    0    0  0.51880150854E+02  0.93474979622E+02 -0.40089501846E+03  0.43335141143E+03  0.12509000000E+03 0.  0.
<mgrwt>
<rscale>  2 0.44900667E+03</rscale>
<asrwt>0</asrwt>
<pdfrwt beam="1">  1       21 0.69516772E-02 0.44900667E+03</pdfrwt>
<pdfrwt beam="2">  1       21 0.15679715E+00 0.44900667E+03</pdfrwt>
<totfact> 0.36710536E+04</totfact>
</mgrwt>
</event>
<event>
 7    0  0.4709932E-002  0.4462421E+03  0.7546771E-02  0.1028849E+00
         21   -1    0    0  502  501  0.00000000000E+00  0.00000000000E+00  0.84730427648E+03  0.84730427648E+03  0.00000000000E+00 0. -1.
         21   -1    0    0  501  502 -0.00000000000E+00 -0.00000000000E+00 -0.58754584944E+02  0.58754584944E+02  0.00000000000E+00 0. -1.
      99926    2    1    2    0    0  0.00000000000E+00  0.00000000000E+00  0.78854969154E+03  0.90605886143E+03  0.44624213645E+03 0.  0.
      99925    2    3    3    0    0  0.38779528928E+02  0.34845728042E+02  0.68489440447E+03  0.73544232277E+03  0.26282501445E+03 0.  0.
         25    1    3    3    0    0 -0.38779528928E+02 -0.34845728042E+02  0.10365528707E+03  0.17061653866E+03  0.12509000000E+03 0.  0.
         25    1    4    4    0    0  0.12656470976E+02 -0.10027900519E+00  0.43232732585E+03  0.45023840473E+03  0.12509000000E+03 0.  0.
         25    1    4    4    0    0  0.26123057952E+02  0.34946007047E+02  0.25256707862E+03  0.28520391804E+03  0.12509000000E+03 0.  0.
<mgrwt>
<rscale>  2 0.44624214E+03</rscale>
<asrwt>0</asrwt>
<pdfrwt beam="1">  1       21 0.12460356E+00 0.44624214E+03</pdfrwt>
<pdfrwt beam="2">  1       21 0.86403806E-02 0.44624214E+03</pdfrwt>
<totfact> 0.46048425E+04</totfact>
</mgrwt>
</event>
<event>
 7    0  0.4709932E-002  0.4535481E+03  0.7546771E-02  0.1026669E+00
         21   -1    0    0  502  501  0.00000000000E+00  0.00000000000E+00  0.15886706553E+03  0.15886706553E+03  0.00000000000E+00 0. -1.
         21   -1    0    0  501  502 -0.00000000000E+00 -0.00000000000E+00 -0.32370755918E+03  0.32370755918E+03  0.00000000000E+00 0. -1.
      99926    2    1    2    0    0  0.71054273576E-14  0.14210854715E-13 -0.16484049366E+03  0.48257462471E+03  0.45354810116E+03 0.  0.
      99925    2    3    3    0    0  0.34581046704E+02  0.93933259717E+02 -0.15701262153E+03  0.32217484368E+03  0.26291512034E+03 0.  0.
         25    1    4    4    0    0  0.56751045907E+02  0.58613462624E+02 -0.88130343801E+02  0.17340901018E+03  0.12509000000E+03 0.  0.
         25    1    4    4    0    0 -0.22169999203E+02  0.35319797094E+02 -0.68882277730E+02  0.14876583350E+03  0.12509000000E+03 0.  0.
         25    1    3    3    0    0 -0.34581046704E+02 -0.93933259717E+02 -0.78278721249E+01  0.16039978103E+03  0.12509000000E+03 0.  0.
<mgrwt>
<rscale>  2 0.45354810E+03</rscale>
<asrwt>0</asrwt>
<pdfrwt beam="1">  1       21 0.23362804E-01 0.45354810E+03</pdfrwt>
<pdfrwt beam="2">  1       21 0.47604052E-01 0.45354810E+03</pdfrwt>
<totfact> 0.67285313E+04</totfact>
</mgrwt>
</event>
<event>
 7    0  0.4709932E-002  0.4495748E+03  0.7546771E-02  0.1027849E+00
         21   -1    0    0  502  501  0.00000000000E+00  0.00000000000E+00  0.16324339382E+03  0.16324339382E+03  0.00000000000E+00 0.  1.
         21   -1    0    0  501  502 -0.00000000000E+00 -0.00000000000E+00 -0.30953403359E+03  0.30953403359E+03  0.00000000000E+00 0.  1.
      99926    2    1    2    0    0  0.00000000000E+00  0.00000000000E+00 -0.14629063978E+03  0.47277742741E+03  0.44957484870E+03 0.  0.
      99925    2    3    3    0    0 -0.10627878196E+03  0.19376076310E+02 -0.90682133046E+02  0.29839157378E+03  0.26295184011E+03 0.  0.
         25    1    4    4    0    0 -0.63795567338E+02  0.48871707661E+02 -0.41363331330E+02  0.15432676858E+03  0.12509000000E+03 0.  0.
         25    1    3    3    0    0  0.10627878196E+03 -0.19376076310E+02 -0.55608506730E+02  0.17438585364E+03  0.12509000000E+03 0.  0.
         25    1    4    4    0    0 -0.42483214621E+02 -0.29495631352E+02 -0.49318801716E+02  0.14406480520E+03  0.12509000000E+03 0.  0.
<mgrwt>
<rscale>  2 0.44957485E+03</rscale>
<asrwt>0</asrwt>
<pdfrwt beam="1">  1       21 0.24006381E-01 0.44957485E+03</pdfrwt>
<pdfrwt beam="2">  1       21 0.45519711E-01 0.44957485E+03</pdfrwt>
<totfact> 0.70204016E+04</totfact>
</mgrwt>
</event>
<event>
 7    0  0.4709932E-002  0.4532264E+03  0.7546771E-02  0.1026764E+00
         21   -1    0    0  502  501  0.00000000000E+00  0.00000000000E+00  0.15801995571E+03  0.15801995571E+03  0.00000000000E+00 0. -1.
         21   -1    0    0  501  502 -0.00000000000E+00 -0.00000000000E+00 -0.32498138995E+03  0.32498138995E+03  0.00000000000E+00 0. -1.
      99926    2    1    2    0    0  0.00000000000E+00  0.00000000000E+00 -0.16696143424E+03  0.48300134566E+03  0.45322641073E+03 0.  0.
      99925    2    3    3    0    0 -0.11212962158E+02 -0.11093431153E+03 -0.10782208187E+03  0.30530181528E+03  0.26296662351E+03 0.  0.
         25    1    4    4    0    0  0.15957295143E+02 -0.59273001729E+02 -0.90574066656E+02  0.16618993247E+03  0.12509000000E+03 0.  0.
         25    1    4    4    0    0 -0.27170257300E+02 -0.51661309806E+02 -0.17248015217E+02  0.13911188282E+03  0.12509000000E+03 0.  0.
         25    1    3    3    0    0  0.11212962158E+02  0.11093431153E+03 -0.59139352368E+02  0.17769953037E+03  0.12509000000E+03 0.  0.
<mgrwt>
<rscale>  2 0.45322641E+03</rscale>
<asrwt>0</asrwt>
<pdfrwt beam="1">  1       21 0.23238229E-01 0.45322641E+03</pdfrwt>
<pdfrwt beam="2">  1       21 0.47791381E-01 0.45322641E+03</pdfrwt>
<totfact> 0.67426589E+04</totfact>
</mgrwt>
</event>
<event>
 7    0  0.4709932E-002  0.4583183E+03  0.7546771E-02  0.1025270E+00
         21   -1    0    0  502  501  0.00000000000E+00  0.00000000000E+00  0.21830754484E+04  0.21830754484E+04  0.00000000000E+00 0. -1.
         21   -1    0    0  501  502 -0.00000000000E+00 -0.00000000000E+00 -0.24055016108E+02  0.24055016108E+02  0.00000000000E+00 0. -1.
      99926    2    1    2    0    0  0.00000000000E+00  0.00000000000E+00  0.21590204323E+04  0.22071304645E+04  0.45831829585E+03 0.  0.
      99925    2    3    3    0    0 -0.46418100444E+02 -0.10622816274E+03  0.13959531056E+04  0.14252364079E+04  0.26301080346E+03 0.  0.
         25    1    4    4    0    0 -0.51995213452E+02 -0.34406499152E+02  0.79478113830E+03  0.80697699800E+03  0.12509000000E+03 0.  0.
         25    1    3    3    0    0  0.46418100444E+02  0.10622816274E+03  0.76306732672E+03  0.78189405664E+03  0.12509000000E+03 0.  0.
         25    1    4    4    0    0  0.55771130081E+01 -0.71821663592E+02  0.60117196731E+03  0.61825940990E+03  0.12509000000E+03 0.  0.
<mgrwt>
<rscale>  2 0.45831830E+03</rscale>
<asrwt>0</asrwt>
<pdfrwt beam="1">  1       21 0.32104037E+00 0.45831830E+03</pdfrwt>
<pdfrwt beam="2">  1       21 0.35375039E-02 0.45831830E+03</pdfrwt>
<totfact> 0.10344293E+04</totfact>
</mgrwt>
</event>
<event>
 7    0  0.4709932E-002  0.4602524E+03  0.7546771E-02  0.1024708E+00
         21   -1    0    0  502  501  0.00000000000E+00  0.00000000000E+00  0.43608674853E+02  0.43608674853E+02  0.00000000000E+00 0. -1.
         21   -1    0    0  501  502 -0.00000000000E+00 -0.00000000000E+00 -0.12143927864E+04  0.12143927864E+04  0.00000000000E+00 0. -1.
      99926    2    1    2    0    0 -0.71054273576E-14  0.00000000000E+00 -0.11707841116E+04  0.12580014613E+04  0.46025236629E+03 0.  0.
      99925    2    3    3    0    0  0.47578973828E+02 -0.77609738144E+02 -0.52776744237E+03  0.59663546943E+03  0.26296079546E+03 0.  0.
         25    1    3    3    0    0 -0.47578973828E+02  0.77609738144E+02 -0.64301666922E+03  0.66136599187E+03  0.12509000000E+03 0.  0.
         25    1    4    4    0    0 -0.16182598895E+02 -0.32950538185E+02 -0.26691073064E+03  0.29704622654E+03  0.12509000000E+03 0.  0.
         25    1    4    4    0    0  0.63761572724E+02 -0.44659199958E+02 -0.26085671173E+03  0.29958924288E+03  0.12509000000E+03 0.  0.
<mgrwt>
<rscale>  2 0.46025237E+03</rscale>
<asrwt>0</asrwt>
<pdfrwt beam="1">  1       21 0.64130414E-02 0.46025237E+03</pdfrwt>
<pdfrwt beam="2">  1       21 0.17858715E+00 0.46025237E+03</pdfrwt>
<totfact> 0.29149140E+04</totfact>
</mgrwt>
</event>
<event>
 7    0  0.4709932E-002  0.4583327E+03  0.7546771E-02  0.1025266E+00
         21   -1    0    0  502  501  0.00000000000E+00  0.00000000000E+00  0.84398184052E+03  0.84398184052E+03  0.00000000000E+00 0. -1.
         21   -1    0    0  501  502 -0.00000000000E+00 -0.00000000000E+00 -0.62225536331E+02  0.62225536331E+02  0.00000000000E+00 0. -1.
      99926    2    1    2    0    0 -0.35527136788E-14  0.00000000000E+00  0.78175630419E+03  0.90620737685E+03  0.45833272927E+03 0.  0.
      99925    2    3    3    0    0  0.23880741886E+02  0.11383125646E+03  0.48138338957E+03  0.56066542467E+03  0.26284578347E+03 0.  0.
         25    1    3    3    0    0 -0.23880741886E+02 -0.11383125646E+03  0.30037291462E+03  0.34554195219E+03  0.12509000000E+03 0.  0.
         25    1    4    4    0    0  0.52170824286E+02  0.56066382903E+02  0.25310139205E+03  0.29252872843E+03  0.12509000000E+03 0.  0.
         25    1    4    4    0    0 -0.28290082399E+02  0.57764873559E+02  0.22828199752E+03  0.26813669624E+03  0.12509000000E+03 0.  0.
<mgrwt>
<rscale>  2 0.45833273E+03</rscale>
<asrwt>0</asrwt>
<pdfrwt beam="1">  1       21 0.12411497E+00 0.45833273E+03</pdfrwt>
<pdfrwt beam="2">  1       21 0.91508147E-02 0.45833273E+03</pdfrwt>
<totfact> 0.41863408E+04</totfact>
</mgrwt>
</event>
<event>
 7    0  0.4709932E-002  0.4490662E+03  0.7546771E-02  0.1028001E+00
         21   -1    0    0  502  501  0.00000000000E+00  0.00000000000E+00  0.77508711950E+02  0.77508711950E+02  0.00000000000E+00 0.  1.
         21   -1    0    0  501  502 -0.00000000000E+00 -0.00000000000E+00 -0.65044448896E+03  0.65044448896E+03  0.00000000000E+00 0.  1.
      99926    2    1    2    0    0  0.17763568394E-14 -0.14210854715E-13 -0.57293577701E+03  0.72795320091E+03  0.44906620685E+03 0.  0.
      99925    2    3    3    0    0 -0.15473692717E+02  0.96569805976E+02 -0.43473077228E+03  0.51744597057E+03  0.26304814293E+03 0.  0.
         25    1    4    4    0    0  0.13567710269E+02  0.84697110328E+02 -0.23398867866E+03  0.27884743696E+03  0.12509000000E+03 0.  0.
         25    1    3    3    0    0  0.15473692717E+02 -0.96569805976E+02 -0.13820500473E+03  0.21050723034E+03  0.12509000000E+03 0.  0.
         25    1    4    4    0    0 -0.29041402986E+02  0.11872695648E+02 -0.20074209362E+03  0.23859853361E+03  0.12509000000E+03 0.  0.
<mgrwt>
<rscale>  2 0.44906621E+03</rscale>
<asrwt>0</asrwt>
<pdfrwt beam="1">  1       21 0.11398340E-01 0.44906621E+03</pdfrwt>
<pdfrwt beam="2">  1       21 0.95653604E-01 0.44906621E+03</pdfrwt>
<totfact> 0.53882059E+04</totfact>
</mgrwt>
</event>
<event>
 7    0  0.4709932E-002  0.4558336E+03  0.7546771E-02  0.1025997E+00
         21   -1    0    0  502  501  0.00000000000E+00  0.00000000000E+00  0.56120687492E+02  0.56120687492E+02  0.00000000000E+00 0.  1.
         21   -1    0    0  501  502 -0.00000000000E+00 -0.00000000000E+00 -0.92561363183E+03  0.92561363183E+03  0.00000000000E+00 0.  1.
      99926    2    1    2    0    0  0.00000000000E+00  0.00000000000E+00 -0.86949294434E+03  0.98173431932E+03  0.45583362478E+03 0.  0.
      99925    2    3    3    0    0 -0.45266275193E+02  0.12141447104E+02 -0.77047046116E+03  0.81545319988E+03  0.26295006992E+03 0.  0.
         25    1    3    3    0    0  0.45266275193E+02 -0.12141447104E+02 -0.99022483178E+02  0.16628111944E+03  0.12509000000E+03 0.  0.
         25    1    4    4    0    0 -0.18007300411E+02  0.92342016500E+01 -0.26099255406E+03  0.29012782480E+03  0.12509000000E+03 0.  0.
         25    1    4    4    0    0 -0.27258974782E+02  0.29072454542E+01 -0.50947790710E+03  0.52532537508E+03  0.12509000000E+03 0.  0.
<mgrwt>
<rscale>  2 0.45583362E+03</rscale>
<asrwt>0</asrwt>
<pdfrwt beam="1">  1       21 0.82530431E-02 0.45583362E+03</pdfrwt>
<pdfrwt beam="2">  1       21 0.13611964E+00 0.45583362E+03</pdfrwt>
<totfact> 0.39622808E+04</totfact>
</mgrwt>
</event>
<event>
 7    0  0.4709932E-002  0.4580161E+03  0.7546771E-02  0.1025358E+00
         21   -1    0    0  502  501  0.00000000000E+00  0.00000000000E+00  0.28531147331E+03  0.28531147331E+03  0.00000000000E+00 0.  1.
         21   -1    0    0  501  502 -0.00000000000E+00 -0.00000000000E+00 -0.18381556742E+03  0.18381556742E+03  0.00000000000E+00 0.  1.
      99926    2    1    2    0    0  0.00000000000E+00  0.00000000000E+00  0.10149590589E+03  0.46912704073E+03  0.45801611481E+03 0.  0.
      99925    2    3    3    0    0  0.26430286489E+02 -0.32643935810E+02 -0.47119511438E+02  0.27038540705E+03  0.26291411791E+03 0.  0.
         25    1    3    3    0    0 -0.26430286489E+02  0.32643935810E+02  0.14861541733E+03  0.19874163368E+03  0.12509000000E+03 0.  0.
         25    1    4    4    0    0  0.51676956840E+02 -0.10110458660E+02 -0.35450151156E+02  0.14027455421E+03  0.12509000000E+03 0.  0.
         25    1    4    4    0    0 -0.25246670351E+02 -0.22533477150E+02 -0.11669360282E+02  0.13011085284E+03  0.12509000000E+03 0.  0.
<mgrwt>
<rscale>  2 0.45801611E+03</rscale>
<asrwt>0</asrwt>
<pdfrwt beam="1">  1       21 0.41957570E-01 0.45801611E+03</pdfrwt>
<pdfrwt beam="2">  1       21 0.27031701E-01 0.45801611E+03</pdfrwt>
<totfact> 0.65910032E+04</totfact>
</mgrwt>
</event>
<event>
 7    0  0.4709932E-002  0.4597355E+03  0.7546771E-02  0.1024858E+00
         21   -1    0    0  502  501  0.00000000000E+00  0.00000000000E+00  0.38476243170E+03  0.38476243170E+03  0.00000000000E+00 0.  1.
         21   -1    0    0  501  502 -0.00000000000E+00 -0.00000000000E+00 -0.13732936255E+03  0.13732936255E+03  0.00000000000E+00 0.  1.
      99926    2    1    2    0    0  0.00000000000E+00 -0.88817841970E-15  0.24743306916E+03  0.52209179425E+03  0.45973548689E+03 0.  0.
      99925    2    3    3    0    0  0.45702835854E+02  0.29246172857E+01  0.27801865082E+03  0.38541594233E+03  0.26297105507E+03 0.  0.
         25    1    4    4    0    0  0.55833871498E+02  0.15682836074E+02  0.17336778371E+03  0.22151132947E+03  0.12509000000E+03 0.  0.
         25    1    4    4    0    0 -0.10131035645E+02 -0.12758218788E+02  0.10465086711E+03  0.16390461286E+03  0.12509000000E+03 0.  0.
         25    1    3    3    0    0 -0.45702835854E+02 -0.29246172857E+01 -0.30585581667E+02  0.13667585192E+03  0.12509000000E+03 0.  0.
<mgrwt>
<rscale>  2 0.45973549E+03</rscale>
<asrwt>0</asrwt>
<pdfrwt beam="1">  1       21 0.56582710E-01 0.45973549E+03</pdfrwt>
<pdfrwt beam="2">  1       21 0.20195495E-01 0.45973549E+03</pdfrwt>
<totfact> 0.61405259E+04</totfact>
</mgrwt>
</event>
<event>
 7    0  0.4709932E-002  0.4535355E+03  0.7546771E-02  0.1026673E+00
         21   -1    0    0  502  501  0.00000000000E+00  0.00000000000E+00  0.42031519362E+02  0.42031519362E+02  0.00000000000E+00 0.  1.
         21   -1    0    0  501  502 -0.00000000000E+00 -0.00000000000E+00 -0.12234534162E+04  0.12234534162E+04  0.00000000000E+00 0.  1.
      99926    2    1    2    0    0 -0.14210854715E-13  0.00000000000E+00 -0.11814218968E+04  0.12654849356E+04  0.45353547139E+03 0.  0.
      99925    2    3    3    0    0 -0.81153560540E+02  0.63465197660E+02 -0.86530898960E+03  0.91025457379E+03  0.26303993978E+03 0.  0.
         25    1    4    4    0    0 -0.70657252866E+01  0.43578382565E+01 -0.40092671326E+03  0.42006981888E+03  0.12509000000E+03 0.  0.
         25    1    4    4    0    0 -0.74087835254E+02  0.59107359404E+02 -0.46438227634E+03  0.49018475491E+03  0.12509000000E+03 0.  0.
         25    1    3    3    0    0  0.81153560540E+02 -0.63465197660E+02 -0.31611290725E+03  0.35523036178E+03  0.12509000000E+03 0.  0.
<mgrwt>
<rscale>  2 0.45353547E+03</rscale>
<asrwt>0</asrwt>
<pdfrwt beam="1">  1       21 0.61811066E-02 0.45353547E+03</pdfrwt>
<pdfrwt beam="2">  1       21 0.17991960E+00 0.45353547E+03</pdfrwt>
<totfact> 0.30479748E+04</totfact>
</mgrwt>
</event>
<event>
 7    0  0.4709932E-002  0.4512493E+03  0.7546771E-02  0.1027350E+00
         21   -1    0    0  502  501  0.00000000000E+00  0.00000000000E+00  0.14549646609E+03  0.14549646609E+03  0.00000000000E+00 0. -1.
         21   -1    0    0  501  502 -0.00000000000E+00 -0.00000000000E+00 -0.34988122344E+03  0.34988122344E+03  0.00000000000E+00 0. -1.
      99926    2    1    2    0    0 -0.14210854715E-13  0.00000000000E+00 -0.20438475735E+03  0.49537768952E+03  0.45124929500E+03 0.  0.
      99925    2    3    3    0    0 -0.83085515340E+02  0.70276200386E+02 -0.11525378681E+03  0.30713905053E+03  0.26307606084E+03 0.  0.
         25    1    4    4    0    0 -0.72582747857E+02  0.11006967349E+02 -0.47134987924E+02  0.15250778276E+03  0.12509000000E+03 0.  0.
         25    1    4    4    0    0 -0.10502767483E+02  0.59269233037E+02 -0.68118798882E+02  0.15463126777E+03  0.12509000000E+03 0.  0.
         25    1    3    3    0    0  0.83085515340E+02 -0.70276200386E+02 -0.89130970544E+02  0.18823863899E+03  0.12509000000E+03 0.  0.
<mgrwt>
<rscale>  2 0.45124930E+03</rscale>
<asrwt>0</asrwt>
<pdfrwt beam="1">  1       21 0.21396539E-01 0.45124930E+03</pdfrwt>
<pdfrwt beam="2">  1       21 0.51453120E-01 0.45124930E+03</pdfrwt>
<totfact> 0.67586665E+04</totfact>
</mgrwt>
</event>
<event>
 7    0  0.4709932E-002  0.4563077E+03  0.7546771E-02  0.1025858E+00
         21   -1    0    0  502  501  0.00000000000E+00  0.00000000000E+00  0.14920799735E+03  0.14920799735E+03  0.00000000000E+00 0. -1.
         21   -1    0    0  501  502 -0.00000000000E+00 -0.00000000000E+00 -0.34886991546E+03  0.34886991546E+03  0.00000000000E+00 0. -1.
      99926    2    1    2    0    0  0.17763568394E-14 -0.35527136788E-14 -0.19966191810E+03  0.49807791281E+03  0.45630770944E+03 0.  0.
      99925    2    3    3    0    0 -0.10317149542E+02  0.16212434789E+02 -0.24044932808E+01  0.26371220209E+03  0.26300010898E+03 0.  0.
         25    1    3    3    0    0  0.10317149542E+02 -0.16212434789E+02 -0.19725742482E+03  0.23436571073E+03  0.12509000000E+03 0.  0.
         25    1    4    4    0    0 -0.21671277693E+02 -0.24356982009E+02 -0.19080610244E+02  0.13066937146E+03  0.12509000000E+03 0.  0.
         25    1    4    4    0    0  0.11354128151E+02  0.40569416797E+02  0.16676116964E+02  0.13304283063E+03  0.12509000000E+03 0.  0.
<mgrwt>
<rscale>  2 0.45630771E+03</rscale>
<asrwt>0</asrwt>
<pdfrwt beam="1">  1       21 0.21942353E-01 0.45630771E+03</pdfrwt>
<pdfrwt beam="2">  1       21 0.51304399E-01 0.45630771E+03</pdfrwt>
<totfact> 0.64731310E+04</totfact>
</mgrwt>
</event>
<event>
 7    0  0.4709932E-002  0.4515000E+03  0.7546771E-02  0.1027276E+00
         21   -1    0    0  502  501  0.00000000000E+00  0.00000000000E+00  0.55915304028E+02  0.55915304028E+02  0.00000000000E+00 0.  1.
         21   -1    0    0  501  502 -0.00000000000E+00 -0.00000000000E+00 -0.91143307590E+03  0.91143307590E+03  0.00000000000E+00 0.  1.
      99926    2    1    2    0    0 -0.14210854715E-13  0.35527136788E-14 -0.85551777188E+03  0.96734837993E+03  0.45149997803E+03 0.  0.
      99925    2    3    3    0    0  0.89476636252E+02 -0.26114251586E+02 -0.41560614234E+03  0.50059601253E+03  0.26302068292E+03 0.  0.
         25    1    3    3    0    0 -0.89476636252E+02  0.26114251586E+02 -0.43991162954E+03  0.46675236740E+03  0.12509000000E+03 0.  0.
         25    1    4    4    0    0  0.26159261736E+02 -0.41398546880E+02 -0.16236896868E+03  0.21073522902E+03  0.12509000000E+03 0.  0.
         25    1    4    4    0    0  0.63317374516E+02  0.15284295294E+02 -0.25323717366E+03  0.28986078351E+03  0.12509000000E+03 0.  0.
<mgrwt>
<rscale>  2 0.45149998E+03</rscale>
<asrwt>0</asrwt>
<pdfrwt beam="1">  1       21 0.82228390E-02 0.45149998E+03</pdfrwt>
<pdfrwt beam="2">  1       21 0.13403427E+00 0.45149998E+03</pdfrwt>
<totfact> 0.41572180E+04</totfact>
</mgrwt>
</event>
<event>
 7    0  0.4709932E-002  0.4388585E+03  0.7546771E-02  0.1031098E+00
         21   -1    0    0  502  501  0.00000000000E+00  0.00000000000E+00  0.38931235590E+03  0.38931235590E+03  0.00000000000E+00 0. -1.
         21   -1    0    0  501  502 -0.00000000000E+00 -0.00000000000E+00 -0.12367752847E+03  0.12367752847E+03  0.00000000000E+00 0. -1.
      99926    2    1    2    0    0 -0.22204460493E-15 -0.71054273576E-14  0.26563482743E+03  0.51298988437E+03  0.43885847368E+03 0.  0.
      99925    2    3    3    0    0  0.13467408271E+01  0.63991138058E+02  0.83892224603E+02  0.28326273917E+03  0.26287486489E+03 0.  0.
         25    1    4    4    0    0 -0.32821640716E+00  0.21785250902E+02  0.82133397593E+02  0.15122204860E+03  0.12509000000E+03 0.  0.
         25    1    3    3    0    0 -0.13467408271E+01 -0.63991138058E+02  0.18174260282E+03  0.22972714520E+03  0.12509000000E+03 0.  0.
         25    1    4    4    0    0  0.16749572343E+01  0.42205887155E+02  0.17588270098E+01  0.13204069056E+03  0.12509000000E+03 0.  0.
<mgrwt>
<rscale>  2 0.43885847E+03</rscale>
<asrwt>0</asrwt>
<pdfrwt beam="1">  1       21 0.57251817E-01 0.43885847E+03</pdfrwt>
<pdfrwt beam="2">  1       21 0.18187872E-01 0.43885847E+03</pdfrwt>
<totfact> 0.73311871E+04</totfact>
</mgrwt>
</event>
<event>
 7    0  0.4709932E-002  0.4568723E+03  0.7546771E-02  0.1025692E+00
         21   -1    0    0  502  501  0.00000000000E+00  0.00000000000E+00  0.21132176590E+03  0.21132176590E+03  0.00000000000E+00 0.  1.
         21   -1    0    0  501  502 -0.00000000000E+00 -0.00000000000E+00 -0.24693655671E+03  0.24693655671E+03  0.00000000000E+00 0.  1.
      99926    2    1    2    0    0 -0.88817841970E-15  0.00000000000E+00 -0.35614790806E+02  0.45825832261E+03  0.45687227637E+03 0.  0.
      99925    2    3    3    0    0 -0.69617505946E+01 -0.81254116270E+02  0.58811913084E+02  0.28158175968E+03  0.26301853334E+03 0.  0.
         25    1    4    4    0    0 -0.14283122046E+02 -0.80600242463E+02  0.22936676246E+02  0.15124154812E+03  0.12509000000E+03 0.  0.
         25    1    3    3    0    0  0.69617505946E+01  0.81254116270E+02 -0.94426703889E+02  0.17667656293E+03  0.12509000000E+03 0.  0.
         25    1    4    4    0    0  0.73213714519E+01 -0.65387380685E+00  0.35875236837E+02  0.13034021156E+03  0.12509000000E+03 0.  0.
<mgrwt>
<rscale>  2 0.45687228E+03</rscale>
<asrwt>0</asrwt>
<pdfrwt beam="1">  1       21 0.31076730E-01 0.45687228E+03</pdfrwt>
<pdfrwt beam="2">  1       21 0.36314199E-01 0.45687228E+03</pdfrwt>
<totfact> 0.67296843E+04</totfact>
</mgrwt>
</event>
<event>
 7    0  0.4709932E-002  0.4526427E+03  0.7546771E-02  0.1026937E+00
         21   -1    0    0  502  501  0.00000000000E+00  0.00000000000E+00  0.51962259811E+03  0.51962259811E+03  0.00000000000E+00 0. -1.
         21   -1    0    0  501  502 -0.00000000000E+00 -0.00000000000E+00 -0.98574155879E+02  0.98574155879E+02  0.00000000000E+00 0. -1.
      99926    2    1    2    0    0  0.00000000000E+00 -0.14210854715E-13  0.42104844223E+03  0.61819675399E+03  0.45264272438E+03 0.  0.
      99925    2    3    3    0    0  0.20961487679E+02  0.66845729901E+02  0.14915458447E+03  0.31081830068E+03  0.26353973210E+03 0.  0.
         25    1    4    4    0    0 -0.97066599774E+01 -0.43184664410E+01  0.67812207366E+02  0.14268451902E+03  0.12509000000E+03 0.  0.
         25    1    4    4    0    0  0.30668147657E+02  0.71164196342E+02  0.81342377107E+02  0.16813378166E+03  0.12509000000E+03 0.  0.
         25    1    3    3    0    0 -0.20961487679E+02 -0.66845729901E+02  0.27189385776E+03  0.30737845331E+03  0.12509000000E+03 0.  0.
<mgrwt>
<rscale>  2 0.45264272E+03</rscale>
<asrwt>0</asrwt>
<pdfrwt beam="1">  1       21 0.76415086E-01 0.45264272E+03</pdfrwt>
<pdfrwt beam="2">  1       21 0.14496200E-01 0.45264272E+03</pdfrwt>
<totfact> 0.58656250E+04</totfact>
</mgrwt>
</event>
<event>
 7    0  0.4709932E-002  0.4563062E+03  0.7546771E-02  0.1025858E+00
         21   -1    0    0  502  501  0.00000000000E+00  0.00000000000E+00  0.10226496610E+03  0.10226496610E+03  0.00000000000E+00 0. -1.
         21   -1    0    0  501  502 -0.00000000000E+00 -0.00000000000E+00 -0.50900953281E+03  0.50900953281E+03  0.00000000000E+00 0. -1.
      99926    2    1    2    0    0  0.00000000000E+00  0.17763568394E-14 -0.40674456671E+03  0.61127449891E+03  0.45630622445E+03 0.  0.
      99925    2    3    3    0    0  0.33572207394E+02 -0.12654878358E+02 -0.40117866952E+03  0.48102195050E+03  0.26296492719E+03 0.  0.
         25    1    4    4    0    0 -0.11778811864E+02 -0.34132625838E+02 -0.18353460916E+03  0.22502497064E+03  0.12509000000E+03 0.  0.
         25    1    4    4    0    0  0.45351019258E+02  0.21477747480E+02 -0.21764406037E+03  0.25599697986E+03  0.12509000000E+03 0.  0.
         25    1    3    3    0    0 -0.33572207394E+02  0.12654878358E+02 -0.55658971850E+01  0.13025254841E+03  0.12509000000E+03 0.  0.
<mgrwt>
<rscale>  2 0.45630622E+03</rscale>
<asrwt>0</asrwt>
<pdfrwt beam="1">  1       21 0.15038966E-01 0.45630622E+03</pdfrwt>
<pdfrwt beam="2">  1       21 0.74854342E-01 0.45630622E+03</pdfrwt>
<totfact> 0.57395139E+04</totfact>
</mgrwt>
</event>
<event>
 7    0  0.4709932E-002  0.4454874E+03  0.7546771E-02  0.1029076E+00
         21   -1    0    0  502  501  0.00000000000E+00  0.00000000000E+00  0.35607547661E+03  0.35607547661E+03  0.00000000000E+00 0. -1.
         21   -1    0    0  501  502 -0.00000000000E+00 -0.00000000000E+00 -0.13933773978E+03  0.13933773978E+03  0.00000000000E+00 0. -1.
      99926    2    1    2    0    0  0.00000000000E+00  0.00000000000E+00  0.21673773683E+03  0.49541321638E+03  0.44548738299E+03 0.  0.
      99925    2    3    3    0    0 -0.36873091183E+02 -0.43662566095E+02  0.23410900583E+03  0.35679390453E+03  0.26311370007E+03 0.  0.
         25    1    4    4    0    0 -0.35268605148E+02 -0.32525844881E+02  0.16794549487E+03  0.21483715331E+03  0.12509000000E+03 0.  0.
         25    1    3    3    0    0  0.36873091183E+02  0.43662566095E+02 -0.17371269004E+02  0.13861931185E+03  0.12509000000E+03 0.  0.
         25    1    4    4    0    0 -0.16044860355E+01 -0.11136721214E+02  0.66163510967E+02  0.14195675122E+03  0.12509000000E+03 0.  0.
<mgrwt>
<rscale>  2 0.44548738E+03</rscale>
<asrwt>0</asrwt>
<pdfrwt beam="1">  1       21 0.52364040E-01 0.44548738E+03</pdfrwt>
<pdfrwt beam="2">  1       21 0.20490844E-01 0.44548738E+03</pdfrwt>
<totfact> 0.70790387E+04</totfact>
</mgrwt>
</event>
<event>
 7    0  0.4709932E-002  0.4534106E+03  0.7546771E-02  0.1026710E+00
         21   -1    0    0  502  501  0.00000000000E+00  0.00000000000E+00  0.15136106814E+03  0.15136106814E+03  0.00000000000E+00 0. -1.
         21   -1    0    0  501  502 -0.00000000000E+00 -0.00000000000E+00 -0.33955421838E+03  0.33955421838E+03  0.00000000000E+00 0. -1.
      99926    2    1    2    0    0  0.35527136788E-14  0.00000000000E+00 -0.18819315024E+03  0.49091528652E+03  0.45341058296E+03 0.  0.
      99925    2    3    3    0    0  0.26063843000E+02 -0.99180914376E+02 -0.16623319823E+03  0.32767948995E+03  0.26310491112E+03 0.  0.
         25    1    3    3    0    0 -0.26063843000E+02  0.99180914376E+02 -0.21959952006E+02  0.16323579657E+03  0.12509000000E+03 0.  0.
         25    1    4    4    0    0  0.53255307915E+02 -0.56576048411E+02 -0.93085559180E+02  0.17421081052E+03  0.12509000000E+03 0.  0.
         25    1    4    4    0    0 -0.27191464914E+02 -0.42604865965E+02 -0.73147639051E+02  0.15346867943E+03  0.12509000000E+03 0.  0.
<mgrwt>
<rscale>  2 0.45341058E+03</rscale>
<asrwt>0</asrwt>
<pdfrwt beam="1">  1       21 0.22258980E-01 0.45341058E+03</pdfrwt>
<pdfrwt beam="2">  1       21 0.49934444E-01 0.45341058E+03</pdfrwt>
<totfact> 0.66752018E+04</totfact>
</mgrwt>
</event>
<event>
 7    0  0.4709932E-002  0.4527283E+03  0.7546771E-02  0.1026912E+00
         21   -1    0    0  502  501  0.00000000000E+00  0.00000000000E+00  0.54435419146E+02  0.54435419146E+02  0.00000000000E+00 0. -1.
         21   -1    0    0  501  502 -0.00000000000E+00 -0.00000000000E+00 -0.94131223343E+03  0.94131223343E+03  0.00000000000E+00 0. -1.
      99926    2    1    2    0    0  0.00000000000E+00 -0.17763568394E-14 -0.88687681428E+03  0.99574765257E+03  0.45272828926E+03 0.  0.
      99925    2    3    3    0    0  0.31302851267E+02 -0.13447328189E+02 -0.79168273676E+03  0.83490574377E+03  0.26295502688E+03 0.  0.
         25    1    3    3    0    0 -0.31302851267E+02  0.13447328189E+02 -0.95194077520E+02  0.16084190880E+03  0.12509000000E+03 0.  0.
         25    1    4    4    0    0 -0.10414057962E+02 -0.31811396513E+02 -0.44793654491E+03  0.46627789345E+03  0.12509000000E+03 0.  0.
         25    1    4    4    0    0  0.41716909229E+02  0.18364068324E+02 -0.34374619185E+03  0.36862785032E+03  0.12509000000E+03 0.  0.
<mgrwt>
<rscale>  2 0.45272829E+03</rscale>
<asrwt>0</asrwt>
<pdfrwt beam="1">  1       21 0.80052093E-02 0.45272829E+03</pdfrwt>
<pdfrwt beam="2">  1       21 0.13842826E+00 0.45272829E+03</pdfrwt>
<totfact> 0.40038271E+04</totfact>
</mgrwt>
</event>
<event>
 7    0  0.4709932E-002  0.4589807E+03  0.7546771E-02  0.1025077E+00
         21   -1    0    0  502  501  0.00000000000E+00  0.00000000000E+00  0.25779936612E+03  0.25779936612E+03  0.00000000000E+00 0. -1.
         21   -1    0    0  501  502 -0.00000000000E+00 -0.00000000000E+00 -0.20428991502E+03  0.20428991502E+03  0.00000000000E+00 0. -1.
      99926    2    1    2    0    0  0.17763568394E-14  0.14210854715E-13  0.53509451101E+02  0.46208928114E+03  0.45898065579E+03 0.  0.
      99925    2    3    3    0    0 -0.98752706523E+01 -0.89777488371E+02 -0.41190664899E+02  0.28105575259E+03  0.26294133718E+03 0.  0.
         25    1    4    4    0    0 -0.25449853171E+02 -0.18770952566E+02 -0.44081725678E+02  0.13634790180E+03  0.12509000000E+03 0.  0.
         25    1    3    3    0    0  0.98752706523E+01  0.89777488371E+02  0.94700116001E+02  0.18103352855E+03  0.12509000000E+03 0.  0.
         25    1    4    4    0    0  0.15574582519E+02 -0.71006535805E+02  0.28910607791E+01  0.14470785079E+03  0.12509000000E+03 0.  0.
<mgrwt>
<rscale>  2 0.45898066E+03</rscale>
<asrwt>0</asrwt>
<pdfrwt beam="1">  1       21 0.37911672E-01 0.45898066E+03</pdfrwt>
<pdfrwt beam="2">  1       21 0.30042634E-01 0.45898066E+03</pdfrwt>
<totfact> 0.65911130E+04</totfact>
</mgrwt>
</event>
<event>
 7    0  0.4709932E-002  0.4543212E+03  0.7546771E-02  0.1026441E+00
         21   -1    0    0  502  501  0.00000000000E+00  0.00000000000E+00  0.35672993047E+02  0.35672993047E+02  0.00000000000E+00 0. -1.
         21   -1    0    0  501  502 -0.00000000000E+00 -0.00000000000E+00 -0.14465266490E+04  0.14465266490E+04  0.00000000000E+00 0. -1.
      99926    2    1    2    0    0  0.00000000000E+00 -0.14210854715E-13 -0.14108536560E+04  0.14821996421E+04  0.45432118635E+03 0.  0.
      99925    2    3    3    0    0 -0.14221773413E+02 -0.11071244438E+03 -0.85371195510E+03  0.90038017941E+03  0.26344043160E+03 0.  0.
         25    1    4    4    0    0 -0.30218686381E+02 -0.21233473429E+02 -0.42938910342E+03  0.44876111645E+03  0.12509000000E+03 0.  0.
         25    1    3    3    0    0  0.14221773413E+02  0.11071244438E+03 -0.55714170086E+03  0.58181946265E+03  0.12509000000E+03 0.  0.
         25    1    4    4    0    0  0.15996912968E+02 -0.89478970956E+02 -0.42432285169E+03  0.45161906296E+03  0.12509000000E+03 0.  0.
<mgrwt>
<rscale>  2 0.45432119E+03</rscale>
<asrwt>0</asrwt>
<pdfrwt beam="1">  1       21 0.52460279E-02 0.45432119E+03</pdfrwt>
<pdfrwt beam="2">  1       21 0.21272453E+00 0.45432119E+03</pdfrwt>
<totfact> 0.24346895E+04</totfact>
</mgrwt>
</event>
<event>
 7    0  0.4709932E-002  0.4537589E+03  0.7546771E-02  0.1026607E+00
         21   -1    0    0  502  501  0.00000000000E+00  0.00000000000E+00  0.16107246579E+03  0.16107246579E+03  0.00000000000E+00 0. -1.
         21   -1    0    0  501  502 -0.00000000000E+00 -0.00000000000E+00 -0.31957217471E+03  0.31957217471E+03  0.00000000000E+00 0. -1.
      99926    2    1    2    0    0  0.00000000000E+00  0.35527136788E-14 -0.15849970892E+03  0.48064464050E+03  0.45375887067E+03 0.  0.
      99925    2    3    3    0    0  0.98785487229E+02  0.23624068007E+02 -0.49907107953E+02  0.28633424407E+03  0.26302074219E+03 0.  0.
         25    1    4    4    0    0  0.84798698114E+02 -0.33787879600E+01 -0.97180432177E+01  0.15147337678E+03  0.12509000000E+03 0.  0.
         25    1    3    3    0    0 -0.98785487229E+02 -0.23624068007E+02 -0.10859260097E+03  0.19431039643E+03  0.12509000000E+03 0.  0.
         25    1    4    4    0    0  0.13986789115E+02  0.27002855967E+02 -0.40189064735E+02  0.13486086728E+03  0.12509000000E+03 0.  0.
<mgrwt>
<rscale>  2 0.45375887E+03</rscale>
<asrwt>0</asrwt>
<pdfrwt beam="1">  1       21 0.23687128E-01 0.45375887E+03</pdfrwt>
<pdfrwt beam="2">  1       21 0.46995908E-01 0.45375887E+03</pdfrwt>
<totfact> 0.67313926E+04</totfact>
</mgrwt>
</event>
<event>
 7    0  0.4709932E-002  0.4532875E+03  0.7546771E-02  0.1026746E+00
         21   -1    0    0  502  501  0.00000000000E+00  0.00000000000E+00  0.23399848868E+03  0.23399848868E+03  0.00000000000E+00 0. -1.
         21   -1    0    0  501  502 -0.00000000000E+00 -0.00000000000E+00 -0.21952017419E+03  0.21952017419E+03  0.00000000000E+00 0. -1.
      99926    2    1    2    0    0  0.00000000000E+00  0.35527136788E-14  0.14478314483E+02  0.45351866287E+03  0.45328749815E+03 0.  0.
      99925    2    3    3    0    0 -0.32478223849E+02  0.16861391711E+02 -0.96292240168E+02  0.28247257133E+03  0.26301980245E+03 0.  0.
         25    1    4    4    0    0 -0.38174623489E+02  0.17746289597E+02 -0.14212827205E+02  0.13274692174E+03  0.12509000000E+03 0.  0.
         25    1    3    3    0    0  0.32478223849E+02 -0.16861391711E+02  0.11077055465E+03  0.17104609154E+03  0.12509000000E+03 0.  0.
         25    1    4    4    0    0  0.56963996394E+01 -0.88489788630E+00 -0.82079412963E+02  0.14972564959E+03  0.12509000000E+03 0.  0.
<mgrwt>
<rscale>  2 0.45328750E+03</rscale>
<asrwt>0</asrwt>
<pdfrwt beam="1">  1       21 0.34411543E-01 0.45328750E+03</pdfrwt>
<pdfrwt beam="2">  1       21 0.32282378E-01 0.45328750E+03</pdfrwt>
<totfact> 0.69600629E+04</totfact>
</mgrwt>
</event>
<event>
 7    0  0.4709932E-002  0.4511107E+03  0.7546771E-02  0.1027391E+00
         21   -1    0    0  502  501  0.00000000000E+00  0.00000000000E+00  0.16911233980E+03  0.16911233980E+03  0.00000000000E+00 0. -1.
         21   -1    0    0  501  502 -0.00000000000E+00 -0.00000000000E+00 -0.30083677418E+03  0.30083677418E+03  0.00000000000E+00 0. -1.
      99926    2    1    2    0    0  0.00000000000E+00  0.00000000000E+00 -0.13172443438E+03  0.46994911398E+03  0.45111067723E+03 0.  0.
      99925    2    3    3    0    0  0.81187573704E+02 -0.73163212170E+02 -0.88224775674E+02  0.29824003982E+03  0.26309548185E+03 0.  0.
         25    1    3    3    0    0 -0.81187573704E+02  0.73163212170E+02 -0.43499658703E+02  0.17170907415E+03  0.12509000000E+03 0.  0.
         25    1    4    4    0    0  0.92533978488E+01 -0.61582699298E+02 -0.35477946669E+02  0.14416742706E+03  0.12509000000E+03 0.  0.
         25    1    4    4    0    0  0.71934175855E+02 -0.11580512873E+02 -0.52746829005E+02  0.15407261277E+03  0.12509000000E+03 0.  0.
<mgrwt>
<rscale>  2 0.45111068E+03</rscale>
<asrwt>0</asrwt>
<pdfrwt beam="1">  1       21 0.24869462E-01 0.45111068E+03</pdfrwt>
<pdfrwt beam="2">  1       21 0.44240702E-01 0.45111068E+03</pdfrwt>
<totfact> 0.69561414E+04</totfact>
</mgrwt>
</event>
<event>
 7    0  0.4709932E-002  0.4569151E+03  0.7546771E-02  0.1025680E+00
         21   -1    0    0  502  501  0.00000000000E+00  0.00000000000E+00  0.41641333679E+03  0.41641333679E+03  0.00000000000E+00 0.  1.
         21   -1    0    0  501  502 -0.00000000000E+00 -0.00000000000E+00 -0.12533906348E+03  0.12533906348E+03  0.00000000000E+00 0.  1.
      99926    2    1    2    0    0  0.00000000000E+00  0.00000000000E+00  0.29107427331E+03  0.54175240027E+03  0.45691512407E+03 0.  0.
      99925    2    3    3    0    0 -0.45305983457E+02  0.90625862160E+02  0.24738927095E+03  0.37495441898E+03  0.26291383741E+03 0.  0.
         25    1    4    4    0    0 -0.33821812407E+02  0.26140108855E+02  0.16518425245E+03  0.21156692946E+03  0.12509000000E+03 0.  0.
         25    1    4    4    0    0 -0.11484171050E+02  0.64485753305E+02  0.82205018497E+02  0.16338748952E+03  0.12509000000E+03 0.  0.
         25    1    3    3    0    0  0.45305983457E+02 -0.90625862160E+02  0.43685002368E+02  0.16679798129E+03  0.12509000000E+03 0.  0.
<mgrwt>
<rscale>  2 0.45691512E+03</rscale>
<asrwt>0</asrwt>
<pdfrwt beam="1">  1       21 0.61237255E-01 0.45691512E+03</pdfrwt>
<pdfrwt beam="2">  1       21 0.18432215E-01 0.45691512E+03</pdfrwt>
<totfact> 0.61477792E+04</totfact>
</mgrwt>
</event>
<event>
 7    0  0.4709932E-002  0.4522592E+03  0.7546771E-02  0.1027050E+00
         21   -1    0    0  502  501  0.00000000000E+00  0.00000000000E+00  0.60758863269E+03  0.60758863269E+03  0.00000000000E+00 0. -1.
         21   -1    0    0  501  502 -0.00000000000E+00 -0.00000000000E+00 -0.84159894303E+02  0.84159894303E+02  0.00000000000E+00 0. -1.
      99926    2    1    2    0    0 -0.88817841970E-15  0.14210854715E-13  0.52342873839E+03  0.69174852700E+03  0.45225919607E+03 0.  0.
      99925    2    3    3    0    0 -0.76572564060E+01 -0.10382074074E+03  0.38720644995E+03  0.47951893492E+03  0.26300607272E+03 0.  0.
         25    1    3    3    0    0  0.76572564060E+01  0.10382074074E+03  0.13622228844E+03  0.21222959207E+03  0.12509000000E+03 0.  0.
         25    1    4    4    0    0  0.78351530746E+01 -0.69733279900E+02  0.26159538535E+03  0.29833500245E+03  0.12509000000E+03 0.  0.
         25    1    4    4    0    0 -0.15492409481E+02 -0.34087460838E+02  0.12561106460E+03  0.18118393248E+03  0.12509000000E+03 0.  0.
<mgrwt>
<rscale>  2 0.45225920E+03</rscale>
<asrwt>0</asrwt>
<pdfrwt beam="1">  1       21 0.89351267E-01 0.45225920E+03</pdfrwt>
<pdfrwt beam="2">  1       21 0.12376455E-01 0.45225920E+03</pdfrwt>
<totfact> 0.54520070E+04</totfact>
</mgrwt>
</event>
<event>
 7    0  0.4709932E-002  0.4472396E+03  0.7546771E-02  0.1028548E+00
         21   -1    0    0  502  501  0.00000000000E+00  0.00000000000E+00  0.54655026920E+02  0.54655026920E+02  0.00000000000E+00 0.  1.
         21   -1    0    0  501  502 -0.00000000000E+00 -0.00000000000E+00 -0.91493520005E+03  0.91493520005E+03  0.00000000000E+00 0.  1.
      99926    2    1    2    0    0  0.00000000000E+00  0.00000000000E+00 -0.86028017313E+03  0.96959022697E+03  0.44723956886E+03 0.  0.
      99925    2    3    3    0    0  0.10387145454E+03 -0.19600979915E+02 -0.54389489645E+03  0.61333101112E+03  0.26302051884E+03 0.  0.
         25    1    4    4    0    0  0.72644472169E+02 -0.14074606623E+02 -0.36395298631E+03  0.39189870915E+03  0.12509000000E+03 0.  0.
         25    1    4    4    0    0  0.31226982368E+02 -0.55263732917E+01 -0.17994191014E+03  0.22143230197E+03  0.12509000000E+03 0.  0.
         25    1    3    3    0    0 -0.10387145454E+03  0.19600979915E+02 -0.31638527668E+03  0.35625921585E+03  0.12509000000E+03 0.  0.
<mgrwt>
<rscale>  2 0.44723957E+03</rscale>
<asrwt>0</asrwt>
<pdfrwt beam="1">  1       21 0.80375052E-02 0.44723957E+03</pdfrwt>
<pdfrwt beam="2">  1       21 0.13454927E+00 0.44723957E+03</pdfrwt>
<totfact> 0.42901901E+04</totfact>
</mgrwt>
</event>
<event>
 7    0  0.4709932E-002  0.4554589E+03  0.7546771E-02  0.1026107E+00
         21   -1    0    0  502  501  0.00000000000E+00  0.00000000000E+00  0.47513710617E+03  0.47513710617E+03  0.00000000000E+00 0. -1.
         21   -1    0    0  501  502 -0.00000000000E+00 -0.00000000000E+00 -0.10914892421E+03  0.10914892421E+03  0.00000000000E+00 0. -1.
      99926    2    1    2    0    0  0.14210854715E-13 -0.71054273576E-14  0.36598818196E+03  0.58428603037E+03  0.45545890699E+03 0.  0.
      99925    2    3    3    0    0  0.61777584101E+02 -0.59257624955E+02  0.32595799988E+03  0.42751275590E+03  0.26304106668E+03 0.  0.
         25    1    4    4    0    0 -0.86047806469E+00 -0.40422843547E+02  0.12115475799E+03  0.17877564204E+03  0.12509000000E+03 0.  0.
         25    1    3    3    0    0 -0.61777584101E+02  0.59257624955E+02  0.40030182079E+02  0.15677327448E+03  0.12509000000E+03 0.  0.
         25    1    4    4    0    0  0.62638062166E+02 -0.18834781408E+02  0.20480324189E+03  0.24873711386E+03  0.12509000000E+03 0.  0.
<mgrwt>
<rscale>  2 0.45545891E+03</rscale>
<asrwt>0</asrwt>
<pdfrwt beam="1">  1       21 0.69873103E-01 0.45545891E+03</pdfrwt>
<pdfrwt beam="2">  1       21 0.16051313E-01 0.45545891E+03</pdfrwt>
<totfact> 0.59440162E+04</totfact>
</mgrwt>
</event>
<event>
 7    0  0.4709932E-002  0.4546741E+03  0.7546771E-02  0.1026337E+00
         21   -1    0    0  502  501  0.00000000000E+00  0.00000000000E+00  0.18559452691E+03  0.18559452691E+03  0.00000000000E+00 0. -1.
         21   -1    0    0  501  502 -0.00000000000E+00 -0.00000000000E+00 -0.27846801591E+03  0.27846801591E+03  0.00000000000E+00 0. -1.
      99926    2    1    2    0    0  0.00000000000E+00  0.00000000000E+00 -0.92873488996E+02  0.46406254282E+03  0.45467412362E+03 0.  0.
      99925    2    3    3    0    0  0.55472093579E+02  0.76693057782E+02 -0.12118219963E+03  0.30466408149E+03  0.26301349540E+03 0.  0.
         25    1    4    4    0    0 -0.10129540697E+02  0.51646759966E+02 -0.66680568111E+02  0.15120780956E+03  0.12509000000E+03 0.  0.
         25    1    4    4    0    0  0.65601634276E+02  0.25046297816E+02 -0.54501631516E+02  0.15345627192E+03  0.12509000000E+03 0.  0.
         25    1    3    3    0    0 -0.55472093579E+02 -0.76693057782E+02  0.28308710631E+02  0.15939846133E+03  0.12509000000E+03 0.  0.
<mgrwt>
<rscale>  2 0.45467412E+03</rscale>
<asrwt>0</asrwt>
<pdfrwt beam="1">  1       21 0.27293313E-01 0.45467412E+03</pdfrwt>
<pdfrwt beam="2">  1       21 0.40951179E-01 0.45467412E+03</pdfrwt>
<totfact> 0.68056036E+04</totfact>
</mgrwt>
</event>
<event>
 7    0  0.4709932E-002  0.4536617E+03  0.7546771E-02  0.1026636E+00
         21   -1    0    0  502  501  0.00000000000E+00  0.00000000000E+00  0.80236073087E+02  0.80236073087E+02  0.00000000000E+00 0.  1.
         21   -1    0    0  501  502 -0.00000000000E+00 -0.00000000000E+00 -0.64126053824E+03  0.64126053824E+03  0.00000000000E+00 0.  1.
      99926    2    1    2    0    0  0.00000000000E+00  0.88817841970E-15 -0.56102446516E+03  0.72149661133E+03  0.45366166871E+03 0.  0.
      99925    2    3    3    0    0 -0.40419589935E+02  0.23397936556E+01 -0.18752251639E+03  0.32552889583E+03  0.26299268047E+03 0.  0.
         25    1    3    3    0    0  0.40419589935E+02 -0.23397936556E+01 -0.37350194877E+03  0.39596771550E+03  0.12509000000E+03 0.  0.
         25    1    4    4    0    0  0.16925511488E+02 -0.10670699897E+02 -0.74356700127E+02  0.14689031190E+03  0.12509000000E+03 0.  0.
         25    1    4    4    0    0 -0.57345101423E+02  0.13010493552E+02 -0.11316581626E+03  0.17863858393E+03  0.12509000000E+03 0.  0.
<mgrwt>
<rscale>  2 0.45366167E+03</rscale>
<asrwt>0</asrwt>
<pdfrwt beam="1">  1       21 0.11799422E-01 0.45366167E+03</pdfrwt>
<pdfrwt beam="2">  1       21 0.94303021E-01 0.45366167E+03</pdfrwt>
<totfact> 0.52299717E+04</totfact>
</mgrwt>
</event>
<event>
 7    0  0.4709932E-002  0.4529084E+03  0.7546771E-02  0.1026858E+00
         21   -1    0    0  502  501  0.00000000000E+00  0.00000000000E+00  0.28838222039E+03  0.28838222039E+03  0.00000000000E+00 0.  1.
         21   -1    0    0  501  502 -0.00000000000E+00 -0.00000000000E+00 -0.17782479663E+03  0.17782479663E+03  0.00000000000E+00 0.  1.
      99926    2    1    2    0    0  0.00000000000E+00  0.00000000000E+00  0.11055742376E+03  0.46620701701E+03  0.45290842205E+03 0.  0.
      99925    2    3    3    0    0  0.55641032050E+02 -0.46243263045E+02  0.15659603951E+03  0.31454480661E+03  0.26302424214E+03 0.  0.
         25    1    4    4    0    0  0.26840852006E+02  0.16190854184E+02  0.60301273685E+02  0.14235984969E+03  0.12509000000E+03 0.  0.
         25    1    3    3    0    0 -0.55641032050E+02  0.46243263045E+02 -0.46038615745E+02  0.15166221040E+03  0.12509000000E+03 0.  0.
         25    1    4    4    0    0  0.28800180044E+02 -0.62434117229E+02  0.96294765821E+02  0.17218495692E+03  0.12509000000E+03 0.  0.
<mgrwt>
<rscale>  2 0.45290842E+03</rscale>
<asrwt>0</asrwt>
<pdfrwt beam="1">  1       21 0.42409150E-01 0.45290842E+03</pdfrwt>
<pdfrwt beam="2">  1       21 0.26150705E-01 0.45290842E+03</pdfrwt>
<totfact> 0.68854283E+04</totfact>
</mgrwt>
</event>
<event>
 7    0  0.4709932E-002  0.4620030E+03  0.7546771E-02  0.1024202E+00
         21   -1    0    0  502  501  0.00000000000E+00  0.00000000000E+00  0.15580888751E+03  0.15580888751E+03  0.00000000000E+00 0. -1.
         21   -1    0    0  501  502 -0.00000000000E+00 -0.00000000000E+00 -0.34248165010E+03  0.34248165010E+03  0.00000000000E+00 0. -1.
      99926    2    1    2    0    0  0.48849813084E-14  0.00000000000E+00 -0.18667276260E+03  0.49829053761E+03  0.46200296490E+03 0.  0.
      99925    2    3    3    0    0 -0.13691294559E+01 -0.18901278988E+02 -0.24411163184E+03  0.35934499194E+03  0.26301939391E+03 0.  0.
         25    1    3    3    0    0  0.13691294559E+01  0.18901278988E+02  0.57438869242E+02  0.13894554567E+03  0.12509000000E+03 0.  0.
         25    1    4    4    0    0 -0.35304550642E+02 -0.29487243751E+02 -0.13317723866E+03  0.18841335897E+03  0.12509000000E+03 0.  0.
         25    1    4    4    0    0  0.33935421186E+02  0.10585964762E+02 -0.11093439318E+03  0.17093163297E+03  0.12509000000E+03 0.  0.
<mgrwt>
<rscale>  2 0.46200296E+03</rscale>
<asrwt>0</asrwt>
<pdfrwt beam="1">  1       21 0.22913073E-01 0.46200296E+03</pdfrwt>
<pdfrwt beam="2">  1       21 0.50364947E-01 0.46200296E+03</pdfrwt>
<totfact> 0.61878665E+04</totfact>
</mgrwt>
</event>
<event>
 7    0  0.4709932E-002  0.4585255E+03  0.7546771E-02  0.1025210E+00
         21   -1    0    0  502  501  0.00000000000E+00  0.00000000000E+00  0.19730293762E+04  0.19730293762E+04  0.00000000000E+00 0.  1.
         21   -1    0    0  501  502 -0.00000000000E+00 -0.00000000000E+00 -0.26639948696E+02  0.26639948696E+02  0.00000000000E+00 0.  1.
      99926    2    1    2    0    0  0.14210854715E-13  0.00000000000E+00  0.19463894275E+04  0.19996693249E+04  0.45852546868E+03 0.  0.
      99925    2    3    3    0    0  0.66863355895E+02  0.62283643050E+02  0.90610900669E+03  0.94791801275E+03  0.26299252148E+03 0.  0.
         25    1    4    4    0    0  0.61534071993E+02  0.23037912546E+01  0.43788405224E+03  0.45954510201E+03  0.12509000000E+03 0.  0.
         25    1    3    3    0    0 -0.66863355895E+02 -0.62283643050E+02  0.10402804208E+04  0.10517513121E+04  0.12509000000E+03 0.  0.
         25    1    4    4    0    0  0.53292839024E+01  0.59979851796E+02  0.46822495444E+03  0.48837291074E+03  0.12509000000E+03 0.  0.
<mgrwt>
<rscale>  2 0.45852547E+03</rscale>
<asrwt>0</asrwt>
<pdfrwt beam="1">  1       21 0.29015128E+00 0.45852547E+03</pdfrwt>
<pdfrwt beam="2">  1       21 0.39176409E-02 0.45852547E+03</pdfrwt>
<totfact> 0.13346113E+04</totfact>
</mgrwt>
</event>
<event>
 7    0  0.4709932E-002  0.4544665E+03  0.7546771E-02  0.1026398E+00
         21   -1    0    0  502  501  0.00000000000E+00  0.00000000000E+00  0.42196755313E+03  0.42196755313E+03  0.00000000000E+00 0. -1.
         21   -1    0    0  501  502 -0.00000000000E+00 -0.00000000000E+00 -0.12236709030E+03  0.12236709030E+03  0.00000000000E+00 0. -1.
      99926    2    1    2    0    0  0.00000000000E+00  0.00000000000E+00  0.29960046283E+03  0.54433464342E+03  0.45446646378E+03 0.  0.
      99925    2    3    3    0    0 -0.96501357416E+02  0.39572167345E+02  0.23971389528E+03  0.37080546004E+03  0.26297427478E+03 0.  0.
         25    1    4    4    0    0 -0.80965817066E+01  0.28590130705E+02  0.95743531784E+02  0.16030371857E+03  0.12509000000E+03 0.  0.
         25    1    3    3    0    0  0.96501357416E+02 -0.39572167345E+02  0.59886567548E+02  0.17352918338E+03  0.12509000000E+03 0.  0.
         25    1    4    4    0    0 -0.88404775710E+02  0.10982036640E+02  0.14397036350E+03  0.21050174147E+03  0.12509000000E+03 0.  0.
<mgrwt>
<rscale>  2 0.45446646E+03</rscale>
<asrwt>0</asrwt>
<pdfrwt beam="1">  1       21 0.62054052E-01 0.45446646E+03</pdfrwt>
<pdfrwt beam="2">  1       21 0.17995160E-01 0.45446646E+03</pdfrwt>
<totfact> 0.62505919E+04</totfact>
</mgrwt>
</event>
<event>
 7    0  0.4709932E-002  0.4546932E+03  0.7546771E-02  0.1026332E+00
         21   -1    0    0  502  501  0.00000000000E+00  0.00000000000E+00  0.18655486792E+03  0.18655486792E+03  0.00000000000E+00 0.  1.
         21   -1    0    0  501  502 -0.00000000000E+00 -0.00000000000E+00 -0.27705777352E+03  0.27705777352E+03  0.00000000000E+00 0.  1.
      99926    2    1    2    0    0  0.00000000000E+00  0.00000000000E+00 -0.90502905605E+02  0.46361264144E+03  0.45469319918E+03 0.  0.
      99925    2    3    3    0    0 -0.82076788095E+01  0.11241889691E+03 -0.62004207520E+02  0.29283483766E+03  0.26306338784E+03 0.  0.
         25    1    4    4    0    0 -0.13616992776E+02  0.88320473789E+02 -0.67706907291E+01  0.15388072958E+03  0.12509000000E+03 0.  0.
         25    1    3    3    0    0  0.82076788095E+01 -0.11241889691E+03 -0.28498698085E+02  0.17077780379E+03  0.12509000000E+03 0.  0.
         25    1    4    4    0    0  0.54093139666E+01  0.24098423118E+02 -0.55233516791E+02  0.13895410808E+03  0.12509000000E+03 0.  0.
<mgrwt>
<rscale>  2 0.45469320E+03</rscale>
<asrwt>0</asrwt>
<pdfrwt beam="1">  1       21 0.27434540E-01 0.45469320E+03</pdfrwt>
<pdfrwt beam="2">  1       21 0.40743790E-01 0.45469320E+03</pdfrwt>
<totfact> 0.68079221E+04</totfact>
</mgrwt>
</event>
<event>
 7    0  0.4709932E-002  0.4584888E+03  0.7546771E-02  0.1025220E+00
         21   -1    0    0  502  501  0.00000000000E+00  0.00000000000E+00  0.27195576437E+03  0.27195576437E+03  0.00000000000E+00 0. -1.
         21   -1    0    0  501  502 -0.00000000000E+00 -0.00000000000E+00 -0.19324097338E+03  0.19324097338E+03  0.00000000000E+00 0. -1.
      99926    2    1    2    0    0  0.00000000000E+00  0.00000000000E+00  0.78714790999E+02  0.46519673775E+03  0.45848880738E+03 0.  0.
      99925    2    3    3    0    0 -0.10050133617E+03 -0.58724409248E+02  0.50434698861E+02  0.29200220399E+03  0.26300675557E+03 0.  0.
         25    1    4    4    0    0 -0.59801811582E+02 -0.61322334317E+02  0.52434432110E+02  0.16041684178E+03  0.12509000000E+03 0.  0.
         25    1    4    4    0    0 -0.40699524586E+02  0.25979250690E+01 -0.19997332490E+01  0.13158536222E+03  0.12509000000E+03 0.  0.
         25    1    3    3    0    0  0.10050133617E+03  0.58724409248E+02  0.28280092138E+02  0.17319453376E+03  0.12509000000E+03 0.  0.
<mgrwt>
<rscale>  2 0.45848881E+03</rscale>
<asrwt>0</asrwt>
<pdfrwt beam="1">  1       21 0.39993495E-01 0.45848881E+03</pdfrwt>
<pdfrwt beam="2">  1       21 0.28417790E-01 0.45848881E+03</pdfrwt>
<totfact> 0.65947464E+04</totfact>
</mgrwt>
</event>
<event>
 7    0  0.4709932E-002  0.4514198E+03  0.7546771E-02  0.1027299E+00
         21   -1    0    0  502  501  0.00000000000E+00  0.00000000000E+00  0.12501126514E+03  0.12501126514E+03  0.00000000000E+00 0. -1.
         21   -1    0    0  501  502 -0.00000000000E+00 -0.00000000000E+00 -0.40752299582E+03  0.40752299582E+03  0.00000000000E+00 0. -1.
      99926    2    1    2    0    0  0.35527136788E-14  0.00000000000E+00 -0.28251173068E+03  0.53253426095E+03  0.45141982801E+03 0.  0.
      99925    2    3    3    0    0  0.17040156180E+02 -0.10479429148E+03 -0.21212267226E+03  0.35400040395E+03  0.26276995160E+03 0.  0.
         25    1    4    4    0    0  0.40672066447E+02 -0.44139457099E+02 -0.13353654970E+03  0.19256694126E+03  0.12509000000E+03 0.  0.
         25    1    3    3    0    0 -0.17040156180E+02  0.10479429148E+03 -0.70389058423E+02  0.17853385700E+03  0.12509000000E+03 0.  0.
         25    1    4    4    0    0 -0.23631910267E+02 -0.60654834383E+02 -0.78586122558E+02  0.16143346269E+03  0.12509000000E+03 0.  0.
<mgrwt>
<rscale>  2 0.45141983E+03</rscale>
<asrwt>0</asrwt>
<pdfrwt beam="1">  1       21 0.18384009E-01 0.45141983E+03</pdfrwt>
<pdfrwt beam="2">  1       21 0.59929853E-01 0.45141983E+03</pdfrwt>
<totfact> 0.64854038E+04</totfact>
</mgrwt>
</event>
<event>
 7    0  0.4709932E-002  0.4512905E+03  0.7546771E-02  0.1027338E+00
         21   -1    0    0  502  501  0.00000000000E+00  0.00000000000E+00  0.19620325833E+02  0.19620325833E+02  0.00000000000E+00 0. -1.
         21   -1    0    0  501  502 -0.00000000000E+00 -0.00000000000E+00 -0.25950524630E+04  0.25950524630E+04  0.00000000000E+00 0. -1.
      99926    2    1    2    0    0  0.00000000000E+00 -0.35527136788E-14 -0.25754321372E+04  0.26146727889E+04  0.45129048241E+03 0.  0.
      99925    2    3    3    0    0 -0.72098336693E+02 -0.26164624862E+02 -0.20803174291E+04  0.20982729050E+04  0.26295592867E+03 0.  0.
         25    1    4    4    0    0 -0.15128382449E+02 -0.85960512935E+01 -0.72791600750E+03  0.73879089202E+03  0.12509000000E+03 0.  0.
         25    1    4    4    0    0 -0.56969954244E+02 -0.17568573569E+02 -0.13524014216E+04  0.13594820130E+04  0.12509000000E+03 0.  0.
         25    1    3    3    0    0  0.72098336693E+02  0.26164624862E+02 -0.49511470813E+03  0.51639988387E+03  0.12509000000E+03 0.  0.
<mgrwt>
<rscale>  2 0.45129048E+03</rscale>
<asrwt>0</asrwt>
<pdfrwt beam="1">  1       21 0.28853416E-02 0.45129048E+03</pdfrwt>
<pdfrwt beam="2">  1       21 0.38162542E+00 0.45129048E+03</pdfrwt>
<totfact> 0.62053311E+03</totfact>
</mgrwt>
</event>
<event>
 6    0  0.4709932E-002  0.4530451E+03  0.7546771E-02  0.1026818E+00
         21   -1    0    0  502  501  0.00000000000E+00  0.00000000000E+00  0.88096409967E+02  0.88096409967E+02  0.00000000000E+00 0. -1.
         21   -1    0    0  501  502 -0.00000000000E+00 -0.00000000000E+00 -0.58245816017E+03  0.58245816017E+03  0.00000000000E+00 0. -1.
      99926    2    1    2    0    0  0.00000000000E+00  0.00000000000E+00 -0.49436175021E+03  0.67055457014E+03  0.45304513182E+03 0.  0.
         25    1    3    3    0    0 -0.95004078644E+01  0.53413404149E+02 -0.23883477898E+03  0.27501419825E+03  0.12509000000E+03 0.  0.
         25    1    3    3    0    0 -0.38702480303E+02 -0.94027601482E+02 -0.12377511859E+03  0.20324089132E+03  0.12509000000E+03 0.  0.
         25    1    3    3    0    0  0.48202888168E+02  0.40614197333E+02 -0.13175185264E+03  0.19229948057E+03  0.12509000000E+03 0.  0.
<mgrwt>
<rscale>  2 0.45304513E+03</rscale>
<asrwt>0</asrwt>
<pdfrwt beam="1">  1       21 0.12955354E-01 0.45304513E+03</pdfrwt>
<pdfrwt beam="2">  1       21 0.85655617E-01 0.45304513E+03</pdfrwt>
<totfact> 0.55379562E+04</totfact>
</mgrwt>
</event>
<event>
 7    0  0.4709932E-002  0.4497765E+03  0.7546771E-02  0.1027789E+00
         21   -1    0    0  502  501  0.00000000000E+00  0.00000000000E+00  0.65785746068E+03  0.65785746068E+03  0.00000000000E+00 0. -1.
         21   -1    0    0  501  502 -0.00000000000E+00 -0.00000000000E+00 -0.76877944153E+02  0.76877944153E+02  0.00000000000E+00 0. -1.
      99926    2    1    2    0    0  0.00000000000E+00  0.00000000000E+00  0.58097951653E+03  0.73473540484E+03  0.44977651839E+03 0.  0.
      99925    2    3    3    0    0 -0.86399798569E+01 -0.91532832067E+02  0.27116960124E+03  0.38820604056E+03  0.26214131435E+03 0.  0.
         25    1    4    4    0    0 -0.41595635435E+02 -0.34101358965E+02  0.12779838940E+03  0.18674323549E+03  0.12509000000E+03 0.  0.
         25    1    4    4    0    0  0.32955655578E+02 -0.57431473102E+02  0.14337121185E+03  0.20146280506E+03  0.12509000000E+03 0.  0.
         25    1    3    3    0    0  0.86399798569E+01  0.91532832067E+02  0.30980991528E+03  0.34652936428E+03  0.12509000000E+03 0.  0.
<mgrwt>
<rscale>  2 0.44977652E+03</rscale>
<asrwt>0</asrwt>
<pdfrwt beam="1">  1       21 0.96743741E-01 0.44977652E+03</pdfrwt>
<pdfrwt beam="2">  1       21 0.11305580E-01 0.44977652E+03</pdfrwt>
<totfact> 0.53209154E+04</totfact>
</mgrwt>
</event>
<event>
 7    0  0.4709932E-002  0.4596845E+03  0.7546771E-02  0.1024873E+00
         21   -1    0    0  502  501  0.00000000000E+00  0.00000000000E+00  0.86862846200E+02  0.86862846200E+02  0.00000000000E+00 0. -1.
         21   -1    0    0  501  502 -0.00000000000E+00 -0.00000000000E+00 -0.60817106648E+03  0.60817106648E+03  0.00000000000E+00 0. -1.
      99926    2    1    2    0    0  0.00000000000E+00  0.00000000000E+00 -0.52130822027E+03  0.69503391268E+03  0.45968454318E+03 0.  0.
      99925    2    3    3    0    0  0.90911611941E+02  0.43734929369E+02 -0.41784074838E+03  0.50390387560E+03  0.26296493988E+03 0.  0.
         25    1    3    3    0    0 -0.90911611941E+02 -0.43734929369E+02 -0.10346747190E+03  0.19113003708E+03  0.12509000000E+03 0.  0.
         25    1    4    4    0    0  0.81170553347E+02  0.11958159185E+02 -0.25797560108E+03  0.29821229880E+03  0.12509000000E+03 0.  0.
         25    1    4    4    0    0  0.97410585944E+01  0.31776770184E+02 -0.15986514729E+03  0.20569157679E+03  0.12509000000E+03 0.  0.
<mgrwt>
<rscale>  2 0.45968454E+03</rscale>
<asrwt>0</asrwt>
<pdfrwt beam="1">  1       21 0.12773948E-01 0.45968454E+03</pdfrwt>
<pdfrwt beam="2">  1       21 0.89436920E-01 0.45968454E+03</pdfrwt>
<totfact> 0.51257179E+04</totfact>
</mgrwt>
</event>
<event>
 7    0  0.4709932E-002  0.4508664E+03  0.7546771E-02  0.1027464E+00
         21   -1    0    0  502  501  0.00000000000E+00  0.00000000000E+00  0.41731809679E+03  0.41731809679E+03  0.00000000000E+00 0. -1.
         21   -1    0    0  501  502 -0.00000000000E+00 -0.00000000000E+00 -0.12177792205E+03  0.12177792205E+03  0.00000000000E+00 0. -1.
      99926    2    1    2    0    0 -0.14210854715E-13  0.00000000000E+00  0.29554017474E+03  0.53909601884E+03  0.45086641330E+03 0.  0.
      99925    2    3    3    0    0 -0.93678734104E+02 -0.53838241226E+02  0.20589500845E+03  0.35105872100E+03  0.26301180513E+03 0.  0.
         25    1    4    4    0    0 -0.52431806564E+02 -0.17945546911E+01  0.13972855986E+03  0.19474057951E+03  0.12509000000E+03 0.  0.
         25    1    4    4    0    0 -0.41246927539E+02 -0.52043686535E+02  0.66166448596E+02  0.15631814149E+03  0.12509000000E+03 0.  0.
         25    1    3    3    0    0  0.93678734104E+02  0.53838241226E+02  0.89645166287E+02  0.18803729784E+03  0.12509000000E+03 0.  0.
<mgrwt>
<rscale>  2 0.45086641E+03</rscale>
<asrwt>0</asrwt>
<pdfrwt beam="1">  1       21 0.61370308E-01 0.45086641E+03</pdfrwt>
<pdfrwt beam="2">  1       21 0.17908518E-01 0.45086641E+03</pdfrwt>
<totfact> 0.64683029E+04</totfact>
</mgrwt>
</event>
<event>
 7    0  0.4709932E-002  0.4589163E+03  0.7546771E-02  0.1025096E+00
         21   -1    0    0  502  501  0.00000000000E+00  0.00000000000E+00  0.19638854536E+03  0.19638854536E+03  0.00000000000E+00 0.  1.
         21   -1    0    0  501  502 -0.00000000000E+00 -0.00000000000E+00 -0.26809628161E+03  0.26809628161E+03  0.00000000000E+00 0.  1.
      99926    2    1    2    0    0  0.00000000000E+00 -0.71054273576E-14 -0.71707736247E+02  0.46448482697E+03  0.45891628327E+03 0.  0.
      99925    2    3    3    0    0 -0.10519138067E+03  0.38072187100E+02 -0.78838523615E+02  0.29651734730E+03  0.26304430510E+03 0.  0.
         25    1    4    4    0    0 -0.72093302214E+02  0.34739729961E+02 -0.76530793732E+02  0.16705916183E+03  0.12509000000E+03 0.  0.
         25    1    4    4    0    0 -0.33098078458E+02  0.33324571386E+01 -0.23077298833E+01  0.12945818547E+03  0.12509000000E+03 0.  0.
         25    1    3    3    0    0  0.10519138067E+03 -0.38072187100E+02  0.71307873683E+01  0.16796747967E+03  0.12509000000E+03 0.  0.
<mgrwt>
<rscale>  2 0.45891628E+03</rscale>
<asrwt>0</asrwt>
<pdfrwt beam="1">  1       21 0.28880669E-01 0.45891628E+03</pdfrwt>
<pdfrwt beam="2">  1       21 0.39425924E-01 0.45891628E+03</pdfrwt>
<totfact> 0.65776551E+04</totfact>
</mgrwt>
</event>
<event>
 7    0  0.4709932E-002  0.4569036E+03  0.7546771E-02  0.1025683E+00
         21   -1    0    0  502  501  0.00000000000E+00  0.00000000000E+00  0.33913367393E+02  0.33913367393E+02  0.00000000000E+00 0.  1.
         21   -1    0    0  501  502 -0.00000000000E+00 -0.00000000000E+00 -0.15389280378E+04  0.15389280378E+04  0.00000000000E+00 0.  1.
      99926    2    1    2    0    0  0.14210854715E-13  0.71054273576E-14 -0.15050146704E+04  0.15728414052E+04  0.45690363070E+03 0.  0.
      99925    2    3    3    0    0  0.92246280242E+02  0.62754879538E+02 -0.10391608199E+04  0.10777506365E+04  0.26314192693E+03 0.  0.
         25    1    4    4    0    0  0.15156610053E+02  0.30367392244E+01 -0.50894990760E+03  0.52432476688E+03  0.12509000000E+03 0.  0.
         25    1    3    3    0    0 -0.92246280242E+02 -0.62754879538E+02 -0.46585385047E+03  0.49509076867E+03  0.12509000000E+03 0.  0.
         25    1    4    4    0    0  0.77089670189E+02  0.59718140314E+02 -0.53021091231E+03  0.55342586962E+03  0.12509000000E+03 0.  0.
<mgrwt>
<rscale>  2 0.45690363E+03</rscale>
<asrwt>0</asrwt>
<pdfrwt beam="1">  1       21 0.49872604E-02 0.45690363E+03</pdfrwt>
<pdfrwt beam="2">  1       21 0.22631292E+00 0.45690363E+03</pdfrwt>
<totfact> 0.21726067E+04</totfact>
</mgrwt>
</event>
<event>
 7    0  0.4709932E-002  0.4569842E+03  0.7546771E-02  0.1025660E+00
         21   -1    0    0  502  501  0.00000000000E+00  0.00000000000E+00  0.93220576877E+02  0.93220576877E+02  0.00000000000E+00 0.  1.
         21   -1    0    0  501  502 -0.00000000000E+00 -0.00000000000E+00 -0.56005479434E+03  0.56005479434E+03  0.00000000000E+00 0.  1.
      99926    2    1    2    0    0  0.14210854715E-13  0.00000000000E+00 -0.46683421747E+03  0.65327537122E+03  0.45698416170E+03 0.  0.
      99925    2    3    3    0    0  0.86606503260E+02  0.30500473592E+02 -0.39219621801E+03  0.48108563762E+03  0.26304857347E+03 0.  0.
         25    1    4    4    0    0  0.81380893135E+02 -0.13533069644E+01 -0.21899226328E+03  0.26500905774E+03  0.12509000000E+03 0.  0.
         25    1    3    3    0    0 -0.86606503260E+02 -0.30500473592E+02 -0.74637999456E+02  0.17218973361E+03  0.12509000000E+03 0.  0.
         25    1    4    4    0    0  0.52256101244E+01  0.31853780556E+02 -0.17320395473E+03  0.21607657988E+03  0.12509000000E+03 0.  0.
<mgrwt>
<rscale>  2 0.45698416E+03</rscale>
<asrwt>0</asrwt>
<pdfrwt beam="1">  1       21 0.13708908E-01 0.45698416E+03</pdfrwt>
<pdfrwt beam="2">  1       21 0.82360999E-01 0.45698416E+03</pdfrwt>
<totfact> 0.54652756E+04</totfact>
</mgrwt>
</event>
<event>
 7    0  0.4709932E-002  0.4501068E+03  0.7546771E-02  0.1027690E+00
         21   -1    0    0  502  501  0.00000000000E+00  0.00000000000E+00  0.22715816818E+03  0.22715816818E+03  0.00000000000E+00 0.  1.
         21   -1    0    0  501  502 -0.00000000000E+00 -0.00000000000E+00 -0.22296810510E+03  0.22296810510E+03  0.00000000000E+00 0.  1.
      99926    2    1    2    0    0  0.00000000000E+00  0.00000000000E+00  0.41900630809E+01  0.45012627327E+03  0.45010677096E+03 0.  0.
      99925    2    3    3    0    0  0.39938603331E+02 -0.98443812736E+02  0.24455047429E+02  0.28476468767E+03  0.26307147640E+03 0.  0.
         25    1    4    4    0    0  0.64826313562E+01 -0.37933803975E+02  0.48994103748E+02  0.13974594196E+03  0.12509000000E+03 0.  0.
         25    1    3    3    0    0 -0.39938603331E+02  0.98443812736E+02 -0.20264984349E+02  0.16536158560E+03  0.12509000000E+03 0.  0.
         25    1    4    4    0    0  0.33455971975E+02 -0.60510008761E+02 -0.24539056318E+02  0.14501874571E+03  0.12509000000E+03 0.  0.
<mgrwt>
<rscale>  2 0.45010677E+03</rscale>
<asrwt>0</asrwt>
<pdfrwt beam="1">  1       21 0.33405613E-01 0.45010677E+03</pdfrwt>
<pdfrwt beam="2">  1       21 0.32789427E-01 0.45010677E+03</pdfrwt>
<totfact> 0.71661591E+04</totfact>
</mgrwt>
</event>
<event>
 7    0  0.4709932E-002  0.4523449E+03  0.7546771E-02  0.1027025E+00
         21   -1    0    0  502  501  0.00000000000E+00  0.00000000000E+00  0.22721577802E+03  0.22721577802E+03  0.00000000000E+00 0.  1.
         21   -1    0    0  501  502 -0.00000000000E+00 -0.00000000000E+00 -0.22513390002E+03  0.22513390002E+03  0.00000000000E+00 0.  1.
      99926    2    1    2    0    0  0.17763568394E-14  0.00000000000E+00  0.20818779920E+01  0.45234967804E+03  0.45234488723E+03 0.  0.
      99925    2    3    3    0    0  0.13524865160E+02  0.98360756504E+02  0.50954905500E+02  0.28533518371E+03  0.26260617714E+03 0.  0.
         25    1    4    4    0    0 -0.40083963756E+01  0.32689581008E+02  0.60191078788E+02  0.14267147582E+03  0.12509000000E+03 0.  0.
         25    1    4    4    0    0  0.17533261535E+02  0.65671175496E+02 -0.92361732881E+01  0.14266370789E+03  0.12509000000E+03 0.  0.
         25    1    3    3    0    0 -0.13524865160E+02 -0.98360756504E+02 -0.48873027508E+02  0.16701449433E+03  0.12509000000E+03 0.  0.
<mgrwt>
<rscale>  2 0.45234489E+03</rscale>
<asrwt>0</asrwt>
<pdfrwt beam="1">  1       21 0.33414085E-01 0.45234489E+03</pdfrwt>
<pdfrwt beam="2">  1       21 0.33107926E-01 0.45234489E+03</pdfrwt>
<totfact> 0.70216171E+04</totfact>
</mgrwt>
</event>
<event>
 7    0  0.4709932E-002  0.4601532E+03  0.7546771E-02  0.1024737E+00
         21   -1    0    0  502  501  0.00000000000E+00  0.00000000000E+00  0.37164507270E+03  0.37164507270E+03  0.00000000000E+00 0.  1.
         21   -1    0    0  501  502 -0.00000000000E+00 -0.00000000000E+00 -0.14243492762E+03  0.14243492762E+03  0.00000000000E+00 0.  1.
      99926    2    1    2    0    0  0.00000000000E+00 -0.14210854715E-13  0.22921014508E+03  0.51408000033E+03  0.46015318768E+03 0.  0.
      99925    2    3    3    0    0 -0.53237575549E+02  0.96320880420E+02  0.18812749995E+03  0.34247800941E+03  0.26417282078E+03 0.  0.
         25    1    3    3    0    0  0.53237575549E+02 -0.96320880420E+02  0.41082645130E+02  0.17160199092E+03  0.12509000000E+03 0.  0.
         25    1    4    4    0    0 -0.27607889451E+02  0.59338176914E+01  0.10226806950E+03  0.16402338824E+03  0.12509000000E+03 0.  0.
         25    1    4    4    0    0 -0.25629686098E+02  0.90387062729E+02  0.85859430454E+02  0.17845462117E+03  0.12509000000E+03 0.  0.
<mgrwt>
<rscale>  2 0.46015319E+03</rscale>
<asrwt>0</asrwt>
<pdfrwt beam="1">  1       21 0.54653687E-01 0.46015319E+03</pdfrwt>
<pdfrwt beam="2">  1       21 0.20946313E-01 0.46015319E+03</pdfrwt>
<totfact> 0.61729039E+04</totfact>
</mgrwt>
</event>
<event>
 7    0  0.4709932E-002  0.4510551E+03  0.7546771E-02  0.1027408E+00
         21   -1    0    0  502  501  0.00000000000E+00  0.00000000000E+00  0.11356471960E+03  0.11356471960E+03  0.00000000000E+00 0.  1.
         21   -1    0    0  501  502 -0.00000000000E+00 -0.00000000000E+00 -0.44787385142E+03  0.44787385142E+03  0.00000000000E+00 0.  1.
      99926    2    1    2    0    0  0.00000000000E+00  0.00000000000E+00 -0.33430913182E+03  0.56143857103E+03  0.45105506694E+03 0.  0.
      99925    2    3    3    0    0 -0.44412586137E+02 -0.83607732737E+02 -0.28007418006E+03  0.39545161710E+03  0.26263606826E+03 0.  0.
         25    1    4    4    0    0 -0.61719604800E+02 -0.36534296211E+02 -0.15251982822E+03  0.20989013916E+03  0.12509000000E+03 0.  0.
         25    1    3    3    0    0  0.44412586137E+02  0.83607732737E+02 -0.54234951761E+02  0.16598695392E+03  0.12509000000E+03 0.  0.
         25    1    4    4    0    0  0.17307018663E+02 -0.47073436526E+02 -0.12755435185E+03  0.18556147794E+03  0.12509000000E+03 0.  0.
<mgrwt>
<rscale>  2 0.45105507E+03</rscale>
<asrwt>0</asrwt>
<pdfrwt beam="1">  1       21 0.16700694E-01 0.45105507E+03</pdfrwt>
<pdfrwt beam="2">  1       21 0.65863801E-01 0.45105507E+03</pdfrwt>
<totfact> 0.63061682E+04</totfact>
</mgrwt>
</event>
<event>
 7    0  0.4709932E-002  0.4543486E+03  0.7546771E-02  0.1026433E+00
         21   -1    0    0  502  501  0.00000000000E+00  0.00000000000E+00  0.36036501592E+03  0.36036501592E+03  0.00000000000E+00 0.  1.
         21   -1    0    0  501  502 -0.00000000000E+00 -0.00000000000E+00 -0.14321081411E+03  0.14321081411E+03  0.00000000000E+00 0.  1.
      99926    2    1    2    0    0  0.00000000000E+00 -0.71054273576E-14  0.21715420181E+03  0.50357583003E+03  0.45434862080E+03 0.  0.
      99925    2    3    3    0    0  0.83388702863E+02  0.42682165213E+02  0.67275382250E+02  0.28704266479E+03  0.26285370715E+03 0.  0.
         25    1    4    4    0    0  0.57130015523E+02 -0.88968478543E+01  0.11264953297E+02  0.13826568572E+03  0.12509000000E+03 0.  0.
         25    1    4    4    0    0  0.26258687340E+02  0.51579013067E+02  0.56010428953E+02  0.14877697907E+03  0.12509000000E+03 0.  0.
         25    1    3    3    0    0 -0.83388702863E+02 -0.42682165213E+02  0.14987881956E+03  0.21653316523E+03  0.12509000000E+03 0.  0.
<mgrwt>
<rscale>  2 0.45434862E+03</rscale>
<asrwt>0</asrwt>
<pdfrwt beam="1">  1       21 0.52994855E-01 0.45434862E+03</pdfrwt>
<pdfrwt beam="2">  1       21 0.21060414E-01 0.45434862E+03</pdfrwt>
<totfact> 0.65357438E+04</totfact>
</mgrwt>
</event>
<event>
 7    0  0.4709932E-002  0.4541494E+03  0.7546771E-02  0.1026492E+00
         21   -1    0    0  502  501  0.00000000000E+00  0.00000000000E+00  0.98689742024E+03  0.98689742024E+03  0.00000000000E+00 0.  1.
         21   -1    0    0  501  502 -0.00000000000E+00 -0.00000000000E+00 -0.52247494518E+02  0.52247494518E+02  0.00000000000E+00 0.  1.
      99926    2    1    2    0    0 -0.35527136788E-14  0.88817841970E-15  0.93464992572E+03  0.10391449148E+04  0.45414939196E+03 0.  0.
      99925    2    3    3    0    0 -0.29136597498E+02  0.52590094946E+01  0.34067301606E+03  0.43141744639E+03  0.26303290799E+03 0.  0.
         25    1    3    3    0    0  0.29136597498E+02 -0.52590094946E+01  0.59397690966E+03  0.60772746837E+03  0.12509000000E+03 0.  0.
         25    1    4    4    0    0 -0.37401389147E+02  0.29603877222E+01  0.22846466890E+03  0.26315630496E+03  0.12509000000E+03 0.  0.
         25    1    4    4    0    0  0.82647916491E+01  0.22986217724E+01  0.11220834716E+03  0.16826114143E+03  0.12509000000E+03 0.  0.
<mgrwt>
<rscale>  2 0.45414939E+03</rscale>
<asrwt>0</asrwt>
<pdfrwt beam="1">  1       21 0.14513196E+00 0.45414939E+03</pdfrwt>
<pdfrwt beam="2">  1       21 0.76834557E-02 0.45414939E+03</pdfrwt>
<totfact> 0.37929465E+04</totfact>
</mgrwt>
</event>
<event>
 7    0  0.4709932E-002  0.4581812E+03  0.7546771E-02  0.1025310E+00
         21   -1    0    0  502  501  0.00000000000E+00  0.00000000000E+00  0.10939195098E+03  0.10939195098E+03  0.00000000000E+00 0. -1.
         21   -1    0    0  501  502 -0.00000000000E+00 -0.00000000000E+00 -0.47976576807E+03  0.47976576807E+03  0.00000000000E+00 0. -1.
      99926    2    1    2    0    0  0.00000000000E+00  0.00000000000E+00 -0.37037381709E+03  0.58915771905E+03  0.45818124528E+03 0.  0.
      99925    2    3    3    0    0 -0.10701106512E+03 -0.34353790395E+02 -0.19476554078E+03  0.34601717167E+03  0.26298805342E+03 0.  0.
         25    1    4    4    0    0 -0.45138262859E+02 -0.77058596119E+01 -0.47591941921E+02  0.14145438870E+03  0.12509000000E+03 0.  0.
         25    1    4    4    0    0 -0.61872802261E+02 -0.26647930783E+02 -0.14717359886E+03  0.20456278297E+03  0.12509000000E+03 0.  0.
         25    1    3    3    0    0  0.10701106512E+03  0.34353790395E+02 -0.17560827631E+03  0.24314054738E+03  0.12509000000E+03 0.  0.
<mgrwt>
<rscale>  2 0.45818125E+03</rscale>
<asrwt>0</asrwt>
<pdfrwt beam="1">  1       21 0.16087052E-01 0.45818125E+03</pdfrwt>
<pdfrwt beam="2">  1       21 0.70553790E-01 0.45818125E+03</pdfrwt>
<totfact> 0.57881492E+04</totfact>
</mgrwt>
</event>
<event>
 7    0  0.4709932E-002  0.4577659E+03  0.7546771E-02  0.1025431E+00
         21   -1    0    0  502  501  0.00000000000E+00  0.00000000000E+00  0.35975076491E+03  0.35975076491E+03  0.00000000000E+00 0. -1.
         21   -1    0    0  501  502 -0.00000000000E+00 -0.00000000000E+00 -0.14562141622E+03  0.14562141622E+03  0.00000000000E+00 0. -1.
      99926    2    1    2    0    0  0.00000000000E+00  0.00000000000E+00  0.21412934869E+03  0.50537218112E+03  0.45776594837E+03 0.  0.
      99925    2    3    3    0    0 -0.53143919636E+02 -0.81933831110E+02  0.66078222636E+02  0.28833745372E+03  0.26312492629E+03 0.  0.
         25    1    3    3    0    0  0.53143919636E+02  0.81933831110E+02  0.14805112605E+03  0.21703472740E+03  0.12509000000E+03 0.  0.
         25    1    4    4    0    0 -0.53477051992E+02 -0.44342848184E+02  0.25921935939E+01  0.14310943659E+03  0.12509000000E+03 0.  0.
         25    1    4    4    0    0  0.33313235512E+00 -0.37590982926E+02  0.63486029042E+02  0.14522801713E+03  0.12509000000E+03 0.  0.
<mgrwt>
<rscale>  2 0.45776595E+03</rscale>
<asrwt>0</asrwt>
<pdfrwt beam="1">  1       21 0.52904524E-01 0.45776595E+03</pdfrwt>
<pdfrwt beam="2">  1       21 0.21414914E-01 0.45776595E+03</pdfrwt>
<totfact> 0.63489490E+04</totfact>
</mgrwt>
</event>
<event>
 7    0  0.4709932E-002  0.4522209E+03  0.7546771E-02  0.1027062E+00
         21   -1    0    0  502  501  0.00000000000E+00  0.00000000000E+00  0.33247531729E+02  0.33247531729E+02  0.00000000000E+00 0. -1.
         21   -1    0    0  501  502 -0.00000000000E+00 -0.00000000000E+00 -0.15377362730E+04  0.15377362730E+04  0.00000000000E+00 0. -1.
      99926    2    1    2    0    0  0.00000000000E+00  0.00000000000E+00 -0.15044887413E+04  0.15709838048E+04  0.45222089968E+03 0.  0.
      99925    2    3    3    0    0 -0.14103735394E+02  0.39513297489E+02 -0.59399656702E+03  0.65098178109E+03  0.26303068575E+03 0.  0.
         25    1    4    4    0    0  0.89428622539E+01  0.48335257492E+02 -0.24531371253E+03  0.27971878299E+03  0.12509000000E+03 0.  0.
         25    1    3    3    0    0  0.14103735394E+02 -0.39513297489E+02 -0.91049217428E+03  0.92000202367E+03  0.12509000000E+03 0.  0.
         25    1    4    4    0    0 -0.23046597648E+02 -0.88219600026E+01 -0.34868285448E+03  0.37126299809E+03  0.12509000000E+03 0.  0.
<mgrwt>
<rscale>  2 0.45222090E+03</rscale>
<asrwt>0</asrwt>
<pdfrwt beam="1">  1       21 0.48893425E-02 0.45222090E+03</pdfrwt>
<pdfrwt beam="2">  1       21 0.22613771E+00 0.45222090E+03</pdfrwt>
<totfact> 0.22575132E+04</totfact>
</mgrwt>
</event>
<event>
 7    0  0.4709932E-002  0.4572518E+03  0.7546771E-02  0.1025581E+00
         21   -1    0    0  502  501  0.00000000000E+00  0.00000000000E+00  0.10492110288E+03  0.10492110288E+03  0.00000000000E+00 0.  1.
         21   -1    0    0  501  502 -0.00000000000E+00 -0.00000000000E+00 -0.49818208195E+03  0.49818208195E+03  0.00000000000E+00 0.  1.
      99926    2    1    2    0    0  0.00000000000E+00  0.71054273576E-14 -0.39326097907E+03  0.60310318483E+03  0.45725184953E+03 0.  0.
      99925    2    3    3    0    0 -0.98312481416E+02  0.55328125827E+02 -0.21329561985E+03  0.35660453549E+03  0.26257423289E+03 0.  0.
         25    1    4    4    0    0 -0.90612161287E+02  0.39729478231E+02 -0.11864447532E+03  0.19877880883E+03  0.12509000000E+03 0.  0.
         25    1    4    4    0    0 -0.77003201283E+01  0.15598647597E+02 -0.94651144525E+02  0.15782572666E+03  0.12509000000E+03 0.  0.
         25    1    3    3    0    0  0.98312481416E+02 -0.55328125827E+02 -0.17996535922E+03  0.24649864934E+03  0.12509000000E+03 0.  0.
<mgrwt>
<rscale>  2 0.45725185E+03</rscale>
<asrwt>0</asrwt>
<pdfrwt beam="1">  1       21 0.15429574E-01 0.45725185E+03</pdfrwt>
<pdfrwt beam="2">  1       21 0.73262070E-01 0.45725185E+03</pdfrwt>
<totfact> 0.57458573E+04</totfact>
</mgrwt>
</event>
<event>
 7    0  0.4709932E-002  0.4559695E+03  0.7546771E-02  0.1025957E+00
         21   -1    0    0  502  501  0.00000000000E+00  0.00000000000E+00  0.13391525369E+03  0.13391525369E+03  0.00000000000E+00 0.  1.
         21   -1    0    0  501  502 -0.00000000000E+00 -0.00000000000E+00 -0.38813394368E+03  0.38813394368E+03  0.00000000000E+00 0.  1.
      99926    2    1    2    0    0  0.00000000000E+00  0.00000000000E+00 -0.25421868999E+03  0.52204919736E+03  0.45596954079E+03 0.  0.
      99925    2    3    3    0    0 -0.54484974727E+02  0.35728973860E+02 -0.26694291120E+03  0.38043498215E+03  0.26311040603E+03 0.  0.
         25    1    4    4    0    0 -0.22632301437E+02  0.12770404251E+02 -0.18829418430E+03  0.22754672539E+03  0.12509000000E+03 0.  0.
         25    1    4    4    0    0 -0.31852673290E+02  0.22958569609E+02 -0.78648726898E+02  0.15288825677E+03  0.12509000000E+03 0.  0.
         25    1    3    3    0    0  0.54484974727E+02 -0.35728973860E+02  0.12724221211E+02  0.14161421521E+03  0.12509000000E+03 0.  0.
<mgrwt>
<rscale>  2 0.45596954E+03</rscale>
<asrwt>0</asrwt>
<pdfrwt beam="1">  1       21 0.19693420E-01 0.45596954E+03</pdfrwt>
<pdfrwt beam="2">  1       21 0.57078520E-01 0.45596954E+03</pdfrwt>
<totfact> 0.63259869E+04</totfact>
</mgrwt>
</event>
<event>
 7    0  0.4709932E-002  0.4521769E+03  0.7546771E-02  0.1027075E+00
         21   -1    0    0  502  501  0.00000000000E+00  0.00000000000E+00  0.38721954925E+02  0.38721954925E+02  0.00000000000E+00 0.  1.
         21   -1    0    0  501  502 -0.00000000000E+00 -0.00000000000E+00 -0.13200776172E+04  0.13200776172E+04  0.00000000000E+00 0.  1.
      99926    2    1    2    0    0  0.17763568394E-14  0.00000000000E+00 -0.12813556623E+04  0.13587995721E+04  0.45217689454E+03 0.  0.
      99925    2    3    3    0    0  0.86306556775E+01 -0.43813802064E+02 -0.11121230232E+04  0.11436686080E+04  0.26299454153E+03 0.  0.
         25    1    3    3    0    0 -0.86306556775E+01  0.43813802064E+02 -0.16923263908E+03  0.21513096406E+03  0.12509000000E+03 0.  0.
         25    1    4    4    0    0  0.32394836027E+02 -0.30650548220E+02 -0.44574561703E+03  0.46510810003E+03  0.12509000000E+03 0.  0.
         25    1    4    4    0    0 -0.23764180350E+02 -0.13163253844E+02 -0.66637740615E+03  0.67856050802E+03  0.12509000000E+03 0.  0.
<mgrwt>
<rscale>  2 0.45217689E+03</rscale>
<asrwt>0</asrwt>
<pdfrwt beam="1">  1       21 0.56944064E-02 0.45217689E+03</pdfrwt>
<pdfrwt beam="2">  1       21 0.19412902E+00 0.45217689E+03</pdfrwt>
<totfact> 0.28061663E+04</totfact>
</mgrwt>
</event>
<event>
 7    0  0.4709932E-002  0.4549525E+03  0.7546771E-02  0.1026255E+00
         21   -1    0    0  502  501  0.00000000000E+00  0.00000000000E+00  0.20322275413E+04  0.20322275413E+04  0.00000000000E+00 0.  1.
         21   -1    0    0  501  502 -0.00000000000E+00 -0.00000000000E+00 -0.25462428959E+02  0.25462428959E+02  0.00000000000E+00 0.  1.
      99926    2    1    2    0    0  0.00000000000E+00  0.17763568394E-14  0.20067651123E+04  0.20576899702E+04  0.45495252236E+03 0.  0.
      99925    2    3    3    0    0  0.15131079457E+01 -0.83213933132E+01  0.75135440936E+03  0.79603428175E+03  0.26280333746E+03 0.  0.
         25    1    4    4    0    0  0.72635964335E+00  0.45210029290E+01  0.49383558871E+03  0.50945271011E+03  0.12509000000E+03 0.  0.
         25    1    4    4    0    0  0.78674830236E+00 -0.12842396242E+02  0.25751882065E+03  0.28658157164E+03  0.12509000000E+03 0.  0.
         25    1    3    3    0    0 -0.15131079457E+01  0.83213933132E+01  0.12554107030E+04  0.12616556885E+04  0.12509000000E+03 0.  0.
<mgrwt>
<rscale>  2 0.45495252E+03</rscale>
<asrwt>0</asrwt>
<pdfrwt beam="1">  1       21 0.29885688E+00 0.45495252E+03</pdfrwt>
<pdfrwt beam="2">  1       21 0.37444762E-02 0.45495252E+03</pdfrwt>
<totfact> 0.12795398E+04</totfact>
</mgrwt>
</event>
<event>
 7    0  0.4709932E-002  0.4577939E+03  0.7546771E-02  0.1025423E+00
         21   -1    0    0  502  501  0.00000000000E+00  0.00000000000E+00  0.21733184635E+03  0.21733184635E+03  0.00000000000E+00 0.  1.
         21   -1    0    0  501  502 -0.00000000000E+00 -0.00000000000E+00 -0.24107744473E+03  0.24107744473E+03  0.00000000000E+00 0.  1.
      99926    2    1    2    0    0  0.00000000000E+00  0.00000000000E+00 -0.23745598375E+02  0.45840929108E+03  0.45779386705E+03 0.  0.
      99925    2    3    3    0    0 -0.10893458889E+03 -0.38376621237E+02 -0.60345395019E+01  0.28723482038E+03  0.26292188318E+03 0.  0.
         25    1    3    3    0    0  0.10893458889E+03  0.38376621237E+02 -0.17711058873E+02  0.17117447070E+03  0.12509000000E+03 0.  0.
         25    1    4    4    0    0 -0.37622423284E+02  0.19329731783E+02 -0.32119214292E+01  0.13208675105E+03  0.12509000000E+03 0.  0.
         25    1    4    4    0    0 -0.71312165607E+02 -0.57706353020E+02 -0.28226180727E+01  0.15514806932E+03  0.12509000000E+03 0.  0.
<mgrwt>
<rscale>  2 0.45779387E+03</rscale>
<asrwt>0</asrwt>
<pdfrwt beam="1">  1       21 0.31960566E-01 0.45779387E+03</pdfrwt>
<pdfrwt beam="2">  1       21 0.35452565E-01 0.45779387E+03</pdfrwt>
<totfact> 0.66795322E+04</totfact>
</mgrwt>
</event>
<event>
 7    0  0.4709932E-002  0.4475270E+03  0.7546771E-02  0.1028462E+00
         21   -1    0    0  502  501  0.00000000000E+00  0.00000000000E+00  0.49303137889E+02  0.49303137889E+02  0.00000000000E+00 0. -1.
         21   -1    0    0  501  502 -0.00000000000E+00 -0.00000000000E+00 -0.10155561376E+04  0.10155561376E+04  0.00000000000E+00 0. -1.
      99926    2    1    2    0    0  0.00000000000E+00 -0.71054273576E-14 -0.96625299971E+03  0.10648592755E+04  0.44752700158E+03 0.  0.
      99925    2    3    3    0    0  0.92860562814E+02  0.39959721339E+02 -0.53477942807E+03  0.60438472182E+03  0.26281550910E+03 0.  0.
         25    1    3    3    0    0 -0.92860562814E+02 -0.39959721339E+02 -0.43147357163E+03  0.46047455366E+03  0.12509000000E+03 0.  0.
         25    1    4    4    0    0  0.78031950148E+02  0.33914873893E+02 -0.34268911997E+03  0.37459650954E+03  0.12509000000E+03 0.  0.
         25    1    4    4    0    0  0.14828612666E+02  0.60448474459E+01 -0.19209030810E+03  0.22978821228E+03  0.12509000000E+03 0.  0.
<mgrwt>
<rscale>  2 0.44752700E+03</rscale>
<asrwt>0</asrwt>
<pdfrwt beam="1">  1       21 0.72504625E-02 0.44752700E+03</pdfrwt>
<pdfrwt beam="2">  1       21 0.14934647E+00 0.44752700E+03</pdfrwt>
<totfact> 0.38959835E+04</totfact>
</mgrwt>
</event>
<event>
 7    0  0.4709932E-002  0.4378333E+03  0.7546771E-02  0.1031414E+00
         21   -1    0    0  502  501  0.00000000000E+00  0.00000000000E+00  0.44083404979E+02  0.44083404979E+02  0.00000000000E+00 0. -1.
         21   -1    0    0  501  502 -0.00000000000E+00 -0.00000000000E+00 -0.10871325378E+04  0.10871325378E+04  0.00000000000E+00 0. -1.
      99926    2    1    2    0    0  0.00000000000E+00  0.00000000000E+00 -0.10430491328E+04  0.11312159427E+04  0.43783331955E+03 0.  0.
      99925    2    3    3    0    0  0.25036476381E+02 -0.88590690442E+02 -0.73901973123E+03  0.78981219249E+03  0.26301711097E+03 0.  0.
         25    1    4    4    0    0 -0.65951043261E+01 -0.80533956472E+02 -0.41827936584E+03  0.44399814136E+03  0.12509000000E+03 0.  0.
         25    1    3    3    0    0 -0.25036476381E+02  0.88590690442E+02 -0.30402940154E+03  0.34140375025E+03  0.12509000000E+03 0.  0.
         25    1    4    4    0    0  0.31631580708E+02 -0.80567339705E+01 -0.32074036540E+03  0.34581405113E+03  0.12509000000E+03 0.  0.
<mgrwt>
<rscale>  2 0.43783332E+03</rscale>
<asrwt>0</asrwt>
<pdfrwt beam="1">  1       21 0.64828542E-02 0.43783332E+03</pdfrwt>
<pdfrwt beam="2">  1       21 0.15987242E+00 0.43783332E+03</pdfrwt>
<totfact> 0.39434351E+04</totfact>
</mgrwt>
</event>
<event>
 7    0  0.4709932E-002  0.4520154E+03  0.7546771E-02  0.1027123E+00
         21   -1    0    0  502  501  0.00000000000E+00  0.00000000000E+00  0.84496147221E+03  0.84496147221E+03  0.00000000000E+00 0.  1.
         21   -1    0    0  501  502 -0.00000000000E+00 -0.00000000000E+00 -0.60451837906E+02  0.60451837906E+02  0.00000000000E+00 0.  1.
      99926    2    1    2    0    0  0.00000000000E+00  0.14210854715E-13  0.78450963430E+03  0.90541331011E+03  0.45201537122E+03 0.  0.
      99925    2    3    3    0    0  0.73031351004E+02 -0.66766530347E+02  0.39734853208E+03  0.48668598240E+03  0.26303239669E+03 0.  0.
         25    1    3    3    0    0 -0.73031351004E+02  0.66766530347E+02  0.38716110222E+03  0.41872732772E+03  0.12509000000E+03 0.  0.
         25    1    4    4    0    0 -0.31897980884E+01 -0.17836760694E+02  0.16984503950E+03  0.21171483270E+03  0.12509000000E+03 0.  0.
         25    1    4    4    0    0  0.76221149092E+02 -0.48929769653E+02  0.22750349258E+03  0.27497114969E+03  0.12509000000E+03 0.  0.
<mgrwt>
<rscale>  2 0.45201537E+03</rscale>
<asrwt>0</asrwt>
<pdfrwt beam="1">  1       21 0.12425903E+00 0.45201537E+03</pdfrwt>
<pdfrwt beam="2">  1       21 0.88899767E-02 0.45201537E+03</pdfrwt>
<totfact> 0.44020025E+04</totfact>
</mgrwt>
</event>
<event>
 7    0  0.4709932E-002  0.4633945E+03  0.7546771E-02  0.1023801E+00
         21   -1    0    0  502  501  0.00000000000E+00  0.00000000000E+00  0.11386328872E+03  0.11386328872E+03  0.00000000000E+00 0.  1.
         21   -1    0    0  501  502 -0.00000000000E+00 -0.00000000000E+00 -0.47147423119E+03  0.47147423119E+03  0.00000000000E+00 0.  1.
      99926    2    1    2    0    0  0.00000000000E+00 -0.35527136788E-14 -0.35761094246E+03  0.58533751991E+03  0.46339446052E+03 0.  0.
      99925    2    3    3    0    0  0.11352794789E+03  0.18211845401E+02 -0.26722951493E+03  0.39288862589E+03  0.26406361438E+03 0.  0.
         25    1    4    4    0    0  0.59531393796E+02  0.49503277746E+02 -0.11981889023E+03  0.18973306488E+03  0.12509000000E+03 0.  0.
         25    1    4    4    0    0  0.53996554092E+02 -0.31291432345E+02 -0.14741062471E+03  0.20315556101E+03  0.12509000000E+03 0.  0.
         25    1    3    3    0    0 -0.11352794789E+03 -0.18211845401E+02 -0.90381427532E+02  0.19244889401E+03  0.12509000000E+03 0.  0.
<mgrwt>
<rscale>  2 0.46339446E+03</rscale>
<asrwt>0</asrwt>
<pdfrwt beam="1">  1       21 0.16744602E-01 0.46339446E+03</pdfrwt>
<pdfrwt beam="2">  1       21 0.69334444E-01 0.46339446E+03</pdfrwt>
<totfact> 0.55794451E+04</totfact>
</mgrwt>
</event>
<event>
 7    0  0.4709932E-002  0.4475783E+03  0.7546771E-02  0.1028447E+00
         21   -1    0    0  502  501  0.00000000000E+00  0.00000000000E+00  0.41230044813E+03  0.41230044813E+03  0.00000000000E+00 0.  1.
         21   -1    0    0  501  502 -0.00000000000E+00 -0.00000000000E+00 -0.12146868229E+03  0.12146868229E+03  0.00000000000E+00 0.  1.
      99926    2    1    2    0    0  0.00000000000E+00  0.00000000000E+00  0.29083176583E+03  0.53376913042E+03  0.44757833792E+03 0.  0.
      99925    2    3    3    0    0  0.79499839525E+02  0.48003856599E+02  0.24517439016E+03  0.37142166729E+03  0.26309499920E+03 0.  0.
         25    1    4    4    0    0  0.45304959084E+02  0.59000198279E+02  0.15780056611E+03  0.21466739268E+03  0.12509000000E+03 0.  0.
         25    1    4    4    0    0  0.34194880441E+02 -0.10996341680E+02  0.87373824046E+02  0.15675427461E+03  0.12509000000E+03 0.  0.
         25    1    3    3    0    0 -0.79499839525E+02 -0.48003856599E+02  0.45657375674E+02  0.16234746314E+03  0.12509000000E+03 0.  0.
<mgrwt>
<rscale>  2 0.44757834E+03</rscale>
<asrwt>0</asrwt>
<pdfrwt beam="1">  1       21 0.60632419E-01 0.44757834E+03</pdfrwt>
<pdfrwt beam="2">  1       21 0.17863042E-01 0.44757834E+03</pdfrwt>
<totfact> 0.66789784E+04</totfact>
</mgrwt>
</event>
<event>
 7    0  0.4709932E-002  0.4552764E+03  0.7546771E-02  0.1026160E+00
         21   -1    0    0  502  501  0.00000000000E+00  0.00000000000E+00  0.12692256835E+03  0.12692256835E+03  0.00000000000E+00 0.  1.
         21   -1    0    0  501  502 -0.00000000000E+00 -0.00000000000E+00 -0.40827364507E+03  0.40827364507E+03  0.00000000000E+00 0.  1.
      99926    2    1    2    0    0  0.00000000000E+00  0.00000000000E+00 -0.28135107672E+03  0.53519621342E+03  0.45527635397E+03 0.  0.
      99925    2    3    3    0    0 -0.18936729822E+02  0.94104457565E+02 -0.10604437864E+03  0.29941200029E+03  0.26303590441E+03 0.  0.
         25    1    4    4    0    0 -0.12512453865E+02  0.14601482508E+02 -0.77294283849E+02  0.14829591771E+03  0.12509000000E+03 0.  0.
         25    1    3    3    0    0  0.18936729822E+02 -0.94104457565E+02 -0.17530669807E+03  0.23578421313E+03  0.12509000000E+03 0.  0.
         25    1    4    4    0    0 -0.64242759571E+01  0.79502975057E+02 -0.28750094792E+02  0.15111608258E+03  0.12509000000E+03 0.  0.
<mgrwt>
<rscale>  2 0.45527635E+03</rscale>
<asrwt>0</asrwt>
<pdfrwt beam="1">  1       21 0.18665084E-01 0.45527635E+03</pdfrwt>
<pdfrwt beam="2">  1       21 0.60040240E-01 0.45527635E+03</pdfrwt>
<totfact> 0.62718187E+04</totfact>
</mgrwt>
</event>
<event>
 7    0  0.4709932E-002  0.4546953E+03  0.7546771E-02  0.1026331E+00
         21   -1    0    0  502  501  0.00000000000E+00  0.00000000000E+00  0.93297773020E+02  0.93297773020E+02  0.00000000000E+00 0. -1.
         21   -1    0    0  501  502 -0.00000000000E+00 -0.00000000000E+00 -0.55399977697E+03  0.55399977697E+03  0.00000000000E+00 0. -1.
      99926    2    1    2    0    0  0.00000000000E+00  0.14210854715E-13 -0.46070200395E+03  0.64729754999E+03  0.45469526254E+03 0.  0.
      99925    2    3    3    0    0 -0.28598846330E+02  0.10861647586E+03 -0.30636319331E+03  0.41907965102E+03  0.26297131944E+03 0.  0.
         25    1    3    3    0    0  0.28598846330E+02 -0.10861647586E+03 -0.15433881064E+03  0.22821789897E+03  0.12509000000E+03 0.  0.
         25    1    4    4    0    0  0.17435710984E+02  0.44845734821E+02 -0.11032860799E+03  0.17359450968E+03  0.12509000000E+03 0.  0.
         25    1    4    4    0    0 -0.46034557315E+02  0.63770741038E+02 -0.19603458532E+03  0.24548514135E+03  0.12509000000E+03 0.  0.
<mgrwt>
<rscale>  2 0.45469526E+03</rscale>
<asrwt>0</asrwt>
<pdfrwt beam="1">  1       21 0.13720261E-01 0.45469526E+03</pdfrwt>
<pdfrwt beam="2">  1       21 0.81470551E-01 0.45469526E+03</pdfrwt>
<totfact> 0.55991945E+04</totfact>
</mgrwt>
</event>
<event>
 7    0  0.4709932E-002  0.4525796E+03  0.7546771E-02  0.1026956E+00
         21   -1    0    0  502  501  0.00000000000E+00  0.00000000000E+00  0.48111499906E+03  0.48111499906E+03  0.00000000000E+00 0.  1.
         21   -1    0    0  501  502 -0.00000000000E+00 -0.00000000000E+00 -0.10643415245E+03  0.10643415245E+03  0.00000000000E+00 0.  1.
      99926    2    1    2    0    0 -0.71054273576E-14  0.17763568394E-14  0.37468084661E+03  0.58754915150E+03  0.45257957158E+03 0.  0.
      99925    2    3    3    0    0  0.48908741177E+02  0.15926001937E+02  0.10874030828E+03  0.28919101012E+03  0.26298532884E+03 0.  0.
         25    1    4    4    0    0  0.52076624436E+02 -0.20479526239E+02  0.65507138334E+02  0.15188837704E+03  0.12509000000E+03 0.  0.
         25    1    3    3    0    0 -0.48908741177E+02 -0.15926001937E+02  0.26594053834E+03  0.29835814139E+03  0.12509000000E+03 0.  0.
         25    1    4    4    0    0 -0.31678832586E+01  0.36405528176E+02  0.43233169941E+02  0.13730263307E+03  0.12509000000E+03 0.  0.
<mgrwt>
<rscale>  2 0.45257957E+03</rscale>
<asrwt>0</asrwt>
<pdfrwt beam="1">  1       21 0.70752205E-01 0.45257957E+03</pdfrwt>
<pdfrwt beam="2">  1       21 0.15652081E-01 0.45257957E+03</pdfrwt>
<totfact> 0.60602359E+04</totfact>
</mgrwt>
</event>
<event>
 7    0  0.4709932E-002  0.4492682E+03  0.7546771E-02  0.1027940E+00
         21   -1    0    0  502  501  0.00000000000E+00  0.00000000000E+00  0.57691440022E+02  0.57691440022E+02  0.00000000000E+00 0. -1.
         21   -1    0    0  501  502 -0.00000000000E+00 -0.00000000000E+00 -0.87466157383E+03  0.87466157383E+03  0.00000000000E+00 0. -1.
      99926    2    1    2    0    0  0.00000000000E+00  0.00000000000E+00 -0.81697013381E+03  0.93235301385E+03  0.44926823047E+03 0.  0.
      99925    2    3    3    0    0 -0.54611387117E+02 -0.17698615894E+02 -0.32773321395E+03  0.42412480088E+03  0.26301547975E+03 0.  0.
         25    1    4    4    0    0 -0.49260030692E+02  0.21725536632E+02 -0.19104064032E+03  0.23461155965E+03  0.12509000000E+03 0.  0.
         25    1    4    4    0    0 -0.53513564254E+01 -0.39424152527E+02 -0.13669257363E+03  0.18951324124E+03  0.12509000000E+03 0.  0.
         25    1    3    3    0    0  0.54611387117E+02  0.17698615894E+02 -0.48923691986E+03  0.50822821297E+03  0.12509000000E+03 0.  0.
<mgrwt>
<rscale>  2 0.44926823E+03</rscale>
<asrwt>0</asrwt>
<pdfrwt beam="1">  1       21 0.84840356E-02 0.44926823E+03</pdfrwt>
<pdfrwt beam="2">  1       21 0.12862670E+00 0.44926823E+03</pdfrwt>
<totfact> 0.43794344E+04</totfact>
</mgrwt>
</event>
<event>
 7    0  0.4709932E-002  0.4727869E+03  0.7546771E-02  0.1021137E+00
         21   -1    0    0  502  501  0.00000000000E+00  0.00000000000E+00  0.14492242301E+03  0.14492242301E+03  0.00000000000E+00 0.  1.
         21   -1    0    0  501  502 -0.00000000000E+00 -0.00000000000E+00 -0.38559839246E+03  0.38559839246E+03  0.00000000000E+00 0.  1.
      99926    2    1    2    0    0  0.71054273576E-14  0.00000000000E+00 -0.24067596945E+03  0.53052081546E+03  0.47278685829E+03 0.  0.
      99925    2    3    3    0    0  0.51756251514E+02  0.40370321934E+02 -0.27378392032E+03  0.38542733878E+03  0.26322637784E+03 0.  0.
         25    1    3    3    0    0 -0.51756251514E+02 -0.40370321934E+02  0.33107950872E+02  0.14509347668E+03  0.12509000000E+03 0.  0.
         25    1    4    4    0    0  0.33927230314E+02  0.58707294088E+02 -0.12523973460E+03  0.18955237418E+03  0.12509000000E+03 0.  0.
         25    1    4    4    0    0  0.17829021200E+02 -0.18336972154E+02 -0.14854418572E+03  0.19587496460E+03  0.12509000000E+03 0.  0.
<mgrwt>
<rscale>  2 0.47278686E+03</rscale>
<asrwt>0</asrwt>
<pdfrwt beam="1">  1       21 0.21312121E-01 0.47278686E+03</pdfrwt>
<pdfrwt beam="2">  1       21 0.56705645E-01 0.47278686E+03</pdfrwt>
<totfact> 0.54995600E+04</totfact>
</mgrwt>
</event>
<event>
 7    0  0.4709932E-002  0.4551607E+03  0.7546771E-02  0.1026194E+00
         21   -1    0    0  502  501  0.00000000000E+00  0.00000000000E+00  0.18530375318E+03  0.18530375318E+03  0.00000000000E+00 0. -1.
         21   -1    0    0  501  502 -0.00000000000E+00 -0.00000000000E+00 -0.27950229844E+03  0.27950229844E+03  0.00000000000E+00 0. -1.
      99926    2    1    2    0    0  0.14210854715E-13 -0.71054273576E-14 -0.94198545259E+02  0.46480605163E+03  0.45516074051E+03 0.  0.
      99925    2    3    3    0    0  0.66553011886E+02 -0.51761204246E+02  0.17841236001E+02  0.27689930257E+03  0.26314708512E+03 0.  0.
         25    1    4    4    0    0  0.71468975891E+01 -0.29615374467E+00 -0.13044607974E+02  0.12597156723E+03  0.12509000000E+03 0.  0.
         25    1    4    4    0    0  0.59406114297E+02 -0.51465050501E+02  0.30885843975E+02  0.15092773535E+03  0.12509000000E+03 0.  0.
         25    1    3    3    0    0 -0.66553011886E+02  0.51761204246E+02 -0.11203978126E+03  0.18790674906E+03  0.12509000000E+03 0.  0.
<mgrwt>
<rscale>  2 0.45516074E+03</rscale>
<asrwt>0</asrwt>
<pdfrwt beam="1">  1       21 0.27250552E-01 0.45516074E+03</pdfrwt>
<pdfrwt beam="2">  1       21 0.41103279E-01 0.45516074E+03</pdfrwt>
<totfact> 0.67738091E+04</totfact>
</mgrwt>
</event>
<event>
 7    0  0.4709932E-002  0.4237308E+03  0.7546771E-02  0.1035859E+00
         21   -1    0    0  502  501  0.00000000000E+00  0.00000000000E+00  0.24799497281E+03  0.24799497281E+03  0.00000000000E+00 0.  1.
         21   -1    0    0  501  502 -0.00000000000E+00 -0.00000000000E+00 -0.18099944454E+03  0.18099944454E+03  0.00000000000E+00 0.  1.
      99926    2    1    2    0    0  0.00000000000E+00  0.00000000000E+00  0.66995528276E+02  0.42899441735E+03  0.42373082176E+03 0.  0.
      99925    2    3    3    0    0 -0.25410525722E+02  0.43940991335E+02  0.10663755837E+03  0.28829792064E+03  0.26299737005E+03 0.  0.
         25    1    4    4    0    0 -0.16398460657E+02  0.18084316060E+02  0.99397628072E+01  0.12783684517E+03  0.12509000000E+03 0.  0.
         25    1    3    3    0    0  0.25410525722E+02 -0.43940991335E+02 -0.39642030095E+02  0.14069649671E+03  0.12509000000E+03 0.  0.
         25    1    4    4    0    0 -0.90120650656E+01  0.25856675275E+02  0.96697795563E+02  0.16046107547E+03  0.12509000000E+03 0.  0.
<mgrwt>
<rscale>  2 0.42373082E+03</rscale>
<asrwt>0</asrwt>
<pdfrwt beam="1">  1       21 0.36469849E-01 0.42373082E+03</pdfrwt>
<pdfrwt beam="2">  1       21 0.26617565E-01 0.42373082E+03</pdfrwt>
<totfact> 0.91207522E+04</totfact>
</mgrwt>
</event>
<event>
 7    0  0.4709932E-002  0.4526448E+03  0.7546771E-02  0.1026936E+00
         21   -1    0    0  502  501  0.00000000000E+00  0.00000000000E+00  0.11756826104E+03  0.11756826104E+03  0.00000000000E+00 0. -1.
         21   -1    0    0  501  502 -0.00000000000E+00 -0.00000000000E+00 -0.43567728756E+03  0.43567728756E+03  0.00000000000E+00 0. -1.
      99926    2    1    2    0    0  0.00000000000E+00 -0.35527136788E-14 -0.31810902652E+03  0.55324554861E+03  0.45264476612E+03 0.  0.
      99925    2    3    3    0    0 -0.65377329193E+02  0.30350762040E+02 -0.97588633995E+02  0.28966991326E+03  0.26303945186E+03 0.  0.
         25    1    4    4    0    0  0.48239161028E+01 -0.13065828553E+01 -0.34940924590E+02  0.12997443455E+03  0.12509000000E+03 0.  0.
         25    1    3    3    0    0  0.65377329193E+02 -0.30350762040E+02 -0.22052039253E+03  0.26357563535E+03  0.12509000000E+03 0.  0.
         25    1    4    4    0    0 -0.70201245296E+02  0.31657344895E+02 -0.62647709405E+02  0.15969547871E+03  0.12509000000E+03 0.  0.
<mgrwt>
<rscale>  2 0.45264477E+03</rscale>
<asrwt>0</asrwt>
<pdfrwt beam="1">  1       21 0.17289450E-01 0.45264477E+03</pdfrwt>
<pdfrwt beam="2">  1       21 0.64070189E-01 0.45264477E+03</pdfrwt>
<totfact> 0.62814808E+04</totfact>
</mgrwt>
</event>
<event>
 7    0  0.4709932E-002  0.4545048E+03  0.7546771E-02  0.1026387E+00
         21   -1    0    0  502  501  0.00000000000E+00  0.00000000000E+00  0.48893324816E+03  0.48893324816E+03  0.00000000000E+00 0. -1.
         21   -1    0    0  501  502 -0.00000000000E+00 -0.00000000000E+00 -0.10562515430E+03  0.10562515430E+03  0.00000000000E+00 0. -1.
      99926    2    1    2    0    0  0.00000000000E+00  0.00000000000E+00  0.38330809386E+03  0.59455840246E+03  0.45450478448E+03 0.  0.
      99925    2    3    3    0    0  0.94740351711E+02 -0.45085448947E+02  0.18766991410E+03  0.33974427916E+03  0.26305464569E+03 0.  0.
         25    1    4    4    0    0  0.34763506162E+02  0.10807575885E+02  0.11357134184E+03  0.17283304905E+03  0.12509000000E+03 0.  0.
         25    1    4    4    0    0  0.59976845549E+02 -0.55893024832E+02  0.74098572258E+02  0.16691123011E+03  0.12509000000E+03 0.  0.
         25    1    3    3    0    0 -0.94740351711E+02  0.45085448947E+02  0.19563817976E+03  0.25481412329E+03  0.12509000000E+03 0.  0.
<mgrwt>
<rscale>  2 0.45450478E+03</rscale>
<asrwt>0</asrwt>
<pdfrwt beam="1">  1       21 0.71901948E-01 0.45450478E+03</pdfrwt>
<pdfrwt beam="2">  1       21 0.15533111E-01 0.45450478E+03</pdfrwt>
<totfact> 0.59245982E+04</totfact>
</mgrwt>
</event>
<event>
 7    0  0.4709932E-002  0.4513314E+03  0.7546771E-02  0.1027326E+00
         21   -1    0    0  502  501  0.00000000000E+00  0.00000000000E+00  0.37606411530E+03  0.37606411530E+03  0.00000000000E+00 0.  1.
         21   -1    0    0  501  502 -0.00000000000E+00 -0.00000000000E+00 -0.13541576156E+03  0.13541576156E+03  0.00000000000E+00 0.  1.
      99926    2    1    2    0    0  0.44408920985E-15 -0.14210854715E-13  0.24064835374E+03  0.51147987685E+03  0.45133140182E+03 0.  0.
      99925    2    3    3    0    0 -0.27152323432E+01  0.93377476767E+02  0.21705920931E+03  0.35358535038E+03  0.26302314348E+03 0.  0.
         25    1    4    4    0    0  0.35610114374E+02  0.47464378745E+02  0.87232370226E+02  0.16363967126E+03  0.12509000000E+03 0.  0.
         25    1    4    4    0    0 -0.38325346717E+02  0.45913098022E+02  0.12982683908E+03  0.18994567912E+03  0.12509000000E+03 0.  0.
         25    1    3    3    0    0  0.27152323432E+01 -0.93377476767E+02  0.23589144434E+02  0.15789452647E+03  0.12509000000E+03 0.  0.
<mgrwt>
<rscale>  2 0.45133140E+03</rscale>
<asrwt>0</asrwt>
<pdfrwt beam="1">  1       21 0.55303546E-01 0.45133140E+03</pdfrwt>
<pdfrwt beam="2">  1       21 0.19914083E-01 0.45133140E+03</pdfrwt>
<totfact> 0.66383048E+04</totfact>
</mgrwt>
</event>
<event>
 7    0  0.4709932E-002  0.4557137E+03  0.7546771E-02  0.1026032E+00
         21   -1    0    0  502  501  0.00000000000E+00  0.00000000000E+00  0.37678662772E+03  0.37678662772E+03  0.00000000000E+00 0.  1.
         21   -1    0    0  501  502 -0.00000000000E+00 -0.00000000000E+00 -0.13779348114E+03  0.13779348114E+03  0.00000000000E+00 0.  1.
      99926    2    1    2    0    0  0.00000000000E+00  0.00000000000E+00  0.23899314658E+03  0.51458010886E+03  0.45571368678E+03 0.  0.
      99925    2    3    3    0    0  0.62137174693E+02 -0.67935740864E+02  0.22530494523E+03  0.35865971789E+03  0.26343534601E+03 0.  0.
         25    1    4    4    0    0  0.37746277672E+02  0.23735690396E+01  0.13212140522E+03  0.18583322934E+03  0.12509000000E+03 0.  0.
         25    1    4    4    0    0  0.24390897022E+02 -0.70309309903E+02  0.93183540005E+02  0.17282648855E+03  0.12509000000E+03 0.  0.
         25    1    3    3    0    0 -0.62137174693E+02  0.67935740864E+02  0.13688201358E+02  0.15592039098E+03  0.12509000000E+03 0.  0.
<mgrwt>
<rscale>  2 0.45571369E+03</rscale>
<asrwt>0</asrwt>
<pdfrwt beam="1">  1       21 0.55409798E-01 0.45571369E+03</pdfrwt>
<pdfrwt beam="2">  1       21 0.20263747E-01 0.45571369E+03</pdfrwt>
<totfact> 0.63895405E+04</totfact>
</mgrwt>
</event>
<event>
 6    0  0.4709932E-002  0.4600470E+03  0.7546771E-02  0.1024768E+00
         21   -1    0    0  502  501  0.00000000000E+00  0.00000000000E+00  0.92376827886E+03  0.92376827886E+03  0.00000000000E+00 0.  1.
         21   -1    0    0  501  502 -0.00000000000E+00 -0.00000000000E+00 -0.57277144490E+02  0.57277144490E+02  0.00000000000E+00 0.  1.
      99926    2    1    2    0    0 -0.14210854715E-13  0.00000000000E+00  0.86649113437E+03  0.98104542335E+03  0.46004699405E+03 0.  0.
         25    1    3    3    0    0 -0.37567117814E+02 -0.20996469458E+02  0.30793686771E+03  0.33514886643E+03  0.12509000000E+03 0.  0.
         25    1    3    3    0    0  0.12011551223E+03  0.90312584783E+01  0.28461820308E+03  0.33341315141E+03  0.12509000000E+03 0.  0.
         25    1    3    3    0    0 -0.82548394414E+02  0.11965210980E+02  0.27393606358E+03  0.31248340551E+03  0.12509000000E+03 0.  0.
<mgrwt>
<rscale>  2 0.46004699E+03</rscale>
<asrwt>0</asrwt>
<pdfrwt beam="1">  1       21 0.13584827E+00 0.46004699E+03</pdfrwt>
<pdfrwt beam="2">  1       21 0.84231101E-02 0.46004699E+03</pdfrwt>
<totfact> 0.38372075E+04</totfact>
</mgrwt>
</event>
<event>
 7    0  0.4709932E-002  0.4576845E+03  0.7546771E-02  0.1025455E+00
         21   -1    0    0  502  501  0.00000000000E+00  0.00000000000E+00  0.42639235914E+03  0.42639235914E+03  0.00000000000E+00 0.  1.
         21   -1    0    0  501  502 -0.00000000000E+00 -0.00000000000E+00 -0.12281829367E+03  0.12281829367E+03  0.00000000000E+00 0.  1.
      99926    2    1    2    0    0 -0.71054273576E-14 -0.71054273576E-14  0.30357406547E+03  0.54921065281E+03  0.45768452884E+03 0.  0.
      99925    2    3    3    0    0 -0.59079718085E+02 -0.48018613950E+02  0.86054930089E+02  0.28699264670E+03  0.26298883606E+03 0.  0.
         25    1    4    4    0    0 -0.11842871207E+02  0.46636375219E+01  0.65626627474E+02  0.14183217353E+03  0.12509000000E+03 0.  0.
         25    1    4    4    0    0 -0.47236846878E+02 -0.52682251472E+02  0.20428302614E+02  0.14516047317E+03  0.12509000000E+03 0.  0.
         25    1    3    3    0    0  0.59079718085E+02  0.48018613950E+02  0.21751913538E+03  0.26221800611E+03  0.12509000000E+03 0.  0.
<mgrwt>
<rscale>  2 0.45768453E+03</rscale>
<asrwt>0</asrwt>
<pdfrwt beam="1">  1       21 0.62704758E-01 0.45768453E+03</pdfrwt>
<pdfrwt beam="2">  1       21 0.18061514E-01 0.45768453E+03</pdfrwt>
<totfact> 0.60620802E+04</totfact>
</mgrwt>
</event>
<event>
 7    0  0.4709932E-002  0.4535733E+03  0.7546771E-02  0.1026662E+00
         21   -1    0    0  502  501  0.00000000000E+00  0.00000000000E+00  0.24963400137E+03  0.24963400137E+03  0.00000000000E+00 0.  1.
         21   -1    0    0  501  502 -0.00000000000E+00 -0.00000000000E+00 -0.20603039339E+03  0.20603039339E+03  0.00000000000E+00 0.  1.
      99926    2    1    2    0    0 -0.14210854715E-13  0.71054273576E-14  0.43603607976E+02  0.45566439476E+03  0.45357333037E+03 0.  0.
      99925    2    3    3    0    0 -0.88861462750E+02  0.61273061661E+02 -0.49898729423E+00  0.28465768537E+03  0.26339893926E+03 0.  0.
         25    1    4    4    0    0 -0.73578111022E+02  0.63542344491E+02 -0.54485987746E+01  0.15851991450E+03  0.12509000000E+03 0.  0.
         25    1    4    4    0    0 -0.15283351727E+02 -0.22692828303E+01  0.49496114804E+01  0.12613777086E+03  0.12509000000E+03 0.  0.
         25    1    3    3    0    0  0.88861462750E+02 -0.61273061661E+02  0.44102595270E+02  0.17100670939E+03  0.12509000000E+03 0.  0.
<mgrwt>
<rscale>  2 0.45357333E+03</rscale>
<asrwt>0</asrwt>
<pdfrwt beam="1">  1       21 0.36710883E-01 0.45357333E+03</pdfrwt>
<pdfrwt beam="2">  1       21 0.30298587E-01 0.45357333E+03</pdfrwt>
<totfact> 0.69282427E+04</totfact>
</mgrwt>
</event>
<event>
 7    0  0.4709932E-002  0.4543347E+03  0.7546771E-02  0.1026437E+00
         21   -1    0    0  502  501  0.00000000000E+00  0.00000000000E+00  0.29603504217E+03  0.29603504217E+03  0.00000000000E+00 0.  1.
         21   -1    0    0  501  502 -0.00000000000E+00 -0.00000000000E+00 -0.17432058952E+03  0.17432058952E+03  0.00000000000E+00 0.  1.
      99926    2    1    2    0    0  0.14210854715E-13  0.00000000000E+00  0.12171445265E+03  0.47035563169E+03  0.45433469192E+03 0.  0.
      99925    2    3    3    0    0 -0.83991955838E+02  0.69220145770E+02  0.47071442822E+02  0.28851734023E+03  0.26302178171E+03 0.  0.
         25    1    3    3    0    0  0.83991955838E+02 -0.69220145770E+02  0.74643009829E+02  0.18183829146E+03  0.12509000000E+03 0.  0.
         25    1    4    4    0    0 -0.72591379046E+01  0.46759623329E+02  0.41198495646E+02  0.13994277974E+03  0.12509000000E+03 0.  0.
         25    1    4    4    0    0 -0.76732817933E+02  0.22460522440E+02  0.58729471760E+01  0.14857456049E+03  0.12509000000E+03 0.  0.
<mgrwt>
<rscale>  2 0.45433469E+03</rscale>
<asrwt>0</asrwt>
<pdfrwt beam="1">  1       21 0.43534565E-01 0.45433469E+03</pdfrwt>
<pdfrwt beam="2">  1       21 0.25635381E-01 0.45433469E+03</pdfrwt>
<totfact> 0.67766240E+04</totfact>
</mgrwt>
</event>
<event>
 7    0  0.4709932E-002  0.4607772E+03  0.7546771E-02  0.1024556E+00
         21   -1    0    0  502  501  0.00000000000E+00  0.00000000000E+00  0.10583022641E+03  0.10583022641E+03  0.00000000000E+00 0.  1.
         21   -1    0    0  501  502 -0.00000000000E+00 -0.00000000000E+00 -0.50154777649E+03  0.50154777649E+03  0.00000000000E+00 0.  1.
      99926    2    1    2    0    0  0.00000000000E+00  0.00000000000E+00 -0.39571755008E+03  0.60737800290E+03  0.46077723356E+03 0.  0.
      99925    2    3    3    0    0  0.94772511287E+02  0.60725678834E+02 -0.29663480426E+03  0.41209785648E+03  0.26298859149E+03 0.  0.
         25    1    4    4    0    0  0.72828658997E+02  0.38886960879E+01 -0.17630371771E+03  0.22814391183E+03  0.12509000000E+03 0.  0.
         25    1    4    4    0    0  0.21943852291E+02  0.56836982747E+02 -0.12033108655E+03  0.18395394465E+03  0.12509000000E+03 0.  0.
         25    1    3    3    0    0 -0.94772511287E+02 -0.60725678834E+02 -0.99082745821E+02  0.19528014642E+03  0.12509000000E+03 0.  0.
<mgrwt>
<rscale>  2 0.46077723E+03</rscale>
<asrwt>0</asrwt>
<pdfrwt beam="1">  1       21 0.15563269E-01 0.46077723E+03</pdfrwt>
<pdfrwt beam="2">  1       21 0.73757024E-01 0.46077723E+03</pdfrwt>
<totfact> 0.55643108E+04</totfact>
</mgrwt>
</event>
<event>
 7    0  0.4709932E-002  0.4750983E+03  0.7546771E-02  0.1020491E+00
         21   -1    0    0  502  501  0.00000000000E+00  0.00000000000E+00  0.36867512208E+03  0.36867512208E+03  0.00000000000E+00 0. -1.
         21   -1    0    0  501  502 -0.00000000000E+00 -0.00000000000E+00 -0.15306048197E+03  0.15306048197E+03  0.00000000000E+00 0. -1.
      99926    2    1    2    0    0  0.00000000000E+00  0.00000000000E+00  0.21561464011E+03  0.52173560406E+03  0.47509827142E+03 0.  0.
      99925    2    3    3    0    0 -0.10364889489E+03  0.12507951550E+02  0.46289627200E+02  0.28675047610E+03  0.26302768617E+03 0.  0.
         25    1    4    4    0    0 -0.69798517930E+02  0.10278946603E+02  0.61547927437E+02  0.15624706500E+03  0.12509000000E+03 0.  0.
         25    1    4    4    0    0 -0.33850376959E+02  0.22290049461E+01 -0.15258300237E+02  0.13050341110E+03  0.12509000000E+03 0.  0.
         25    1    3    3    0    0  0.10364889489E+03 -0.12507951550E+02  0.16932501291E+03  0.23498512796E+03  0.12509000000E+03 0.  0.
<mgrwt>
<rscale>  2 0.47509827E+03</rscale>
<asrwt>0</asrwt>
<pdfrwt beam="1">  1       21 0.54216929E-01 0.47509827E+03</pdfrwt>
<pdfrwt beam="2">  1       21 0.22508895E-01 0.47509827E+03</pdfrwt>
<totfact> 0.54537242E+04</totfact>
</mgrwt>
</event>
<event>
 7    0  0.4709932E-002  0.4575356E+03  0.7546771E-02  0.1025498E+00
         21   -1    0    0  502  501  0.00000000000E+00  0.00000000000E+00  0.13514231243E+03  0.13514231243E+03  0.00000000000E+00 0. -1.
         21   -1    0    0  501  502 -0.00000000000E+00 -0.00000000000E+00 -0.38725632276E+03  0.38725632276E+03  0.00000000000E+00 0. -1.
      99926    2    1    2    0    0  0.00000000000E+00  0.35527136788E-14 -0.25211401033E+03  0.52239863518E+03  0.45753563778E+03 0.  0.
      99925    2    3    3    0    0  0.16980275817E+02  0.26618518072E+02 -0.28520067474E+03  0.38921038220E+03  0.26296087440E+03 0.  0.
         25    1    3    3    0    0 -0.16980275817E+02 -0.26618518072E+02  0.33086664413E+02  0.13318825298E+03  0.12509000000E+03 0.  0.
         25    1    4    4    0    0  0.17428815103E+02  0.52079228420E+02 -0.16027216323E+03  0.21059602094E+03  0.12509000000E+03 0.  0.
         25    1    4    4    0    0 -0.44853928523E+00 -0.25460710349E+02 -0.12492851152E+03  0.17861436126E+03  0.12509000000E+03 0.  0.
<mgrwt>
<rscale>  2 0.45753564E+03</rscale>
<asrwt>0</asrwt>
<pdfrwt beam="1">  1       21 0.19873870E-01 0.45753564E+03</pdfrwt>
<pdfrwt beam="2">  1       21 0.56949459E-01 0.45753564E+03</pdfrwt>
<totfact> 0.62458187E+04</totfact>
</mgrwt>
</event>
<event>
 7    0  0.4709932E-002  0.4687102E+03  0.7546771E-02  0.1022285E+00
         21   -1    0    0  502  501  0.00000000000E+00  0.00000000000E+00  0.51369994264E+03  0.51369994264E+03  0.00000000000E+00 0.  1.
         21   -1    0    0  501  502 -0.00000000000E+00 -0.00000000000E+00 -0.10691514583E+03  0.10691514583E+03  0.00000000000E+00 0.  1.
      99926    2    1    2    0    0 -0.71054273576E-14  0.00000000000E+00  0.40678479681E+03  0.62061508848E+03  0.46871016325E+03 0.  0.
      99925    2    3    3    0    0 -0.45313821336E+02 -0.45240883363E+02  0.10985901425E+03  0.29211469521E+03  0.26298652477E+03 0.  0.
         25    1    3    3    0    0  0.45313821336E+02  0.45240883363E+02  0.29692578256E+03  0.32850039327E+03  0.12509000000E+03 0.  0.
         25    1    4    4    0    0  0.29405735503E+01 -0.28907724024E+02  0.87032259695E+02  0.15513357409E+03  0.12509000000E+03 0.  0.
         25    1    4    4    0    0 -0.48254394887E+02 -0.16333159339E+02  0.22826754556E+02  0.13698112112E+03  0.12509000000E+03 0.  0.
<mgrwt>
<rscale>  2 0.46871016E+03</rscale>
<asrwt>0</asrwt>
<pdfrwt beam="1">  1       21 0.75544108E-01 0.46871016E+03</pdfrwt>
<pdfrwt beam="2">  1       21 0.15722816E-01 0.46871016E+03</pdfrwt>
<totfact> 0.51608211E+04</totfact>
</mgrwt>
</event>
<event>
 7    0  0.4709932E-002  0.4584703E+03  0.7546771E-02  0.1025226E+00
         21   -1    0    0  502  501  0.00000000000E+00  0.00000000000E+00  0.25149988630E+04  0.25149988630E+04  0.00000000000E+00 0. -1.
         21   -1    0    0  501  502 -0.00000000000E+00 -0.00000000000E+00 -0.20894148090E+02  0.20894148090E+02  0.00000000000E+00 0. -1.
      99926    2    1    2    0    0  0.00000000000E+00  0.14210854715E-13  0.24941047149E+04  0.25358930111E+04  0.45847032047E+03 0.  0.
      99925    2    3    3    0    0 -0.40937842723E+02  0.91249173624E+02  0.18935650305E+04  0.19143644604E+04  0.26305977250E+03 0.  0.
         25    1    4    4    0    0  0.10958518034E+00  0.78186008387E+02  0.89539388744E+03  0.90746393078E+03  0.12509000000E+03 0.  0.
         25    1    4    4    0    0 -0.41047427904E+02  0.13063165237E+02  0.99817114304E+03  0.10069005296E+04  0.12509000000E+03 0.  0.
         25    1    3    3    0    0  0.40937842723E+02 -0.91249173624E+02  0.60053968443E+03  0.62152855070E+03  0.12509000000E+03 0.  0.
<mgrwt>
<rscale>  2 0.45847032E+03</rscale>
<asrwt>0</asrwt>
<pdfrwt beam="1">  1       21 0.36985256E+00 0.45847032E+03</pdfrwt>
<pdfrwt beam="2">  1       21 0.30726706E-02 0.45847032E+03</pdfrwt>
<totfact> 0.65918379E+03</totfact>
</mgrwt>
</event>
<event>
 7    0  0.4709932E-002  0.4647999E+03  0.7546771E-02  0.1023398E+00
         21   -1    0    0  502  501  0.00000000000E+00  0.00000000000E+00  0.21282451381E+02  0.21282451381E+02  0.00000000000E+00 0. -1.
         21   -1    0    0  501  502 -0.00000000000E+00 -0.00000000000E+00 -0.25377596961E+04  0.25377596961E+04  0.00000000000E+00 0. -1.
      99926    2    1    2    0    0  0.00000000000E+00 -0.14210854715E-13 -0.25164772447E+04  0.25590421475E+04  0.46479994557E+03 0.  0.
      99925    2    3    3    0    0 -0.62975535904E+02  0.97335398683E+02 -0.13556206332E+04  0.13857239134E+04  0.26283714519E+03 0.  0.
         25    1    4    4    0    0 -0.43896408311E+02  0.10069006038E+02 -0.67386945125E+03  0.68685939243E+03  0.12509000000E+03 0.  0.
         25    1    4    4    0    0 -0.19079127593E+02  0.87266392645E+02 -0.68175118198E+03  0.69886452093E+03  0.12509000000E+03 0.  0.
         25    1    3    3    0    0  0.62975535904E+02 -0.97335398683E+02 -0.11608566115E+04  0.11733182341E+04  0.12509000000E+03 0.  0.
<mgrwt>
<rscale>  2 0.46479995E+03</rscale>
<asrwt>0</asrwt>
<pdfrwt beam="1">  1       21 0.31297722E-02 0.46479995E+03</pdfrwt>
<pdfrwt beam="2">  1       21 0.37319996E+00 0.46479995E+03</pdfrwt>
<totfact> 0.60705289E+03</totfact>
</mgrwt>
</event>
<event>
 7    0  0.4709932E-002  0.4505840E+03  0.7546771E-02  0.1027548E+00
         21   -1    0    0  502  501  0.00000000000E+00  0.00000000000E+00  0.51750012099E+02  0.51750012099E+02  0.00000000000E+00 0.  1.
         21   -1    0    0  501  502 -0.00000000000E+00 -0.00000000000E+00 -0.98080133162E+03  0.98080133162E+03  0.00000000000E+00 0.  1.
      99926    2    1    2    0    0 -0.71054273576E-14  0.00000000000E+00 -0.92905131952E+03  0.10325513437E+04  0.45058398009E+03 0.  0.
      99925    2    3    3    0    0  0.43425201472E+02  0.70135499571E+02 -0.75016598385E+03  0.79920137513E+03  0.26300018680E+03 0.  0.
         25    1    4    4    0    0  0.12702524749E+02  0.44545934004E+02 -0.48913109149E+03  0.50699351784E+03  0.12509000000E+03 0.  0.
         25    1    4    4    0    0  0.30722676723E+02  0.25589565567E+02 -0.26103489237E+03  0.29220785729E+03  0.12509000000E+03 0.  0.
         25    1    3    3    0    0 -0.43425201472E+02 -0.70135499571E+02 -0.17888533567E+03  0.23334996859E+03  0.12509000000E+03 0.  0.
<mgrwt>
<rscale>  2 0.45058398E+03</rscale>
<asrwt>0</asrwt>
<pdfrwt beam="1">  1       21 0.76102963E-02 0.45058398E+03</pdfrwt>
<pdfrwt beam="2">  1       21 0.14423548E+00 0.45058398E+03</pdfrwt>
<totfact> 0.39260342E+04</totfact>
</mgrwt>
</event>
<event>
 7    0  0.4709932E-002  0.4602829E+03  0.7546771E-02  0.1024699E+00
         21   -1    0    0  502  501  0.00000000000E+00  0.00000000000E+00  0.15326465201E+03  0.15326465201E+03  0.00000000000E+00 0. -1.
         21   -1    0    0  501  502 -0.00000000000E+00 -0.00000000000E+00 -0.34557920754E+03  0.34557920754E+03  0.00000000000E+00 0. -1.
      99926    2    1    2    0    0 -0.35527136788E-14  0.00000000000E+00 -0.19231455553E+03  0.49884385955E+03  0.46028285645E+03 0.  0.
      99925    2    3    3    0    0 -0.22554329946E+02 -0.21547171328E+02 -0.24387600315E+03  0.35999477107E+03  0.26295960126E+03 0.  0.
         25    1    4    4    0    0  0.32393921023E+01  0.22874216016E+02 -0.14230326597E+03  0.19087024657E+03  0.12509000000E+03 0.  0.
         25    1    4    4    0    0 -0.25793722048E+02 -0.44421387344E+02 -0.10157273718E+03  0.16912452450E+03  0.12509000000E+03 0.  0.
         25    1    3    3    0    0  0.22554329946E+02  0.21547171328E+02  0.51561447619E+02  0.13884908848E+03  0.12509000000E+03 0.  0.
<mgrwt>
<rscale>  2 0.46028286E+03</rscale>
<asrwt>0</asrwt>
<pdfrwt beam="1">  1       21 0.22538920E-01 0.46028286E+03</pdfrwt>
<pdfrwt beam="2">  1       21 0.50820471E-01 0.46028286E+03</pdfrwt>
<totfact> 0.62681696E+04</totfact>
</mgrwt>
</event>
<event>
 7    0  0.4709932E-002  0.4569267E+03  0.7546771E-02  0.1025676E+00
         21   -1    0    0  502  501  0.00000000000E+00  0.00000000000E+00  0.21623015105E+03  0.21623015105E+03  0.00000000000E+00 0.  1.
         21   -1    0    0  501  502 -0.00000000000E+00 -0.00000000000E+00 -0.24138862335E+03  0.24138862335E+03  0.00000000000E+00 0.  1.
      99926    2    1    2    0    0  0.00000000000E+00  0.00000000000E+00 -0.25158472301E+02  0.45761877440E+03  0.45692668334E+03 0.  0.
      99925    2    3    3    0    0 -0.93999193589E+02  0.56825744847E+02  0.18032448572E+02  0.28563628279E+03  0.26305494326E+03 0.  0.
         25    1    4    4    0    0 -0.44604328689E+02  0.22165351187E+02 -0.31334261532E+02  0.13823962159E+03  0.12509000000E+03 0.  0.
         25    1    3    3    0    0  0.93999193589E+02 -0.56825744847E+02 -0.43190920873E+02  0.17198249161E+03  0.12509000000E+03 0.  0.
         25    1    4    4    0    0 -0.49394864900E+02  0.34660393660E+02  0.49366710105E+02  0.14739666120E+03  0.12509000000E+03 0.  0.
<mgrwt>
<rscale>  2 0.45692668E+03</rscale>
<asrwt>0</asrwt>
<pdfrwt beam="1">  1       21 0.31798552E-01 0.45692668E+03</pdfrwt>
<pdfrwt beam="2">  1       21 0.35498327E-01 0.45692668E+03</pdfrwt>
<totfact> 0.67313640E+04</totfact>
</mgrwt>
</event>
<event>
 7    0  0.4709932E-002  0.4542592E+03  0.7546771E-02  0.1026459E+00
         21   -1    0    0  502  501  0.00000000000E+00  0.00000000000E+00  0.28832978003E+03  0.28832978003E+03  0.00000000000E+00 0.  1.
         21   -1    0    0  501  502 -0.00000000000E+00 -0.00000000000E+00 -0.17891961590E+03  0.17891961590E+03  0.00000000000E+00 0.  1.
      99926    2    1    2    0    0 -0.71054273576E-14  0.00000000000E+00  0.10941016413E+03  0.46724939594E+03  0.45425919252E+03 0.  0.
      99925    2    3    3    0    0  0.43673870364E+02 -0.78725763942E+02 -0.49180218001E+00  0.27795834184E+03  0.26297422891E+03 0.  0.
         25    1    4    4    0    0 -0.14702694600E+02 -0.32947391396E+02  0.17716821163E+02  0.13138909270E+03  0.12509000000E+03 0.  0.
         25    1    4    4    0    0  0.58376564964E+02 -0.45778372546E+02 -0.18208623343E+02  0.14656924914E+03  0.12509000000E+03 0.  0.
         25    1    3    3    0    0 -0.43673870364E+02  0.78725763942E+02  0.10990196631E+03  0.18929105409E+03  0.12509000000E+03 0.  0.
<mgrwt>
<rscale>  2 0.45425919E+03</rscale>
<asrwt>0</asrwt>
<pdfrwt beam="1">  1       21 0.42401439E-01 0.45425919E+03</pdfrwt>
<pdfrwt beam="2">  1       21 0.26311708E-01 0.45425919E+03</pdfrwt>
<totfact> 0.68039921E+04</totfact>
</mgrwt>
</event>
<event>
 7    0  0.4709932E-002  0.4464221E+03  0.7546771E-02  0.1028794E+00
         21   -1    0    0  502  501  0.00000000000E+00  0.00000000000E+00  0.63063363745E+02  0.63063363745E+02  0.00000000000E+00 0.  1.
         21   -1    0    0  501  502 -0.00000000000E+00 -0.00000000000E+00 -0.79004947112E+03  0.79004947112E+03  0.00000000000E+00 0.  1.
      99926    2    1    2    0    0  0.00000000000E+00  0.00000000000E+00 -0.72698610738E+03  0.85311283487E+03  0.44642211941E+03 0.  0.
      99925    2    3    3    0    0 -0.82499274736E+02 -0.64370611824E+02 -0.44885996924E+03  0.53069794251E+03  0.26308806168E+03 0.  0.
         25    1    3    3    0    0  0.82499274736E+02  0.64370611824E+02 -0.27812613814E+03  0.32241489236E+03  0.12509000000E+03 0.  0.
         25    1    4    4    0    0 -0.77988857285E+02 -0.33273687989E+02 -0.20313731571E+03  0.25318309048E+03  0.12509000000E+03 0.  0.
         25    1    4    4    0    0 -0.45104174511E+01 -0.31096923835E+02 -0.24572265353E+03  0.27751485203E+03  0.12509000000E+03 0.  0.
<mgrwt>
<rscale>  2 0.44642212E+03</rscale>
<asrwt>0</asrwt>
<pdfrwt beam="1">  1       21 0.92740246E-02 0.44642212E+03</pdfrwt>
<pdfrwt beam="2">  1       21 0.11618374E+00 0.44642212E+03</pdfrwt>
<totfact> 0.48481122E+04</totfact>
</mgrwt>
</event>
<event>
 7    0  0.4709932E-002  0.4592461E+03  0.7546771E-02  0.1025000E+00
         21   -1    0    0  502  501  0.00000000000E+00  0.00000000000E+00  0.85464104082E+03  0.85464104082E+03  0.00000000000E+00 0. -1.
         21   -1    0    0  501  502 -0.00000000000E+00 -0.00000000000E+00 -0.61694610037E+02  0.61694610037E+02  0.00000000000E+00 0. -1.
      99926    2    1    2    0    0  0.14210854715E-13  0.00000000000E+00  0.79294643079E+03  0.91633565086E+03  0.45924610280E+03 0.  0.
      99925    2    3    3    0    0 -0.11549800602E+03 -0.11878700825E+02  0.48161306703E+03  0.56129077424E+03  0.26384710342E+03 0.  0.
         25    1    4    4    0    0 -0.24143404911E+02 -0.13639168573E+02  0.16585327664E+03  0.20957993318E+03  0.12509000000E+03 0.  0.
         25    1    4    4    0    0 -0.91354601107E+02  0.17604677488E+01  0.31575979039E+03  0.35171084106E+03  0.12509000000E+03 0.  0.
         25    1    3    3    0    0  0.11549800602E+03  0.11878700825E+02  0.31133336376E+03  0.35504487662E+03  0.12509000000E+03 0.  0.
<mgrwt>
<rscale>  2 0.45924610E+03</rscale>
<asrwt>0</asrwt>
<pdfrwt beam="1">  1       21 0.12568250E+00 0.45924610E+03</pdfrwt>
<pdfrwt beam="2">  1       21 0.90727372E-02 0.45924610E+03</pdfrwt>
<totfact> 0.41150166E+04</totfact>
</mgrwt>
</event>
<event>
 7    0  0.4709932E-002  0.4598375E+03  0.7546771E-02  0.1024828E+00
         21   -1    0    0  502  501  0.00000000000E+00  0.00000000000E+00  0.27093010192E+03  0.27093010192E+03  0.00000000000E+00 0. -1.
         21   -1    0    0  501  502 -0.00000000000E+00 -0.00000000000E+00 -0.19511541304E+03  0.19511541304E+03  0.00000000000E+00 0. -1.
      99926    2    1    2    0    0 -0.14210854715E-13 -0.35527136788E-14  0.75814688881E+02  0.46604551496E+03  0.45983753105E+03 0.  0.
      99925    2    3    3    0    0  0.10864150473E+03  0.20651353608E+02  0.88285484136E+02  0.29861647390E+03  0.26296010499E+03 0.  0.
         25    1    4    4    0    0  0.97675274619E+02  0.14764533995E+02  0.54427928409E+02  0.16842908961E+03  0.12509000000E+03 0.  0.
         25    1    3    3    0    0 -0.10864150473E+03 -0.20651353608E+02 -0.12470795256E+02  0.16742904106E+03  0.12509000000E+03 0.  0.
         25    1    4    4    0    0  0.10966230112E+02  0.58868196134E+01  0.33857555727E+02  0.13018738429E+03  0.12509000000E+03 0.  0.
<mgrwt>
<rscale>  2 0.45983753E+03</rscale>
<asrwt>0</asrwt>
<pdfrwt beam="1">  1       21 0.39842662E-01 0.45983753E+03</pdfrwt>
<pdfrwt beam="2">  1       21 0.28693443E-01 0.45983753E+03</pdfrwt>
<totfact> 0.65189377E+04</totfact>
</mgrwt>
</event>
<event>
 7    0  0.4709932E-002  0.4514920E+03  0.7546771E-02  0.1027278E+00
         21   -1    0    0  502  501  0.00000000000E+00  0.00000000000E+00  0.69024696721E+03  0.69024696721E+03  0.00000000000E+00 0. -1.
         21   -1    0    0  501  502 -0.00000000000E+00 -0.00000000000E+00 -0.73830465986E+02  0.73830465986E+02  0.00000000000E+00 0. -1.
      99926    2    1    2    0    0  0.00000000000E+00  0.00000000000E+00  0.61641650123E+03  0.76407743320E+03  0.45149199432E+03 0.  0.
      99925    2    3    3    0    0 -0.64878330072E+02 -0.88224051768E+02  0.37404963737E+03  0.47016947853E+03  0.26297058067E+03 0.  0.
         25    1    3    3    0    0  0.64878330072E+02  0.88224051768E+02  0.24236686386E+03  0.29390795467E+03  0.12509000000E+03 0.  0.
         25    1    4    4    0    0 -0.38441524867E+02 -0.86683237667E+02  0.20955100959E+03  0.26182220732E+03  0.12509000000E+03 0.  0.
         25    1    4    4    0    0 -0.26436805205E+02 -0.15408141016E+01  0.16449862778E+03  0.20834727121E+03  0.12509000000E+03 0.  0.
<mgrwt>
<rscale>  2 0.45149199E+03</rscale>
<asrwt>0</asrwt>
<pdfrwt beam="1">  1       21 0.10150690E+00 0.45149199E+03</pdfrwt>
<pdfrwt beam="2">  1       21 0.10857422E-01 0.45149199E+03</pdfrwt>
<totfact> 0.50939682E+04</totfact>
</mgrwt>
</event>
<event>
 7    0  0.4709932E-002  0.4569649E+03  0.7546771E-02  0.1025665E+00
         21   -1    0    0  502  501  0.00000000000E+00  0.00000000000E+00  0.12315634475E+03  0.12315634475E+03  0.00000000000E+00 0. -1.
         21   -1    0    0  501  502 -0.00000000000E+00 -0.00000000000E+00 -0.42388578036E+03  0.42388578036E+03  0.00000000000E+00 0. -1.
      99926    2    1    2    0    0 -0.35527136788E-14  0.00000000000E+00 -0.30072943561E+03  0.54704212511E+03  0.45696487087E+03 0.  0.
      99925    2    3    3    0    0 -0.18790619722E+02 -0.54838544317E+02 -0.30793130372E+03  0.40898515015E+03  0.26284370241E+03 0.  0.
         25    1    4    4    0    0 -0.44172802712E+02 -0.26633370711E+02 -0.18767232362E+03  0.23136331189E+03  0.12509000000E+03 0.  0.
         25    1    4    4    0    0  0.25382182990E+02 -0.28205173605E+02 -0.12025898011E+03  0.17762183826E+03  0.12509000000E+03 0.  0.
         25    1    3    3    0    0  0.18790619722E+02  0.54838544317E+02  0.72018681118E+01  0.13805697497E+03  0.12509000000E+03 0.  0.
<mgrwt>
<rscale>  2 0.45696487E+03</rscale>
<asrwt>0</asrwt>
<pdfrwt beam="1">  1       21 0.18111227E-01 0.45696487E+03</pdfrwt>
<pdfrwt beam="2">  1       21 0.62336143E-01 0.45696487E+03</pdfrwt>
<totfact> 0.61106805E+04</totfact>
</mgrwt>
</event>
<event>
 7    0  0.4709932E-002  0.4556225E+03  0.7546771E-02  0.1026059E+00
         21   -1    0    0  502  501  0.00000000000E+00  0.00000000000E+00  0.20205862012E+02  0.20205862012E+02  0.00000000000E+00 0. -1.
         21   -1    0    0  501  502 -0.00000000000E+00 -0.00000000000E+00 -0.25684604086E+04  0.25684604086E+04  0.00000000000E+00 0. -1.
      99926    2    1    2    0    0  0.00000000000E+00  0.00000000000E+00 -0.25482545466E+04  0.25886662706E+04  0.45562246037E+03 0.  0.
      99925    2    3    3    0    0 -0.31976442274E+02  0.73407438172E+02 -0.11447088895E+04  0.11772843009E+04  0.26311354692E+03 0.  0.
         25    1    4    4    0    0 -0.47156298921E+02  0.61781424313E+02 -0.56018102598E+03  0.57921580684E+03  0.12509000000E+03 0.  0.
         25    1    3    3    0    0  0.31976442274E+02 -0.73407438172E+02 -0.14035456571E+04  0.14113819697E+04  0.12509000000E+03 0.  0.
         25    1    4    4    0    0  0.15179856647E+02  0.11626013859E+02 -0.58452786356E+03  0.59806849409E+03  0.12509000000E+03 0.  0.
<mgrwt>
<rscale>  2 0.45562246E+03</rscale>
<asrwt>0</asrwt>
<pdfrwt beam="1">  1       21 0.29714499E-02 0.45562246E+03</pdfrwt>
<pdfrwt beam="2">  1       21 0.37771482E+00 0.45562246E+03</pdfrwt>
<totfact> 0.62363291E+03</totfact>
</mgrwt>
</event>
<event>
 7    0  0.4709932E-002  0.4524547E+03  0.7546771E-02  0.1026993E+00
         21   -1    0    0  502  501  0.00000000000E+00  0.00000000000E+00  0.22046440422E+03  0.22046440422E+03  0.00000000000E+00 0.  1.
         21   -1    0    0  501  502 -0.00000000000E+00 -0.00000000000E+00 -0.23214091844E+03  0.23214091844E+03  0.00000000000E+00 0.  1.
      99926    2    1    2    0    0  0.14210854715E-13 -0.71054273576E-14 -0.11676514222E+02  0.45260532265E+03  0.45245467962E+03 0.  0.
      99925    2    3    3    0    0 -0.93069815254E+02  0.51168660697E+02  0.24192647358E+02  0.28463411321E+03  0.26296591389E+03 0.  0.
         25    1    4    4    0    0 -0.85562851703E+02  0.38733036993E+02  0.12868115094E+00  0.15642498012E+03  0.12509000000E+03 0.  0.
         25    1    3    3    0    0  0.93069815254E+02 -0.51168660697E+02 -0.35869161579E+02  0.16797120944E+03  0.12509000000E+03 0.  0.
         25    1    4    4    0    0 -0.75069635511E+01  0.12435623703E+02  0.24063966207E+02  0.12820913309E+03  0.12509000000E+03 0.  0.
<mgrwt>
<rscale>  2 0.45245468E+03</rscale>
<asrwt>0</asrwt>
<pdfrwt beam="1">  1       21 0.32421236E-01 0.45245468E+03</pdfrwt>
<pdfrwt beam="2">  1       21 0.34138370E-01 0.45245468E+03</pdfrwt>
<totfact> 0.70135174E+04</totfact>
</mgrwt>
</event>
<event>
 7    0  0.4709932E-002  0.4495960E+03  0.7546771E-02  0.1027843E+00
         21   -1    0    0  502  501  0.00000000000E+00  0.00000000000E+00  0.43150702448E+02  0.43150702448E+02  0.00000000000E+00 0. -1.
         21   -1    0    0  501  502 -0.00000000000E+00 -0.00000000000E+00 -0.11711082233E+04  0.11711082233E+04  0.00000000000E+00 0. -1.
      99926    2    1    2    0    0 -0.71054273576E-14 -0.14210854715E-13 -0.11279575208E+04  0.12142589257E+04  0.44959600744E+03 0.  0.
      99925    2    3    3    0    0  0.59045241034E+02  0.86505292876E+02 -0.63614074521E+03  0.69608834081E+03  0.26247747393E+03 0.  0.
         25    1    4    4    0    0 -0.42426364324E+01  0.48100185004E+02 -0.35740503023E+03  0.38172960522E+03  0.12509000000E+03 0.  0.
         25    1    3    3    0    0 -0.59045241034E+02 -0.86505292876E+02 -0.49181677562E+03  0.51817058491E+03  0.12509000000E+03 0.  0.
         25    1    4    4    0    0  0.63287877467E+02  0.38405107872E+02 -0.27873571497E+03  0.31435873560E+03  0.12509000000E+03 0.  0.
<mgrwt>
<rscale>  2 0.44959601E+03</rscale>
<asrwt>0</asrwt>
<pdfrwt beam="1">  1       21 0.63456928E-02 0.44959601E+03</pdfrwt>
<pdfrwt beam="2">  1       21 0.17222176E+00 0.44959601E+03</pdfrwt>
<totfact> 0.33077752E+04</totfact>
</mgrwt>
</event>
<event>
 7    0  0.4709932E-002  0.4585526E+03  0.7546771E-02  0.1025202E+00
         21   -1    0    0  502  501  0.00000000000E+00  0.00000000000E+00  0.16330108841E+03  0.16330108841E+03  0.00000000000E+00 0. -1.
         21   -1    0    0  501  502 -0.00000000000E+00 -0.00000000000E+00 -0.32190617234E+03  0.32190617234E+03  0.00000000000E+00 0. -1.
      99926    2    1    2    0    0  0.71054273576E-14  0.00000000000E+00 -0.15860508393E+03  0.48520726075E+03  0.45855262864E+03 0.  0.
      99925    2    3    3    0    0  0.52180760559E+02 -0.58397166832E+02 -0.19083964319E+03  0.33414556548E+03  0.26286960389E+03 0.  0.
         25    1    4    4    0    0 -0.16277006117E+01 -0.19340960653E+02 -0.55480853021E+02  0.13821127060E+03  0.12509000000E+03 0.  0.
         25    1    4    4    0    0  0.53808461170E+02 -0.39056206179E+02 -0.13535879017E+03  0.19593429488E+03  0.12509000000E+03 0.  0.
         25    1    3    3    0    0 -0.52180760559E+02  0.58397166832E+02  0.32234559261E+02  0.15106169527E+03  0.12509000000E+03 0.  0.
<mgrwt>
<rscale>  2 0.45855263E+03</rscale>
<asrwt>0</asrwt>
<pdfrwt beam="1">  1       21 0.24014866E-01 0.45855263E+03</pdfrwt>
<pdfrwt beam="2">  1       21 0.47339143E-01 0.45855263E+03</pdfrwt>
<totfact> 0.64485135E+04</totfact>
</mgrwt>
</event>
<event>
 7    0  0.4709932E-002  0.4507355E+03  0.7546771E-02  0.1027503E+00
         21   -1    0    0  502  501  0.00000000000E+00  0.00000000000E+00  0.13343886917E+03  0.13343886917E+03  0.00000000000E+00 0. -1.
         21   -1    0    0  501  502 -0.00000000000E+00 -0.00000000000E+00 -0.38062842784E+03  0.38062842784E+03  0.00000000000E+00 0. -1.
      99926    2    1    2    0    0 -0.35527136788E-14  0.00000000000E+00 -0.24718955867E+03  0.51406729702E+03  0.45073551884E+03 0.  0.
      99925    2    3    3    0    0  0.89354176453E+01 -0.69401728843E+02 -0.25168697975E+03  0.37066514727E+03  0.26296363622E+03 0.  0.
         25    1    4    4    0    0  0.34762505830E+02 -0.74522251953E+01 -0.12563897150E+03  0.18082208585E+03  0.12509000000E+03 0.  0.
         25    1    3    3    0    0 -0.89354176453E+01  0.69401728843E+02  0.44974210816E+01  0.14340214974E+03  0.12509000000E+03 0.  0.
         25    1    4    4    0    0 -0.25827088185E+02 -0.61949503648E+02 -0.12604800825E+03  0.18984306142E+03  0.12509000000E+03 0.  0.
<mgrwt>
<rscale>  2 0.45073552E+03</rscale>
<asrwt>0</asrwt>
<pdfrwt beam="1">  1       21 0.19623363E-01 0.45073552E+03</pdfrwt>
<pdfrwt beam="2">  1       21 0.55974770E-01 0.45073552E+03</pdfrwt>
<totfact> 0.66515642E+04</totfact>
</mgrwt>
</event>
<event>
 7    0  0.4709932E-002  0.4532543E+03  0.7546771E-02  0.1026756E+00
         21   -1    0    0  502  501  0.00000000000E+00  0.00000000000E+00  0.26266726626E+04  0.26266726626E+04  0.00000000000E+00 0. -1.
         21   -1    0    0  501  502 -0.00000000000E+00 -0.00000000000E+00 -0.19553203911E+02  0.19553203911E+02  0.00000000000E+00 0. -1.
      99926    2    1    2    0    0  0.88817841970E-15  0.00000000000E+00  0.26071194587E+04  0.26462258665E+04  0.45325430469E+03 0.  0.
      99925    2    3    3    0    0  0.44549538622E+01  0.57944472998E+02  0.10887516676E+04  0.11216060235E+04  0.26313963917E+03 0.  0.
         25    1    4    4    0    0 -0.17535921639E+02  0.57309509798E+02  0.47434862435E+03  0.49421251905E+03  0.12509000000E+03 0.  0.
         25    1    3    3    0    0 -0.44549538622E+01 -0.57944472998E+02  0.15183677911E+04  0.15246198430E+04  0.12509000000E+03 0.  0.
         25    1    4    4    0    0  0.21990875501E+02  0.63496320036E+00  0.61440304328E+03  0.62739350449E+03  0.12509000000E+03 0.  0.
<mgrwt>
<rscale>  2 0.45325430E+03</rscale>
<asrwt>0</asrwt>
<pdfrwt beam="1">  1       21 0.38627515E+00 0.45325430E+03</pdfrwt>
<pdfrwt beam="2">  1       21 0.28754730E-02 0.45325430E+03</pdfrwt>
<totfact> 0.58271552E+03</totfact>
</mgrwt>
</event>
<event>
 7    0  0.4709932E-002  0.4573183E+03  0.7546771E-02  0.1025562E+00
         21   -1    0    0  502  501  0.00000000000E+00  0.00000000000E+00  0.15075095771E+03  0.15075095771E+03  0.00000000000E+00 0. -1.
         21   -1    0    0  501  502 -0.00000000000E+00 -0.00000000000E+00 -0.34683033906E+03  0.34683033906E+03  0.00000000000E+00 0. -1.
      99926    2    1    2    0    0 -0.71054273576E-14  0.14210854715E-13 -0.19607938135E+03  0.49758129676E+03  0.45731829517E+03 0.  0.
      99925    2    3    3    0    0  0.36333792701E+02 -0.85722548215E+02 -0.19717723562E+03  0.34164152266E+03  0.26300488207E+03 0.  0.
         25    1    3    3    0    0 -0.36333792701E+02  0.85722548215E+02  0.10978542663E+01  0.15593977411E+03  0.12509000000E+03 0.  0.
         25    1    4    4    0    0 -0.75324912948E+01 -0.45949525548E+02 -0.58537835950E+02  0.14574732814E+03  0.12509000000E+03 0.  0.
         25    1    4    4    0    0  0.43866283996E+02 -0.39773022668E+02 -0.13863939967E+03  0.19589419451E+03  0.12509000000E+03 0.  0.
<mgrwt>
<rscale>  2 0.45731830E+03</rscale>
<asrwt>0</asrwt>
<pdfrwt beam="1">  1       21 0.22169259E-01 0.45731830E+03</pdfrwt>
<pdfrwt beam="2">  1       21 0.51004460E-01 0.45731830E+03</pdfrwt>
<totfact> 0.64250310E+04</totfact>
</mgrwt>
</event>
<event>
 7    0  0.4709932E-002  0.4506399E+03  0.7546771E-02  0.1027531E+00
         21   -1    0    0  502  501  0.00000000000E+00  0.00000000000E+00  0.14376370679E+03  0.14376370679E+03  0.00000000000E+00 0. -1.
         21   -1    0    0  501  502 -0.00000000000E+00 -0.00000000000E+00 -0.35314253966E+03  0.35314253966E+03  0.00000000000E+00 0. -1.
      99926    2    1    2    0    0  0.00000000000E+00 -0.14210854715E-13 -0.20937883287E+03  0.49690624645E+03  0.45063990292E+03 0.  0.
      99925    2    3    3    0    0  0.32323144904E+02 -0.10026361741E+03 -0.98899374295E+02  0.29954668235E+03  0.26239197777E+03 0.  0.
         25    1    4    4    0    0 -0.10175345896E+02 -0.65424892366E+02 -0.77161184594E+02  0.16119959899E+03  0.12509000000E+03 0.  0.
         25    1    3    3    0    0 -0.32323144904E+02  0.10026361741E+03 -0.11047945858E+03  0.19735956410E+03  0.12509000000E+03 0.  0.
         25    1    4    4    0    0  0.42498490800E+02 -0.34838725046E+02 -0.21738189700E+02  0.13834708336E+03  0.12509000000E+03 0.  0.
<mgrwt>
<rscale>  2 0.45063990E+03</rscale>
<asrwt>0</asrwt>
<pdfrwt beam="1">  1       21 0.21141722E-01 0.45063990E+03</pdfrwt>
<pdfrwt beam="2">  1       21 0.51932725E-01 0.45063990E+03</pdfrwt>
<totfact> 0.67805143E+04</totfact>
</mgrwt>
</event>
<event>
 7    0  0.4709932E-002  0.4562004E+03  0.7546771E-02  0.1025889E+00
         21   -1    0    0  502  501  0.00000000000E+00  0.00000000000E+00  0.30061456539E+03  0.30061456539E+03  0.00000000000E+00 0. -1.
         21   -1    0    0  501  502 -0.00000000000E+00 -0.00000000000E+00 -0.17307777531E+03  0.17307777531E+03  0.00000000000E+00 0. -1.
      99926    2    1    2    0    0  0.00000000000E+00 -0.35527136788E-14  0.12753679009E+03  0.47369234070E+03  0.45620039545E+03 0.  0.
      99925    2    3    3    0    0 -0.85344124491E+02 -0.29558043375E+02  0.15298936491E+03  0.31731894405E+03  0.26292255317E+03 0.  0.
         25    1    4    4    0    0 -0.34943231425E+01 -0.81025341983E+01  0.52658648782E+02  0.13600846572E+03  0.12509000000E+03 0.  0.
         25    1    3    3    0    0  0.85344124491E+02  0.29558043375E+02 -0.25452574829E+02  0.15637339665E+03  0.12509000000E+03 0.  0.
         25    1    4    4    0    0 -0.81849801349E+02 -0.21455509176E+02  0.10033071613E+03  0.18131047834E+03  0.12509000000E+03 0.  0.
<mgrwt>
<rscale>  2 0.45620040E+03</rscale>
<asrwt>0</asrwt>
<pdfrwt beam="1">  1       21 0.44208025E-01 0.45620040E+03</pdfrwt>
<pdfrwt beam="2">  1       21 0.25452614E-01 0.45620040E+03</pdfrwt>
<totfact> 0.66526307E+04</totfact>
</mgrwt>
</event>
<event>
 7    0  0.4709932E-002  0.4427783E+03  0.7546771E-02  0.1029898E+00
         21   -1    0    0  502  501  0.00000000000E+00  0.00000000000E+00  0.45898612629E+03  0.45898612629E+03  0.00000000000E+00 0.  1.
         21   -1    0    0  501  502 -0.00000000000E+00 -0.00000000000E+00 -0.10678569440E+03  0.10678569440E+03  0.00000000000E+00 0.  1.
      99926    2    1    2    0    0  0.00000000000E+00  0.14210854715E-13  0.35220043189E+03  0.56577182069E+03  0.44277828409E+03 0.  0.
      99925    2    3    3    0    0  0.10626404933E+02  0.95885676973E+02  0.18485616114E+03  0.33564447207E+03  0.26301792294E+03 0.  0.
         25    1    3    3    0    0 -0.10626404933E+02 -0.95885676973E+02  0.16734427074E+03  0.23012734862E+03  0.12509000000E+03 0.  0.
         25    1    4    4    0    0 -0.80762912189E+00  0.11351817075E+02  0.59068035356E+02  0.13880222230E+03  0.12509000000E+03 0.  0.
         25    1    4    4    0    0  0.11434034055E+02  0.84533859898E+02  0.12578812579E+03  0.19684224977E+03  0.12509000000E+03 0.  0.
<mgrwt>
<rscale>  2 0.44277828E+03</rscale>
<asrwt>0</asrwt>
<pdfrwt beam="1">  1       21 0.67497959E-01 0.44277828E+03</pdfrwt>
<pdfrwt beam="2">  1       21 0.15703779E-01 0.44277828E+03</pdfrwt>
<totfact> 0.67089360E+04</totfact>
</mgrwt>
</event>
<event>
 7    0  0.4709932E-002  0.4499973E+03  0.7546771E-02  0.1027723E+00
         21   -1    0    0  502  501  0.00000000000E+00  0.00000000000E+00  0.10658446921E+03  0.10658446921E+03  0.00000000000E+00 0. -1.
         21   -1    0    0  501  502 -0.00000000000E+00 -0.00000000000E+00 -0.47496964593E+03  0.47496964593E+03  0.00000000000E+00 0. -1.
      99926    2    1    2    0    0  0.00000000000E+00  0.00000000000E+00 -0.36838517672E+03  0.58155411514E+03  0.44999727822E+03 0.  0.
      99925    2    3    3    0    0  0.38591109812E+02  0.50257571111E+02 -0.34644679033E+03  0.43962491410E+03  0.26311516368E+03 0.  0.
         25    1    4    4    0    0  0.13829706962E+02  0.51851340053E+02 -0.22820670258E+03  0.26571719828E+03  0.12509000000E+03 0.  0.
         25    1    4    4    0    0  0.24761402850E+02 -0.15937689421E+01 -0.11824008775E+03  0.17390771582E+03  0.12509000000E+03 0.  0.
         25    1    3    3    0    0 -0.38591109812E+02 -0.50257571111E+02 -0.21938386399E+02  0.14192920104E+03  0.12509000000E+03 0.  0.
<mgrwt>
<rscale>  2 0.44999728E+03</rscale>
<asrwt>0</asrwt>
<pdfrwt beam="1">  1       21 0.15674187E-01 0.44999728E+03</pdfrwt>
<pdfrwt beam="2">  1       21 0.69848478E-01 0.44999728E+03</pdfrwt>
<totfact> 0.62253984E+04</totfact>
</mgrwt>
</event>
<event>
 7    0  0.4709932E-002  0.4595029E+03  0.7546771E-02  0.1024925E+00
         21   -1    0    0  502  501  0.00000000000E+00  0.00000000000E+00  0.46289507685E+03  0.46289507685E+03  0.00000000000E+00 0. -1.
         21   -1    0    0  501  502 -0.00000000000E+00 -0.00000000000E+00 -0.11403388599E+03  0.11403388599E+03  0.00000000000E+00 0. -1.
      99926    2    1    2    0    0  0.00000000000E+00  0.35527136788E-14  0.34886119086E+03  0.57692896284E+03  0.45950288103E+03 0.  0.
      99925    2    3    3    0    0 -0.10295916506E+03 -0.23529889649E+02  0.28284570750E+03  0.40040758306E+03  0.26300245806E+03 0.  0.
         25    1    4    4    0    0 -0.61861290375E+02  0.62753452202E+01  0.94405943678E+02  0.16860068062E+03  0.12509000000E+03 0.  0.
         25    1    4    4    0    0 -0.41097874684E+02 -0.29805234869E+02  0.18843976382E+03  0.23180690244E+03  0.12509000000E+03 0.  0.
         25    1    3    3    0    0  0.10295916506E+03  0.23529889649E+02  0.66015483366E+02  0.17652137978E+03  0.12509000000E+03 0.  0.
<mgrwt>
<rscale>  2 0.45950288E+03</rscale>
<asrwt>0</asrwt>
<pdfrwt beam="1">  1       21 0.68072805E-01 0.45950288E+03</pdfrwt>
<pdfrwt beam="2">  1       21 0.16769689E-01 0.45950288E+03</pdfrwt>
<totfact> 0.58027652E+04</totfact>
</mgrwt>
</event>
<event>
 7    0  0.4709932E-002  0.4554507E+03  0.7546771E-02  0.1026109E+00
         21   -1    0    0  502  501  0.00000000000E+00  0.00000000000E+00  0.42441652534E+03  0.42441652534E+03  0.00000000000E+00 0. -1.
         21   -1    0    0  501  502 -0.00000000000E+00 -0.00000000000E+00 -0.12218855151E+03  0.12218855151E+03  0.00000000000E+00 0. -1.
      99926    2    1    2    0    0  0.35527136788E-14 -0.88817841970E-15  0.30222797383E+03  0.54660507685E+03  0.45545072387E+03 0.  0.
      99925    2    3    3    0    0  0.22087742031E+02  0.63926035414E+01  0.56558679172E+02  0.26996515897E+03  0.26297066213E+03 0.  0.
         25    1    4    4    0    0  0.41090456528E+02 -0.64746471115E+01  0.54836698853E+02  0.14277576235E+03  0.12509000000E+03 0.  0.
         25    1    4    4    0    0 -0.19002714496E+02  0.12867250653E+02  0.17219803193E+01  0.12718939662E+03  0.12509000000E+03 0.  0.
         25    1    3    3    0    0 -0.22087742031E+02 -0.63926035414E+01  0.24566929466E+03  0.27663991788E+03  0.12509000000E+03 0.  0.
<mgrwt>
<rscale>  2 0.45545072E+03</rscale>
<asrwt>0</asrwt>
<pdfrwt beam="1">  1       21 0.62414194E-01 0.45545072E+03</pdfrwt>
<pdfrwt beam="2">  1       21 0.17968905E-01 0.45545072E+03</pdfrwt>
<totfact> 0.61870461E+04</totfact>
</mgrwt>
</event>
<event>
 7    0  0.4709932E-002  0.4532290E+03  0.7546771E-02  0.1026763E+00
         21   -1    0    0  502  501  0.00000000000E+00  0.00000000000E+00  0.23068944932E+03  0.23068944932E+03  0.00000000000E+00 0. -1.
         21   -1    0    0  501  502 -0.00000000000E+00 -0.00000000000E+00 -0.22261151049E+03  0.22261151049E+03  0.00000000000E+00 0. -1.
      99926    2    1    2    0    0  0.14210854715E-13  0.00000000000E+00  0.80779388319E+01  0.45330095981E+03  0.45322897863E+03 0.  0.
      99925    2    3    3    0    0 -0.63855004276E+02  0.36146733824E+02  0.88881781170E+02  0.28728645149E+03  0.26315297119E+03 0.  0.
         25    1    4    4    0    0  0.72309205796E+01  0.26281792576E+01  0.36301292069E+02  0.13047791171E+03  0.12509000000E+03 0.  0.
         25    1    4    4    0    0 -0.71085924855E+02  0.33518554567E+02  0.52580489101E+02  0.15680853978E+03  0.12509000000E+03 0.  0.
         25    1    3    3    0    0  0.63855004276E+02 -0.36146733824E+02 -0.80803842338E+02  0.16601450832E+03  0.12509000000E+03 0.  0.
<mgrwt>
<rscale>  2 0.45322898E+03</rscale>
<asrwt>0</asrwt>
<pdfrwt beam="1">  1       21 0.33924919E-01 0.45322898E+03</pdfrwt>
<pdfrwt beam="2">  1       21 0.32736987E-01 0.45322898E+03</pdfrwt>
<totfact> 0.69649462E+04</totfact>
</mgrwt>
</event>
<event>
 7    0  0.4709932E-002  0.4704500E+03  0.7546771E-02  0.1021793E+00
         21   -1    0    0  502  501  0.00000000000E+00  0.00000000000E+00  0.66067666345E+02  0.66067666345E+02  0.00000000000E+00 0. -1.
         21   -1    0    0  501  502 -0.00000000000E+00 -0.00000000000E+00 -0.83748689324E+03  0.83748689324E+03  0.00000000000E+00 0. -1.
      99926    2    1    2    0    0 -0.14210854715E-13  0.14210854715E-13 -0.77141922689E+03  0.90355455959E+03  0.47045001703E+03 0.  0.
      99925    2    3    3    0    0 -0.10061526121E+03  0.71507147067E+02 -0.42047997263E+03  0.51107198526E+03  0.26297236330E+03 0.  0.
         25    1    3    3    0    0  0.10061526121E+03 -0.71507147067E+02 -0.35093925426E+03  0.39248257433E+03  0.12509000000E+03 0.  0.
         25    1    4    4    0    0 -0.60218942934E+02  0.13281620163E+02 -0.26399958077E+03  0.29857328961E+03  0.12509000000E+03 0.  0.
         25    1    4    4    0    0 -0.40396318278E+02  0.58225526905E+02 -0.15648039187E+03  0.21249869565E+03  0.12509000000E+03 0.  0.
<mgrwt>
<rscale>  2 0.47045002E+03</rscale>
<asrwt>0</asrwt>
<pdfrwt beam="1">  1       21 0.97158327E-02 0.47045002E+03</pdfrwt>
<pdfrwt beam="2">  1       21 0.12315984E+00 0.47045002E+03</pdfrwt>
<totfact> 0.38240551E+04</totfact>
</mgrwt>
</event>
<event>
 7    0  0.4709932E-002  0.4537230E+03  0.7546771E-02  0.1026618E+00
         21   -1    0    0  502  501  0.00000000000E+00  0.00000000000E+00  0.12311168019E+03  0.12311168019E+03  0.00000000000E+00 0.  1.
         21   -1    0    0  501  502 -0.00000000000E+00 -0.00000000000E+00 -0.41804437857E+03  0.41804437857E+03  0.00000000000E+00 0.  1.
      99926    2    1    2    0    0  0.00000000000E+00  0.35527136788E-14 -0.29493269839E+03  0.54115605876E+03  0.45372302493E+03 0.  0.
      99925    2    3    3    0    0 -0.88860416596E+02 -0.20911891583E+02 -0.26321541887E+03  0.38308337052E+03  0.26293921577E+03 0.  0.
         25    1    3    3    0    0  0.88860416596E+02  0.20911891583E+02 -0.31717279517E+02  0.15807268824E+03  0.12509000000E+03 0.  0.
         25    1    4    4    0    0 -0.75354344148E+02  0.10157661539E+02 -0.11467428069E+03  0.18595470960E+03  0.12509000000E+03 0.  0.
         25    1    4    4    0    0 -0.13506072449E+02 -0.31069553122E+02 -0.14854113818E+03  0.19712866092E+03  0.12509000000E+03 0.  0.
<mgrwt>
<rscale>  2 0.45372302E+03</rscale>
<asrwt>0</asrwt>
<pdfrwt beam="1">  1       21 0.18104659E-01 0.45372302E+03</pdfrwt>
<pdfrwt beam="2">  1       21 0.61477115E-01 0.45372302E+03</pdfrwt>
<totfact> 0.63089882E+04</totfact>
</mgrwt>
</event>
<event>
 7    0  0.4709932E-002  0.4514652E+03  0.7546771E-02  0.1027286E+00
         21   -1    0    0  502  501  0.00000000000E+00  0.00000000000E+00  0.33502083585E+02  0.33502083585E+02  0.00000000000E+00 0.  1.
         21   -1    0    0  501  502 -0.00000000000E+00 -0.00000000000E+00 -0.15209564133E+04  0.15209564133E+04  0.00000000000E+00 0.  1.
      99926    2    1    2    0    0  0.00000000000E+00  0.00000000000E+00 -0.14874543297E+04  0.15544584969E+04  0.45146520968E+03 0.  0.
      99925    2    3    3    0    0  0.55744831064E+02  0.94430866670E+02 -0.92014202833E+03  0.96326019667E+03  0.26302885664E+03 0.  0.
         25    1    4    4    0    0  0.40439938176E+02  0.58428439503E+02 -0.35339636158E+03  0.38155703062E+03  0.12509000000E+03 0.  0.
         25    1    4    4    0    0  0.15304892888E+02  0.36002427167E+02 -0.56674566675E+03  0.58170316604E+03  0.12509000000E+03 0.  0.
         25    1    3    3    0    0 -0.55744831064E+02 -0.94430866670E+02 -0.56731230138E+03  0.59119830021E+03  0.12509000000E+03 0.  0.
<mgrwt>
<rscale>  2 0.45146521E+03</rscale>
<asrwt>0</asrwt>
<pdfrwt beam="1">  1       21 0.49267766E-02 0.45146521E+03</pdfrwt>
<pdfrwt beam="2">  1       21 0.22367008E+00 0.45146521E+03</pdfrwt>
<totfact> 0.23103223E+04</totfact>
</mgrwt>
</event>
<event>
 7    0  0.4709932E-002  0.4443977E+03  0.7546771E-02  0.1029406E+00
         21   -1    0    0  502  501  0.00000000000E+00  0.00000000000E+00  0.60055591443E+03  0.60055591443E+03  0.00000000000E+00 0.  1.
         21   -1    0    0  501  502 -0.00000000000E+00 -0.00000000000E+00 -0.82211056511E+02  0.82211056511E+02  0.00000000000E+00 0.  1.
      99926    2    1    2    0    0  0.00000000000E+00  0.55511151231E-16  0.51834485792E+03  0.68276697094E+03  0.44439773275E+03 0.  0.
      99925    2    3    3    0    0 -0.58611602941E+02 -0.26714564472E+00  0.19890012416E+03  0.33473272350E+03  0.26277242135E+03 0.  0.
         25    1    4    4    0    0 -0.49816101959E+02  0.12808615671E+02  0.62519475874E+02  0.14900301210E+03  0.12509000000E+03 0.  0.
         25    1    4    4    0    0 -0.87955009817E+01 -0.13075761316E+02  0.13638064829E+03  0.18572971141E+03  0.12509000000E+03 0.  0.
         25    1    3    3    0    0  0.58611602941E+02  0.26714564472E+00  0.31944473376E+03  0.34803424744E+03  0.12509000000E+03 0.  0.
<mgrwt>
<rscale>  2 0.44439773E+03</rscale>
<asrwt>0</asrwt>
<pdfrwt beam="1">  1       21 0.88317044E-01 0.44439773E+03</pdfrwt>
<pdfrwt beam="2">  1       21 0.12089862E-01 0.44439773E+03</pdfrwt>
<totfact> 0.58588579E+04</totfact>
</mgrwt>
</event>
<event>
 7    0  0.4709932E-002  0.4587156E+03  0.7546771E-02  0.1025154E+00
         21   -1    0    0  502  501  0.00000000000E+00  0.00000000000E+00  0.44840457505E+02  0.44840457505E+02  0.00000000000E+00 0.  1.
         21   -1    0    0  501  502 -0.00000000000E+00 -0.00000000000E+00 -0.11731592322E+04  0.11731592322E+04  0.00000000000E+00 0.  1.
      99926    2    1    2    0    0  0.71054273576E-14  0.14210854715E-13 -0.11283187747E+04  0.12179996897E+04  0.45871558377E+03 0.  0.
      99925    2    3    3    0    0 -0.57067166450E+02 -0.86355087075E+02 -0.85411078836E+03  0.89932840073E+03  0.26186345870E+03 0.  0.
         25    1    4    4    0    0 -0.46754763751E+02 -0.68559140361E+02 -0.54336524743E+03  0.56371949042E+03  0.12509000000E+03 0.  0.
         25    1    4    4    0    0 -0.10312402699E+02 -0.17795946714E+02 -0.31074554093E+03  0.33560891031E+03  0.12509000000E+03 0.  0.
         25    1    3    3    0    0  0.57067166450E+02  0.86355087075E+02 -0.27420798631E+03  0.31867128896E+03  0.12509000000E+03 0.  0.
<mgrwt>
<rscale>  2 0.45871558E+03</rscale>
<asrwt>0</asrwt>
<pdfrwt beam="1">  1       21 0.65941840E-02 0.45871558E+03</pdfrwt>
<pdfrwt beam="2">  1       21 0.17252344E+00 0.45871558E+03</pdfrwt>
<totfact> 0.30692703E+04</totfact>
</mgrwt>
</event>
<event>
 7    0  0.4709932E-002  0.4532203E+03  0.7546771E-02  0.1026766E+00
         21   -1    0    0  502  501  0.00000000000E+00  0.00000000000E+00  0.14546063511E+03  0.14546063511E+03  0.00000000000E+00 0. -1.
         21   -1    0    0  501  502 -0.00000000000E+00 -0.00000000000E+00 -0.35303124862E+03  0.35303124862E+03  0.00000000000E+00 0. -1.
      99926    2    1    2    0    0  0.00000000000E+00  0.00000000000E+00 -0.20757061351E+03  0.49849188373E+03  0.45322025391E+03 0.  0.
      99925    2    3    3    0    0  0.85749826758E+02 -0.65981607477E+02 -0.10014452659E+03  0.30127505492E+03  0.26273775366E+03 0.  0.
         25    1    4    4    0    0  0.58498999629E+02 -0.50556630903E+02 -0.17451696629E+02  0.14808840502E+03  0.12509000000E+03 0.  0.
         25    1    4    4    0    0  0.27250827128E+02 -0.15424976574E+02 -0.82692829958E+02  0.15318664990E+03  0.12509000000E+03 0.  0.
         25    1    3    3    0    0 -0.85749826758E+02  0.65981607477E+02 -0.10742608692E+03  0.19721682881E+03  0.12509000000E+03 0.  0.
<mgrwt>
<rscale>  2 0.45322025E+03</rscale>
<asrwt>0</asrwt>
<pdfrwt beam="1">  1       21 0.21391270E-01 0.45322025E+03</pdfrwt>
<pdfrwt beam="2">  1       21 0.51916359E-01 0.45322025E+03</pdfrwt>
<totfact> 0.66308596E+04</totfact>
</mgrwt>
</event>
<event>
 7    0  0.4709932E-002  0.4503370E+03  0.7546771E-02  0.1027622E+00
         21   -1    0    0  502  501  0.00000000000E+00  0.00000000000E+00  0.51659098864E+03  0.51659098864E+03  0.00000000000E+00 0.  1.
         21   -1    0    0  501  502 -0.00000000000E+00 -0.00000000000E+00 -0.98145048580E+02  0.98145048580E+02  0.00000000000E+00 0.  1.
      99926    2    1    2    0    0 -0.17763568394E-14  0.14210854715E-13  0.41844594006E+03  0.61473603722E+03  0.45033697461E+03 0.  0.
      99925    2    3    3    0    0 -0.95502158740E+01  0.63680431997E+02  0.14484948919E+03  0.30708537482E+03  0.26300883801E+03 0.  0.
         25    1    4    4    0    0  0.15251891234E+02  0.67970994011E+02  0.76258781075E+02  0.16222079399E+03  0.12509000000E+03 0.  0.
         25    1    4    4    0    0 -0.24802107108E+02 -0.42905620146E+01  0.68590708111E+02  0.14486458083E+03  0.12509000000E+03 0.  0.
         25    1    3    3    0    0  0.95502158740E+01 -0.63680431997E+02  0.27359645088E+03  0.30765066240E+03  0.12509000000E+03 0.  0.
<mgrwt>
<rscale>  2 0.45033697E+03</rscale>
<asrwt>0</asrwt>
<pdfrwt beam="1">  1       21 0.75969262E-01 0.45033697E+03</pdfrwt>
<pdfrwt beam="2">  1       21 0.14433096E-01 0.45033697E+03</pdfrwt>
<totfact> 0.59958004E+04</totfact>
</mgrwt>
</event>
<event>
 7    0  0.4709932E-002  0.4549063E+03  0.7546771E-02  0.1026269E+00
         21   -1    0    0  502  501  0.00000000000E+00  0.00000000000E+00  0.50420281885E+02  0.50420281885E+02  0.00000000000E+00 0. -1.
         21   -1    0    0  501  502 -0.00000000000E+00 -0.00000000000E+00 -0.10260739869E+04  0.10260739869E+04  0.00000000000E+00 0. -1.
      99926    2    1    2    0    0  0.44408920985E-15  0.00000000000E+00 -0.97565370502E+03  0.10764942688E+04  0.45490631851E+03 0.  0.
      99925    2    3    3    0    0 -0.21959285881E+01 -0.92965503767E+02 -0.76631314048E+03  0.81549927448E+03  0.26297496157E+03 0.  0.
         25    1    4    4    0    0  0.10021333874E+02 -0.53415974313E+02 -0.27699178156E+03  0.30874851999E+03  0.12509000000E+03 0.  0.
         25    1    4    4    0    0 -0.12217262462E+02 -0.39549529455E+02 -0.48932135892E+03  0.50675075449E+03  0.12509000000E+03 0.  0.
         25    1    3    3    0    0  0.21959285881E+01  0.92965503767E+02 -0.20934056455E+03  0.26099499432E+03  0.12509000000E+03 0.  0.
<mgrwt>
<rscale>  2 0.45490632E+03</rscale>
<asrwt>0</asrwt>
<pdfrwt beam="1">  1       21 0.74147478E-02 0.45490632E+03</pdfrwt>
<pdfrwt beam="2">  1       21 0.15089322E+00 0.45490632E+03</pdfrwt>
<totfact> 0.36346568E+04</totfact>
</mgrwt>
</event>
<event>
 7    0  0.4709932E-002  0.4575985E+03  0.7546771E-02  0.1025480E+00
         21   -1    0    0  502  501  0.00000000000E+00  0.00000000000E+00  0.15671695508E+03  0.15671695508E+03  0.00000000000E+00 0.  1.
         21   -1    0    0  501  502 -0.00000000000E+00 -0.00000000000E+00 -0.33403599692E+03  0.33403599692E+03  0.00000000000E+00 0.  1.
      99926    2    1    2    0    0  0.00000000000E+00  0.00000000000E+00 -0.17731904184E+03  0.49075295200E+03  0.45759853288E+03 0.  0.
      99925    2    3    3    0    0 -0.20020075566E+02  0.63889466285E+01 -0.23309702681E+03  0.35218775517E+03  0.26317364784E+03 0.  0.
         25    1    4    4    0    0 -0.24859026678E+02  0.15438796639E+02 -0.16588690668E+03  0.20981492215E+03  0.12509000000E+03 0.  0.
         25    1    4    4    0    0  0.48389511129E+01 -0.90498500102E+01 -0.67210120135E+02  0.14237283302E+03  0.12509000000E+03 0.  0.
         25    1    3    3    0    0  0.20020075566E+02 -0.63889466285E+01  0.55777984970E+02  0.13856519683E+03  0.12509000000E+03 0.  0.
<mgrwt>
<rscale>  2 0.45759853E+03</rscale>
<asrwt>0</asrwt>
<pdfrwt beam="1">  1       21 0.23046611E-01 0.45759853E+03</pdfrwt>
<pdfrwt beam="2">  1       21 0.49122941E-01 0.45759853E+03</pdfrwt>
<totfact> 0.64582716E+04</totfact>
</mgrwt>
</event>
<event>
 7    0  0.4709932E-002  0.4512168E+03  0.7546771E-02  0.1027360E+00
         21   -1    0    0  502  501  0.00000000000E+00  0.00000000000E+00  0.41048557413E+03  0.41048557413E+03  0.00000000000E+00 0. -1.
         21   -1    0    0  501  502 -0.00000000000E+00 -0.00000000000E+00 -0.12399738865E+03  0.12399738865E+03  0.00000000000E+00 0. -1.
      99926    2    1    2    0    0 -0.14210854715E-13  0.17763568394E-14  0.28648818548E+03  0.53448296279E+03  0.45121675178E+03 0.  0.
      99925    2    3    3    0    0 -0.10495558756E+03  0.13881007954E+02  0.14866663010E+03  0.32035532102E+03  0.26328199152E+03 0.  0.
         25    1    4    4    0    0 -0.24879747820E+02  0.17901900923E+02  0.10301312587E+03  0.16492025985E+03  0.12509000000E+03 0.  0.
         25    1    4    4    0    0 -0.80075839741E+02 -0.40208929690E+01  0.45653504225E+02  0.15543506116E+03  0.12509000000E+03 0.  0.
         25    1    3    3    0    0  0.10495558756E+03 -0.13881007954E+02  0.13782155538E+03  0.21412764177E+03  0.12509000000E+03 0.  0.
<mgrwt>
<rscale>  2 0.45121675E+03</rscale>
<asrwt>0</asrwt>
<pdfrwt beam="1">  1       21 0.60365525E-01 0.45121675E+03</pdfrwt>
<pdfrwt beam="2">  1       21 0.18234910E-01 0.45121675E+03</pdfrwt>
<totfact> 0.64823068E+04</totfact>
</mgrwt>
</event>
<event>
 7    0  0.4709932E-002  0.4545158E+03  0.7546771E-02  0.1026384E+00
         21   -1    0    0  502  501  0.00000000000E+00  0.00000000000E+00  0.67191176293E+02  0.67191176293E+02  0.00000000000E+00 0. -1.
         21   -1    0    0  501  502 -0.00000000000E+00 -0.00000000000E+00 -0.76864498428E+03  0.76864498428E+03  0.00000000000E+00 0. -1.
      99926    2    1    2    0    0  0.71054273576E-14  0.71054273576E-14 -0.70145380799E+03  0.83583616057E+03  0.45451583315E+03 0.  0.
      99925    2    3    3    0    0 -0.55821284253E+02  0.51623801636E+02 -0.28848637863E+03  0.39769161995E+03  0.26296996264E+03 0.  0.
         25    1    4    4    0    0 -0.55613103964E+01 -0.95696071418E+01 -0.12667760542E+03  0.17837384721E+03  0.12509000000E+03 0.  0.
         25    1    4    4    0    0 -0.50259973857E+02  0.61193408778E+02 -0.16180877321E+03  0.21931777274E+03  0.12509000000E+03 0.  0.
         25    1    3    3    0    0  0.55821284253E+02 -0.51623801636E+02 -0.41296742935E+03  0.43814454062E+03  0.12509000000E+03 0.  0.
<mgrwt>
<rscale>  2 0.45451583E+03</rscale>
<asrwt>0</asrwt>
<pdfrwt beam="1">  1       21 0.98810548E-02 0.45451583E+03</pdfrwt>
<pdfrwt beam="2">  1       21 0.11303603E+00 0.45451583E+03</pdfrwt>
<totfact> 0.46255229E+04</totfact>
</mgrwt>
</event>
<event>
 7    0  0.4709932E-002  0.4534869E+03  0.7546771E-02  0.1026687E+00
         21   -1    0    0  502  501  0.00000000000E+00  0.00000000000E+00  0.26159172055E+03  0.26159172055E+03  0.00000000000E+00 0.  1.
         21   -1    0    0  501  502 -0.00000000000E+00 -0.00000000000E+00 -0.19653756674E+03  0.19653756674E+03  0.00000000000E+00 0.  1.
      99926    2    1    2    0    0  0.14210854715E-13  0.00000000000E+00  0.65054153815E+02  0.45812928729E+03  0.45348693580E+03 0.  0.
      99925    2    3    3    0    0  0.87104200295E+02  0.50599499651E+02  0.89774778057E+02  0.29562984595E+03  0.26304000450E+03 0.  0.
         25    1    4    4    0    0  0.21684290183E+02  0.52417648519E+02  0.22268920199E+02  0.13914464138E+03  0.12509000000E+03 0.  0.
         25    1    4    4    0    0  0.65419910112E+02 -0.18181488681E+01  0.67505857858E+02  0.15648520457E+03  0.12509000000E+03 0.  0.
         25    1    3    3    0    0 -0.87104200295E+02 -0.50599499651E+02 -0.24720624242E+02  0.16249944134E+03  0.12509000000E+03 0.  0.
<mgrwt>
<rscale>  2 0.45348694E+03</rscale>
<asrwt>0</asrwt>
<pdfrwt beam="1">  1       21 0.38469371E-01 0.45348694E+03</pdfrwt>
<pdfrwt beam="2">  1       21 0.28902583E-01 0.45348694E+03</pdfrwt>
<totfact> 0.69147718E+04</totfact>
</mgrwt>
</event>
<event>
 7    0  0.4709932E-002  0.4567837E+03  0.7546771E-02  0.1025718E+00
         21   -1    0    0  502  501  0.00000000000E+00  0.00000000000E+00  0.98749936903E+02  0.98749936903E+02  0.00000000000E+00 0.  1.
         21   -1    0    0  501  502 -0.00000000000E+00 -0.00000000000E+00 -0.52823158073E+03  0.52823158073E+03  0.00000000000E+00 0.  1.
      99926    2    1    2    0    0  0.00000000000E+00  0.00000000000E+00 -0.42948164383E+03  0.62698151763E+03  0.45678369177E+03 0.  0.
      99925    2    3    3    0    0 -0.24616170236E+02  0.10784461446E+03 -0.31306886040E+03  0.42342351374E+03  0.26275262877E+03 0.  0.
         25    1    4    4    0    0 -0.10431154216E+02  0.30467475440E+02 -0.19676480192E+03  0.23537410948E+03  0.12509000000E+03 0.  0.
         25    1    4    4    0    0 -0.14185016021E+02  0.77377139021E+02 -0.11630405848E+03  0.18804940426E+03  0.12509000000E+03 0.  0.
         25    1    3    3    0    0  0.24616170236E+02 -0.10784461446E+03 -0.11641278343E+03  0.20355800390E+03  0.12509000000E+03 0.  0.
<mgrwt>
<rscale>  2 0.45678369E+03</rscale>
<asrwt>0</asrwt>
<pdfrwt beam="1">  1       21 0.14522050E-01 0.45678369E+03</pdfrwt>
<pdfrwt beam="2">  1       21 0.77681114E-01 0.45678369E+03</pdfrwt>
<totfact> 0.56251147E+04</totfact>
</mgrwt>
</event>
<event>
 7    0  0.4709932E-002  0.4509160E+03  0.7546771E-02  0.1027449E+00
         21   -1    0    0  502  501  0.00000000000E+00  0.00000000000E+00  0.10245812113E+03  0.10245812113E+03  0.00000000000E+00 0.  1.
         21   -1    0    0  501  502 -0.00000000000E+00 -0.00000000000E+00 -0.49611795140E+03  0.49611795140E+03  0.00000000000E+00 0.  1.
      99926    2    1    2    0    0 -0.22204460493E-15  0.71054273576E-14 -0.39365983027E+03  0.59857607253E+03  0.45091601507E+03 0.  0.
      99925    2    3    3    0    0  0.90022857401E+00  0.56380498484E+02 -0.37301331655E+03  0.45981960368E+03  0.26289838833E+03 0.  0.
         25    1    3    3    0    0 -0.90022857401E+00 -0.56380498484E+02 -0.20646513722E+02  0.13875646886E+03  0.12509000000E+03 0.  0.
         25    1    4    4    0    0  0.13477227044E+02  0.44211220530E+02 -0.25087683468E+03  0.28411786630E+03  0.12509000000E+03 0.  0.
         25    1    4    4    0    0 -0.12576998470E+02  0.12169277954E+02 -0.12213648186E+03  0.17570173738E+03  0.12509000000E+03 0.  0.
<mgrwt>
<rscale>  2 0.45091602E+03</rscale>
<asrwt>0</asrwt>
<pdfrwt beam="1">  1       21 0.15067371E-01 0.45091602E+03</pdfrwt>
<pdfrwt beam="2">  1       21 0.72958521E-01 0.45091602E+03</pdfrwt>
<totfact> 0.60701200E+04</totfact>
</mgrwt>
</event>
<event>
 7    0  0.4709932E-002  0.4548979E+03  0.7546771E-02  0.1026271E+00
         21   -1    0    0  502  501  0.00000000000E+00  0.00000000000E+00  0.16096142397E+03  0.16096142397E+03  0.00000000000E+00 0. -1.
         21   -1    0    0  501  502 -0.00000000000E+00 -0.00000000000E+00 -0.32140012663E+03  0.32140012663E+03  0.00000000000E+00 0. -1.
      99926    2    1    2    0    0  0.71054273576E-14  0.00000000000E+00 -0.16043870266E+03  0.48236155060E+03  0.45489788765E+03 0.  0.
      99925    2    3    3    0    0  0.56138912935E+02 -0.98209726081E+02 -0.10438747602E+03  0.30463711235E+03  0.26288837409E+03 0.  0.
         25    1    4    4    0    0  0.63403251370E+02 -0.53000508410E+02 -0.33014536884E+02  0.15351382323E+03  0.12509000000E+03 0.  0.
         25    1    4    4    0    0 -0.72643384343E+01 -0.45209217672E+02 -0.71372939134E+02  0.15112328912E+03  0.12509000000E+03 0.  0.
         25    1    3    3    0    0 -0.56138912935E+02  0.98209726081E+02 -0.56051226643E+02  0.17772443825E+03  0.12509000000E+03 0.  0.
<mgrwt>
<rscale>  2 0.45489789E+03</rscale>
<asrwt>0</asrwt>
<pdfrwt beam="1">  1       21 0.23670798E-01 0.45489789E+03</pdfrwt>
<pdfrwt beam="2">  1       21 0.47264724E-01 0.45489789E+03</pdfrwt>
<totfact> 0.66582549E+04</totfact>
</mgrwt>
</event>
<event>
 7    0  0.4709932E-002  0.4526475E+03  0.7546771E-02  0.1026935E+00
         21   -1    0    0  502  501  0.00000000000E+00  0.00000000000E+00  0.40568425965E+02  0.40568425965E+02  0.00000000000E+00 0. -1.
         21   -1    0    0  501  502 -0.00000000000E+00 -0.00000000000E+00 -0.12626181538E+04  0.12626181538E+04  0.00000000000E+00 0. -1.
      99926    2    1    2    0    0 -0.14210854715E-13  0.00000000000E+00 -0.12220497278E+04  0.13031865798E+04  0.45264746147E+03 0.  0.
      99925    2    3    3    0    0  0.91171382413E+02 -0.57091089939E+02 -0.84833807237E+03  0.89467767772E+03  0.26305712013E+03 0.  0.
         25    1    3    3    0    0 -0.91171382413E+02  0.57091089939E+02 -0.37371165546E+03  0.40850890204E+03  0.12509000000E+03 0.  0.
         25    1    4    4    0    0  0.40332761041E+02  0.82478993711E+01 -0.45624634273E+03  0.47487155401E+03  0.12509000000E+03 0.  0.
         25    1    4    4    0    0  0.50838621373E+02 -0.65338989310E+02 -0.39209172964E+03  0.41980612371E+03  0.12509000000E+03 0.  0.
<mgrwt>
<rscale>  2 0.45264746E+03</rscale>
<asrwt>0</asrwt>
<pdfrwt beam="1">  1       21 0.59659456E-02 0.45264746E+03</pdfrwt>
<pdfrwt beam="2">  1       21 0.18567912E+00 0.45264746E+03</pdfrwt>
<totfact> 0.29559394E+04</totfact>
</mgrwt>
</event>
<event>
 7    0  0.4709932E-002  0.4610693E+03  0.7546771E-02  0.1024472E+00
         21   -1    0    0  502  501  0.00000000000E+00  0.00000000000E+00  0.30403999059E+03  0.30403999059E+03  0.00000000000E+00 0.  1.
         21   -1    0    0  501  502 -0.00000000000E+00 -0.00000000000E+00 -0.17480009104E+03  0.17480009104E+03  0.00000000000E+00 0.  1.
      99926    2    1    2    0    0  0.00000000000E+00  0.00000000000E+00  0.12923989956E+03  0.47884008163E+03  0.46106927044E+03 0.  0.
      99925    2    3    3    0    0  0.84089580076E+02 -0.22156677870E+02 -0.32260343449E+01  0.27695717598E+03  0.26293134879E+03 0.  0.
         25    1    4    4    0    0  0.43694105051E+02  0.24560750811E+02  0.17608777107E+02  0.13590431350E+03  0.12509000000E+03 0.  0.
         25    1    4    4    0    0  0.40395475026E+02 -0.46717428681E+02 -0.20834811451E+02  0.14105286248E+03  0.12509000000E+03 0.  0.
         25    1    3    3    0    0 -0.84089580076E+02  0.22156677870E+02  0.13246593390E+03  0.20188290565E+03  0.12509000000E+03 0.  0.
<mgrwt>
<rscale>  2 0.46106927E+03</rscale>
<asrwt>0</asrwt>
<pdfrwt beam="1">  1       21 0.44711764E-01 0.46106927E+03</pdfrwt>
<pdfrwt beam="2">  1       21 0.25705896E-01 0.46106927E+03</pdfrwt>
<totfact> 0.63662620E+04</totfact>
</mgrwt>
</event>
<event>
 7    0  0.4709932E-002  0.4048390E+03  0.7546771E-02  0.1042117E+00
         21   -1    0    0  502  501  0.00000000000E+00  0.00000000000E+00  0.15548333329E+03  0.15548333329E+03  0.00000000000E+00 0.  1.
         21   -1    0    0  501  502 -0.00000000000E+00 -0.00000000000E+00 -0.26352445700E+03  0.26352445700E+03  0.00000000000E+00 0.  1.
      99926    2    1    2    0    0  0.35527136788E-14  0.00000000000E+00 -0.10804112371E+03  0.41900779029E+03  0.40483903457E+03 0.  0.
      99925    2    3    3    0    0  0.18849085412E+02  0.33642342868E+02 -0.11107834719E+03  0.28807334837E+03  0.26298433332E+03 0.  0.
         25    1    4    4    0    0 -0.27340194032E+01 -0.12970688191E+02 -0.80779679310E+02  0.14949440894E+03  0.12509000000E+03 0.  0.
         25    1    3    3    0    0 -0.18849085412E+02 -0.33642342868E+02  0.30372234868E+01  0.13093444192E+03  0.12509000000E+03 0.  0.
         25    1    4    4    0    0  0.21583104815E+02  0.46613031059E+02 -0.30298667883E+02  0.13857893943E+03  0.12509000000E+03 0.  0.
<mgrwt>
<rscale>  2 0.40483903E+03</rscale>
<asrwt>0</asrwt>
<pdfrwt beam="1">  1       21 0.22865196E-01 0.40483903E+03</pdfrwt>
<pdfrwt beam="2">  1       21 0.38753596E-01 0.40483903E+03</pdfrwt>
<totfact> 0.10862217E+05</totfact>
</mgrwt>
</event>
<event>
 7    0  0.4709932E-002  0.4461537E+03  0.7546771E-02  0.1028875E+00
         21   -1    0    0  502  501  0.00000000000E+00  0.00000000000E+00  0.18013549180E+03  0.18013549180E+03  0.00000000000E+00 0. -1.
         21   -1    0    0  501  502 -0.00000000000E+00 -0.00000000000E+00 -0.27625469423E+03  0.27625469423E+03  0.00000000000E+00 0. -1.
      99926    2    1    2    0    0  0.35527136788E-14  0.00000000000E+00 -0.96119202430E+02  0.45639018604E+03  0.44615367401E+03 0.  0.
      99925    2    3    3    0    0  0.24595322664E+02  0.62001763190E+02 -0.14340240586E+03  0.30695003761E+03  0.26306829350E+03 0.  0.
         25    1    4    4    0    0  0.17704031887E+01  0.40211129762E+02 -0.11551606597E+03  0.17496153543E+03  0.12509000000E+03 0.  0.
         25    1    3    3    0    0 -0.24595322664E+02 -0.62001763190E+02  0.47283203428E+02  0.14944014843E+03  0.12509000000E+03 0.  0.
         25    1    4    4    0    0  0.22824919475E+02  0.21790633428E+02 -0.27886339892E+02  0.13198850218E+03  0.12509000000E+03 0.  0.
<mgrwt>
<rscale>  2 0.44615367E+03</rscale>
<asrwt>0</asrwt>
<pdfrwt beam="1">  1       21 0.26490514E-01 0.44615367E+03</pdfrwt>
<pdfrwt beam="2">  1       21 0.40625690E-01 0.44615367E+03</pdfrwt>
<totfact> 0.73484379E+04</totfact>
</mgrwt>
</event>
<event>
 7    0  0.4709932E-002  0.4555932E+03  0.7546771E-02  0.1026067E+00
         21   -1    0    0  502  501  0.00000000000E+00  0.00000000000E+00  0.26358909706E+03  0.26358909706E+03  0.00000000000E+00 0.  1.
         21   -1    0    0  501  502 -0.00000000000E+00 -0.00000000000E+00 -0.19686428824E+03  0.19686428824E+03  0.00000000000E+00 0.  1.
      99926    2    1    2    0    0 -0.14210854715E-13 -0.71054273576E-14  0.66724808818E+02  0.46045338530E+03  0.45559315175E+03 0.  0.
      99925    2    3    3    0    0  0.95668720109E+02  0.39084141792E+02  0.90063925088E+02  0.29652566771E+03  0.26293703973E+03 0.  0.
         25    1    4    4    0    0  0.29561128797E+02  0.49751649177E+01  0.67055855765E+01  0.12880638796E+03  0.12509000000E+03 0.  0.
         25    1    4    4    0    0  0.66107591312E+02  0.34108976874E+02  0.83358339511E+02  0.16771927975E+03  0.12509000000E+03 0.  0.
         25    1    3    3    0    0 -0.95668720109E+02 -0.39084141792E+02 -0.23339116270E+02  0.16392771759E+03  0.12509000000E+03 0.  0.
<mgrwt>
<rscale>  2 0.45559315E+03</rscale>
<asrwt>0</asrwt>
<pdfrwt beam="1">  1       21 0.38763103E-01 0.45559315E+03</pdfrwt>
<pdfrwt beam="2">  1       21 0.28950630E-01 0.45559315E+03</pdfrwt>
<totfact> 0.67826145E+04</totfact>
</mgrwt>
</event>
<event>
 7    0  0.4709932E-002  0.4474091E+03  0.7546771E-02  0.1028498E+00
         21   -1    0    0  502  501  0.00000000000E+00  0.00000000000E+00  0.35472252615E+03  0.35472252615E+03  0.00000000000E+00 0. -1.
         21   -1    0    0  501  502 -0.00000000000E+00 -0.00000000000E+00 -0.14107849440E+03  0.14107849440E+03  0.00000000000E+00 0. -1.
      99926    2    1    2    0    0  0.71054273576E-14  0.71054273576E-14  0.21364403176E+03  0.49580102055E+03  0.44740907420E+03 0.  0.
      99925    2    3    3    0    0 -0.41904573194E+02  0.52121569555E+02  0.22627528585E+03  0.35339418101E+03  0.26308609032E+03 0.  0.
         25    1    4    4    0    0  0.63255526159E+00  0.60019282571E+02  0.12473411741E+03  0.18657122649E+03  0.12509000000E+03 0.  0.
         25    1    4    4    0    0 -0.42537128455E+02 -0.78977130162E+01  0.10154116844E+03  0.16682295452E+03  0.12509000000E+03 0.  0.
         25    1    3    3    0    0  0.41904573194E+02 -0.52121569555E+02 -0.12631254096E+02  0.14240683954E+03  0.12509000000E+03 0.  0.
<mgrwt>
<rscale>  2 0.44740907E+03</rscale>
<asrwt>0</asrwt>
<pdfrwt beam="1">  1       21 0.52165077E-01 0.44740907E+03</pdfrwt>
<pdfrwt beam="2">  1       21 0.20746837E-01 0.44740907E+03</pdfrwt>
<totfact> 0.69671134E+04</totfact>
</mgrwt>
</event>
<event>
 7    0  0.4709932E-002  0.4515965E+03  0.7546771E-02  0.1027247E+00
         21   -1    0    0  502  501  0.00000000000E+00  0.00000000000E+00  0.15420536480E+03  0.15420536480E+03  0.00000000000E+00 0. -1.
         21   -1    0    0  501  502 -0.00000000000E+00 -0.00000000000E+00 -0.33062954646E+03  0.33062954646E+03  0.00000000000E+00 0. -1.
      99926    2    1    2    0    0  0.00000000000E+00  0.00000000000E+00 -0.17642418165E+03  0.48483491126E+03  0.45159650055E+03 0.  0.
      99925    2    3    3    0    0  0.47903031340E+02  0.67069611713E+02 -0.32906862257E+02  0.27737946473E+03  0.26279930108E+03 0.  0.
         25    1    4    4    0    0  0.40614130655E+02  0.63443176923E+02  0.59461023497E+01  0.14614174127E+03  0.12509000000E+03 0.  0.
         25    1    3    3    0    0 -0.47903031340E+02 -0.67069611713E+02 -0.14351731940E+03  0.20745544653E+03  0.12509000000E+03 0.  0.
         25    1    4    4    0    0  0.72889006843E+01  0.36264347903E+01 -0.38852964607E+02  0.13123772347E+03  0.12509000000E+03 0.  0.
<mgrwt>
<rscale>  2 0.45159650E+03</rscale>
<asrwt>0</asrwt>
<pdfrwt beam="1">  1       21 0.22677260E-01 0.45159650E+03</pdfrwt>
<pdfrwt beam="2">  1       21 0.48621992E-01 0.45159650E+03</pdfrwt>
<totfact> 0.68173229E+04</totfact>
</mgrwt>
</event>
<event>
 7    0  0.4709932E-002  0.4668329E+03  0.7546771E-02  0.1022818E+00
         21   -1    0    0  502  501  0.00000000000E+00  0.00000000000E+00  0.32203106177E+03  0.32203106177E+03  0.00000000000E+00 0. -1.
         21   -1    0    0  501  502 -0.00000000000E+00 -0.00000000000E+00 -0.16918628173E+03  0.16918628173E+03  0.00000000000E+00 0. -1.
      99926    2    1    2    0    0  0.00000000000E+00  0.00000000000E+00  0.15284478004E+03  0.49121734350E+03  0.46683289491E+03 0.  0.
      99925    2    3    3    0    0 -0.73513767000E+02  0.79182419924E+02  0.31398524383E+02  0.28610559182E+03  0.26305211038E+03 0.  0.
         25    1    4    4    0    0 -0.39691684598E+02  0.80097543478E+02  0.48254867891E+01  0.15382405443E+03  0.12509000000E+03 0.  0.
         25    1    4    4    0    0 -0.33822082402E+02 -0.91512355473E+00  0.26573037594E+02  0.13228153740E+03  0.12509000000E+03 0.  0.
         25    1    3    3    0    0  0.73513767000E+02 -0.79182419924E+02  0.12144625566E+03  0.20511175168E+03  0.12509000000E+03 0.  0.
<mgrwt>
<rscale>  2 0.46683289E+03</rscale>
<asrwt>0</asrwt>
<pdfrwt beam="1">  1       21 0.47357509E-01 0.46683289E+03</pdfrwt>
<pdfrwt beam="2">  1       21 0.24880336E-01 0.46683289E+03</pdfrwt>
<totfact> 0.60050226E+04</totfact>
</mgrwt>
</event>
<event>
 7    0  0.4709932E-002  0.4537331E+03  0.7546771E-02  0.1026615E+00
         21   -1    0    0  502  501  0.00000000000E+00  0.00000000000E+00  0.44490282124E+02  0.44490282124E+02  0.00000000000E+00 0. -1.
         21   -1    0    0  501  502 -0.00000000000E+00 -0.00000000000E+00 -0.11568467879E+04  0.11568467879E+04  0.00000000000E+00 0. -1.
      99926    2    1    2    0    0  0.00000000000E+00  0.00000000000E+00 -0.11123565057E+04  0.12013370700E+04  0.45373313728E+03 0.  0.
      99925    2    3    3    0    0  0.67541519138E+02 -0.16043144680E+02 -0.46792523695E+03  0.54121707515E+03  0.26294991111E+03 0.  0.
         25    1    3    3    0    0 -0.67541519138E+02  0.16043144680E+02 -0.64443126878E+03  0.66011999484E+03  0.12509000000E+03 0.  0.
         25    1    4    4    0    0  0.36616955893E+02 -0.22292792102E+02 -0.31185038644E+03  0.33872694263E+03  0.12509000000E+03 0.  0.
         25    1    4    4    0    0  0.30924563245E+02  0.62496474217E+01 -0.15607485051E+03  0.20249013252E+03  0.12509000000E+03 0.  0.
<mgrwt>
<rscale>  2 0.45373314E+03</rscale>
<asrwt>0</asrwt>
<pdfrwt beam="1">  1       21 0.65426889E-02 0.45373314E+03</pdfrwt>
<pdfrwt beam="2">  1       21 0.17012452E+00 0.45373314E+03</pdfrwt>
<totfact> 0.32432483E+04</totfact>
</mgrwt>
</event>
<event>
 7    0  0.4709932E-002  0.4551416E+03  0.7546771E-02  0.1026200E+00
         21   -1    0    0  502  501  0.00000000000E+00  0.00000000000E+00  0.19363959112E+03  0.19363959112E+03  0.00000000000E+00 0. -1.
         21   -1    0    0  501  502 -0.00000000000E+00 -0.00000000000E+00 -0.26744770856E+03  0.26744770856E+03  0.00000000000E+00 0. -1.
      99926    2    1    2    0    0  0.88817841970E-15  0.00000000000E+00 -0.73808117443E+02  0.46108729968E+03  0.45514158206E+03 0.  0.
      99925    2    3    3    0    0  0.53987583748E+01 -0.40498754315E+02  0.60873965334E+02  0.27278948447E+03  0.26275305419E+03 0.  0.
         25    1    4    4    0    0 -0.19173628605E+00 -0.80181494026E+01 -0.91746486055E+01  0.12568217757E+03  0.12509000000E+03 0.  0.
         25    1    3    3    0    0 -0.53987583748E+01  0.40498754315E+02 -0.13468208278E+03  0.18829781521E+03  0.12509000000E+03 0.  0.
         25    1    4    4    0    0  0.55904946609E+01 -0.32480604912E+02  0.70048613939E+02  0.14710730689E+03  0.12509000000E+03 0.  0.
<mgrwt>
<rscale>  2 0.45514158E+03</rscale>
<asrwt>0</asrwt>
<pdfrwt beam="1">  1       21 0.28476411E-01 0.45514158E+03</pdfrwt>
<pdfrwt beam="2">  1       21 0.39330545E-01 0.45514158E+03</pdfrwt>
<totfact> 0.68024515E+04</totfact>
</mgrwt>
</event>
<event>
 7    0  0.4709932E-002  0.4562283E+03  0.7546771E-02  0.1025881E+00
         21   -1    0    0  502  501  0.00000000000E+00  0.00000000000E+00  0.66804537377E+03  0.66804537377E+03  0.00000000000E+00 0.  1.
         21   -1    0    0  501  502 -0.00000000000E+00 -0.00000000000E+00 -0.77893020694E+02  0.77893020694E+02  0.00000000000E+00 0.  1.
      99926    2    1    2    0    0  0.00000000000E+00  0.00000000000E+00  0.59015235308E+03  0.74593839447E+03  0.45622832934E+03 0.  0.
      99925    2    3    3    0    0 -0.93174513231E+02 -0.42139290556E+02  0.28750591854E+03  0.40286466746E+03  0.26302676169E+03 0.  0.
         25    1    4    4    0    0 -0.64156647738E+02 -0.56664717781E+02  0.13508513269E+03  0.20303316691E+03  0.12509000000E+03 0.  0.
         25    1    4    4    0    0 -0.29017865493E+02  0.14525427225E+02  0.15242078585E+03  0.19983150055E+03  0.12509000000E+03 0.  0.
         25    1    3    3    0    0  0.93174513231E+02  0.42139290556E+02  0.30264643454E+03  0.34307372701E+03  0.12509000000E+03 0.  0.
<mgrwt>
<rscale>  2 0.45622833E+03</rscale>
<asrwt>0</asrwt>
<pdfrwt beam="1">  1       21 0.98241964E-01 0.45622833E+03</pdfrwt>
<pdfrwt beam="2">  1       21 0.11454856E-01 0.45622833E+03</pdfrwt>
<totfact> 0.49994297E+04</totfact>
</mgrwt>
</event>
<event>
 7    0  0.4709932E-002  0.4479979E+03  0.7546771E-02  0.1028321E+00
         21   -1    0    0  502  501  0.00000000000E+00  0.00000000000E+00  0.32614709276E+02  0.32614709276E+02  0.00000000000E+00 0.  1.
         21   -1    0    0  501  502 -0.00000000000E+00 -0.00000000000E+00 -0.15384322891E+04  0.15384322891E+04  0.00000000000E+00 0.  1.
      99926    2    1    2    0    0  0.00000000000E+00  0.00000000000E+00 -0.15058175799E+04  0.15710469984E+04  0.44799786540E+03 0.  0.
      99925    2    3    3    0    0  0.59436309148E+02  0.48798455631E+02 -0.12118063919E+04  0.12424073008E+04  0.26303460886E+03 0.  0.
         25    1    4    4    0    0  0.31618889203E+02  0.29062215229E+02 -0.79417892413E+03  0.80511616438E+03  0.12509000000E+03 0.  0.
         25    1    4    4    0    0  0.27817419945E+02  0.19736240402E+02 -0.41762746776E+03  0.43729113639E+03  0.12509000000E+03 0.  0.
         25    1    3    3    0    0 -0.59436309148E+02 -0.48798455631E+02 -0.29401118798E+03  0.32863969765E+03  0.12509000000E+03 0.  0.
<mgrwt>
<rscale>  2 0.44799787E+03</rscale>
<asrwt>0</asrwt>
<pdfrwt beam="1">  1       21 0.47962801E-02 0.44799787E+03</pdfrwt>
<pdfrwt beam="2">  1       21 0.22624007E+00 0.44799787E+03</pdfrwt>
<totfact> 0.23333674E+04</totfact>
</mgrwt>
</event>
<event>
 6    0  0.4728668E-002  0.4421737E+03  0.7546771E-02  0.1030082E+00
         21   -1    0    0  502  501  0.00000000000E+00  0.00000000000E+00  0.17278643305E+03  0.17278643305E+03  0.00000000000E+00 0.  1.
         21   -1    0    0  501  502 -0.00000000000E+00 -0.00000000000E+00 -0.28288907082E+03  0.28288907082E+03  0.00000000000E+00 0.  1.
      99926    2    1    2    0    0 -0.35527136788E-14 -0.71054273576E-14 -0.11010263777E+03  0.45567550387E+03  0.44217369210E+03 0.  0.
         25    1    3    3    0    0  0.46184786492E+02  0.52933659977E+02 -0.98386887872E+02  0.17396118724E+03  0.12509000000E+03 0.  0.
         25    1    3    3    0    0 -0.23798985576E+02 -0.38809403119E+02  0.46795579901E+02  0.14110243047E+03  0.12509000000E+03 0.  0.
         25    1    3    3    0    0 -0.22385800916E+02 -0.14124256859E+02 -0.58511329800E+02  0.14061188616E+03  0.12509000000E+03 0.  0.
<mgrwt>
<rscale>  2 0.44217369E+03</rscale>
<asrwt>0</asrwt>
<pdfrwt beam="1">  1       21 0.25409770E-01 0.44217369E+03</pdfrwt>
<pdfrwt beam="2">  1       21 0.41601334E-01 0.44217369E+03</pdfrwt>
<totfact> 0.75954529E+04</totfact>
</mgrwt>
</event>
<event>
 7    0  0.4709932E-002  0.4397657E+03  0.7546771E-02  0.1030819E+00
         21   -1    0    0  502  501  0.00000000000E+00  0.00000000000E+00  0.24460408414E+02  0.24460408414E+02  0.00000000000E+00 0.  1.
         21   -1    0    0  501  502 -0.00000000000E+00 -0.00000000000E+00 -0.19766010334E+04  0.19766010334E+04  0.00000000000E+00 0.  1.
      99926    2    1    2    0    0  0.00000000000E+00  0.71054273576E-14 -0.19521406250E+04  0.20010614418E+04  0.43976570375E+03 0.  0.
      99925    2    3    3    0    0  0.55664418777E+02  0.47397507259E+02 -0.94825424104E+03  0.98677330169E+03  0.26304066620E+03 0.  0.
         25    1    4    4    0    0  0.63486132988E+02  0.40678483909E+02 -0.56008353442E+03  0.57881456596E+03  0.12509000000E+03 0.  0.
         25    1    4    4    0    0 -0.78217142109E+01  0.67190233500E+01 -0.38817070661E+03  0.40795873573E+03  0.12509000000E+03 0.  0.
         25    1    3    3    0    0 -0.55664418777E+02 -0.47397507259E+02 -0.10038863840E+04  0.10142881401E+04  0.12509000000E+03 0.  0.
<mgrwt>
<rscale>  2 0.43976570E+03</rscale>
<asrwt>0</asrwt>
<pdfrwt beam="1">  1       21 0.35971181E-02 0.43976570E+03</pdfrwt>
<pdfrwt beam="2">  1       21 0.29067669E+00 0.43976570E+03</pdfrwt>
<totfact> 0.15438990E+04</totfact>
</mgrwt>
</event>
<event>
 7    0  0.4709932E-002  0.4530894E+03  0.7546771E-02  0.1026805E+00
         21   -1    0    0  502  501  0.00000000000E+00  0.00000000000E+00  0.12913350653E+03  0.12913350653E+03  0.00000000000E+00 0. -1.
         21   -1    0    0  501  502 -0.00000000000E+00 -0.00000000000E+00 -0.39743745314E+03  0.39743745314E+03  0.00000000000E+00 0. -1.
      99926    2    1    2    0    0 -0.17763568394E-14  0.00000000000E+00 -0.26830394661E+03  0.52657095967E+03  0.45308935962E+03 0.  0.
      99925    2    3    3    0    0 -0.14489338587E+02 -0.40653297778E+02 -0.49842865468E+02  0.27115877588E+03  0.26302117585E+03 0.  0.
         25    1    3    3    0    0  0.14489338587E+02  0.40653297778E+02 -0.21846108114E+03  0.25541218379E+03  0.12509000000E+03 0.  0.
         25    1    4    4    0    0 -0.22151519485E+02 -0.39344489163E+02 -0.59008236769E+02  0.14549281340E+03  0.12509000000E+03 0.  0.
         25    1    4    4    0    0  0.76621808984E+01 -0.13088086146E+01  0.91653713009E+01  0.12566596248E+03  0.12509000000E+03 0.  0.
<mgrwt>
<rscale>  2 0.45308936E+03</rscale>
<asrwt>0</asrwt>
<pdfrwt beam="1">  1       21 0.18990221E-01 0.45308936E+03</pdfrwt>
<pdfrwt beam="2">  1       21 0.58446686E-01 0.45308936E+03</pdfrwt>
<totfact> 0.64409212E+04</totfact>
</mgrwt>
</event>
<event>
 7    0  0.4709932E-002  0.4542505E+03  0.7546771E-02  0.1026462E+00
         21   -1    0    0  502  501  0.00000000000E+00  0.00000000000E+00  0.25679327348E+03  0.25679327348E+03  0.00000000000E+00 0.  1.
         21   -1    0    0  501  502 -0.00000000000E+00 -0.00000000000E+00 -0.20088486597E+03  0.20088486597E+03  0.00000000000E+00 0.  1.
      99926    2    1    2    0    0 -0.35527136788E-14  0.88817841970E-15  0.55908407510E+02  0.45767813945E+03  0.45425051382E+03 0.  0.
      99925    2    3    3    0    0 -0.27260775304E+02 -0.44489972651E+00 -0.74729032514E+02  0.27476560122E+03  0.26299878233E+03 0.  0.
         25    1    4    4    0    0  0.24913302273E+02 -0.13435334807E+02 -0.36281568338E+02  0.13328556243E+03  0.12509000000E+03 0.  0.
         25    1    3    3    0    0  0.27260775304E+02  0.44489972651E+00  0.13063744002E+03  0.18291253823E+03  0.12509000000E+03 0.  0.
         25    1    4    4    0    0 -0.52174077578E+02  0.12990435080E+02 -0.38447464176E+02  0.14148003879E+03  0.12509000000E+03 0.  0.
<mgrwt>
<rscale>  2 0.45425051E+03</rscale>
<asrwt>0</asrwt>
<pdfrwt beam="1">  1       21 0.37763717E-01 0.45425051E+03</pdfrwt>
<pdfrwt beam="2">  1       21 0.29541892E-01 0.45425051E+03</pdfrwt>
<totfact> 0.68760138E+04</totfact>
</mgrwt>
</event>
<event>
 7    0  0.4709932E-002  0.4570950E+03  0.7546771E-02  0.1025627E+00
         21   -1    0    0  502  501  0.00000000000E+00  0.00000000000E+00  0.27983983205E+03  0.27983983205E+03  0.00000000000E+00 0. -1.
         21   -1    0    0  501  502 -0.00000000000E+00 -0.00000000000E+00 -0.18665666037E+03  0.18665666037E+03  0.00000000000E+00 0. -1.
      99926    2    1    2    0    0 -0.14210854715E-13 -0.17763568394E-14  0.93183171680E+02  0.46649649241E+03  0.45709503820E+03 0.  0.
      99925    2    3    3    0    0 -0.10406684217E+03 -0.16719875763E+01  0.82969890678E+01  0.28295937006E+03  0.26299137228E+03 0.  0.
         25    1    4    4    0    0 -0.73968602741E+02  0.25870116927E+02 -0.18253286023E+02  0.14873233573E+03  0.12509000000E+03 0.  0.
         25    1    4    4    0    0 -0.30098239433E+02 -0.27542104504E+02  0.26550275091E+02  0.13422703433E+03  0.12509000000E+03 0.  0.
         25    1    3    3    0    0  0.10406684217E+03  0.16719875763E+01  0.84886182612E+02  0.18353712235E+03  0.12509000000E+03 0.  0.
<mgrwt>
<rscale>  2 0.45709504E+03</rscale>
<asrwt>0</asrwt>
<pdfrwt beam="1">  1       21 0.41152916E-01 0.45709504E+03</pdfrwt>
<pdfrwt beam="2">  1       21 0.27449509E-01 0.45709504E+03</pdfrwt>
<totfact> 0.66583523E+04</totfact>
</mgrwt>
</event>
<event>
 7    0  0.4709932E-002  0.4562015E+03  0.7546771E-02  0.1025889E+00
         21   -1    0    0  502  501  0.00000000000E+00  0.00000000000E+00  0.17750526816E+03  0.17750526816E+03  0.00000000000E+00 0.  1.
         21   -1    0    0  501  502 -0.00000000000E+00 -0.00000000000E+00 -0.29311779971E+03  0.29311779971E+03  0.00000000000E+00 0.  1.
      99926    2    1    2    0    0 -0.14210854715E-13 -0.35527136788E-14 -0.11561253155E+03  0.47062306787E+03  0.45620150653E+03 0.  0.
      99925    2    3    3    0    0  0.89087483319E+02  0.26921890213E+02 -0.14128323126E+03  0.31261085068E+03  0.26287492210E+03 0.  0.
         25    1    3    3    0    0 -0.89087483319E+02 -0.26921890213E+02  0.25670699718E+02  0.15801221719E+03  0.12509000000E+03 0.  0.
         25    1    4    4    0    0  0.70130513343E+02  0.21870007561E+02 -0.11035300857E+03  0.18226870476E+03  0.12509000000E+03 0.  0.
         25    1    4    4    0    0  0.18956969976E+02  0.50518826519E+01 -0.30930222690E+02  0.13034214593E+03  0.12509000000E+03 0.  0.
<mgrwt>
<rscale>  2 0.45620151E+03</rscale>
<asrwt>0</asrwt>
<pdfrwt beam="1">  1       21 0.26103716E-01 0.45620151E+03</pdfrwt>
<pdfrwt beam="2">  1       21 0.43105559E-01 0.45620151E+03</pdfrwt>
<totfact> 0.66750905E+04</totfact>
</mgrwt>
</event>
<event>
 7    0  0.4709932E-002  0.4519915E+03  0.7546771E-02  0.1027130E+00
         21   -1    0    0  502  501  0.00000000000E+00  0.00000000000E+00  0.51280666845E+02  0.51280666845E+02  0.00000000000E+00 0.  1.
         21   -1    0    0  501  502 -0.00000000000E+00 -0.00000000000E+00 -0.99597137189E+03  0.99597137189E+03  0.00000000000E+00 0.  1.
      99926    2    1    2    0    0  0.00000000000E+00  0.00000000000E+00 -0.94469070504E+03  0.10472520387E+04  0.45199148713E+03 0.  0.
      99925    2    3    3    0    0  0.52690051042E+02  0.28806713243E+02 -0.38216304280E+03  0.46786361368E+03  0.26313817950E+03 0.  0.
         25    1    4    4    0    0  0.36640499215E+02 -0.18829188041E+02 -0.22587609015E+03  0.26146621332E+03  0.12509000000E+03 0.  0.
         25    1    3    3    0    0 -0.52690051042E+02 -0.28806713243E+02 -0.56252766224E+03  0.57938842506E+03  0.12509000000E+03 0.  0.
         25    1    4    4    0    0  0.16049551828E+02  0.47635901284E+02 -0.15628695265E+03  0.20639740036E+03  0.12509000000E+03 0.  0.
<mgrwt>
<rscale>  2 0.45199149E+03</rscale>
<asrwt>0</asrwt>
<pdfrwt beam="1">  1       21 0.75412752E-02 0.45199149E+03</pdfrwt>
<pdfrwt beam="2">  1       21 0.14646637E+00 0.45199149E+03</pdfrwt>
<totfact> 0.38269181E+04</totfact>
</mgrwt>
</event>
<event>
 7    0  0.4709932E-002  0.4626576E+03  0.7546771E-02  0.1024013E+00
         21   -1    0    0  502  501  0.00000000000E+00  0.00000000000E+00  0.15139175459E+03  0.15139175459E+03  0.00000000000E+00 0.  1.
         21   -1    0    0  501  502 -0.00000000000E+00 -0.00000000000E+00 -0.35347374398E+03  0.35347374398E+03  0.00000000000E+00 0.  1.
      99926    2    1    2    0    0  0.11102230246E-15  0.00000000000E+00 -0.20208198939E+03  0.50486549856E+03  0.46265758527E+03 0.  0.
      99925    2    3    3    0    0 -0.63391637687E+00 -0.10087679553E+03 -0.55217249770E+02  0.28716549955E+03  0.26313219061E+03 0.  0.
         25    1    4    4    0    0  0.26996779397E+02 -0.76067707493E+02 -0.48246639576E+02  0.15649398887E+03  0.12509000000E+03 0.  0.
         25    1    4    4    0    0 -0.27630695774E+02 -0.24809088035E+02 -0.69706101937E+01  0.13067151068E+03  0.12509000000E+03 0.  0.
         25    1    3    3    0    0  0.63391637687E+00  0.10087679553E+03 -0.14686473962E+03  0.21769999901E+03  0.12509000000E+03 0.  0.
<mgrwt>
<rscale>  2 0.46265759E+03</rscale>
<asrwt>0</asrwt>
<pdfrwt beam="1">  1       21 0.22263494E-01 0.46265759E+03</pdfrwt>
<pdfrwt beam="2">  1       21 0.51981432E-01 0.46265759E+03</pdfrwt>
<totfact> 0.61129050E+04</totfact>
</mgrwt>
</event>
<event>
 7    0  0.4709932E-002  0.4558696E+03  0.7546771E-02  0.1025986E+00
         21   -1    0    0  502  501  0.00000000000E+00  0.00000000000E+00  0.18166888314E+03  0.18166888314E+03  0.00000000000E+00 0.  1.
         21   -1    0    0  501  502 -0.00000000000E+00 -0.00000000000E+00 -0.28598334309E+03  0.28598334309E+03  0.00000000000E+00 0.  1.
      99926    2    1    2    0    0  0.00000000000E+00  0.00000000000E+00 -0.10431445995E+03  0.46765222622E+03  0.45586960651E+03 0.  0.
      99925    2    3    3    0    0 -0.99637441859E+02  0.28443993015E+02 -0.11423707143E+03  0.30491732868E+03  0.26303571674E+03 0.  0.
         25    1    4    4    0    0 -0.87136317934E+02  0.30692468365E+02 -0.47664857118E+02  0.16264750912E+03  0.12509000000E+03 0.  0.
         25    1    3    3    0    0  0.99637441859E+02 -0.28443993015E+02  0.99226114805E+01  0.16273489754E+03  0.12509000000E+03 0.  0.
         25    1    4    4    0    0 -0.12501123924E+02 -0.22484753504E+01 -0.66572214313E+02  0.14226981957E+03  0.12509000000E+03 0.  0.
<mgrwt>
<rscale>  2 0.45586961E+03</rscale>
<asrwt>0</asrwt>
<pdfrwt beam="1">  1       21 0.26716013E-01 0.45586961E+03</pdfrwt>
<pdfrwt beam="2">  1       21 0.42056373E-01 0.45586961E+03</pdfrwt>
<totfact> 0.67146637E+04</totfact>
</mgrwt>
</event>
<event>
 7    0  0.4709932E-002  0.4595175E+03  0.7546771E-02  0.1024921E+00
         21   -1    0    0  502  501  0.00000000000E+00  0.00000000000E+00  0.14618516906E+04  0.14618516906E+04  0.00000000000E+00 0.  1.
         21   -1    0    0  501  502 -0.00000000000E+00 -0.00000000000E+00 -0.36111105270E+02  0.36111105270E+02  0.00000000000E+00 0.  1.
      99926    2    1    2    0    0  0.00000000000E+00  0.00000000000E+00  0.14257405854E+04  0.14979627959E+04  0.45951748733E+03 0.  0.
      99925    2    3    3    0    0 -0.99151486629E+01  0.70727456631E+02  0.11957039966E+04  0.12265497830E+04  0.26384775807E+03 0.  0.
         25    1    3    3    0    0  0.99151486629E+01 -0.70727456631E+02  0.23003658876E+03  0.27141301289E+03  0.12509000000E+03 0.  0.
         25    1    4    4    0    0 -0.33704504698E+02  0.60146295186E+02  0.54398505101E+03  0.56242405201E+03  0.12509000000E+03 0.  0.
         25    1    4    4    0    0  0.23789356035E+02  0.10581161446E+02  0.65171894560E+03  0.66412573101E+03  0.12509000000E+03 0.  0.
<mgrwt>
<rscale>  2 0.45951749E+03</rscale>
<asrwt>0</asrwt>
<pdfrwt beam="1">  1       21 0.21497815E+00 0.45951749E+03</pdfrwt>
<pdfrwt beam="2">  1       21 0.53104576E-02 0.45951749E+03</pdfrwt>
<totfact> 0.23011020E+04</totfact>
</mgrwt>
</event>
<event>
 7    0  0.4709932E-002  0.4537566E+03  0.7546771E-02  0.1026608E+00
         21   -1    0    0  502  501  0.00000000000E+00  0.00000000000E+00  0.72229921526E+02  0.72229921526E+02  0.00000000000E+00 0.  1.
         21   -1    0    0  501  502 -0.00000000000E+00 -0.00000000000E+00 -0.71263751725E+03  0.71263751725E+03  0.00000000000E+00 0.  1.
      99926    2    1    2    0    0  0.00000000000E+00  0.71054273576E-14 -0.64040759572E+03  0.78486743877E+03  0.45375655124E+03 0.  0.
      99925    2    3    3    0    0 -0.96192696967E+02  0.56446816806E+02 -0.42349166876E+03  0.51075194204E+03  0.26283659318E+03 0.  0.
         25    1    4    4    0    0 -0.80668395012E+02  0.13422145307E+02 -0.25981502811E+03  0.29973138119E+03  0.12509000000E+03 0.  0.
         25    1    4    4    0    0 -0.15524301955E+02  0.43024671500E+02 -0.16367664065E+03  0.21102056086E+03  0.12509000000E+03 0.  0.
         25    1    3    3    0    0  0.96192696967E+02 -0.56446816806E+02 -0.21691592696E+03  0.27411549673E+03  0.12509000000E+03 0.  0.
<mgrwt>
<rscale>  2 0.45375655E+03</rscale>
<asrwt>0</asrwt>
<pdfrwt beam="1">  1       21 0.10622047E-01 0.45375655E+03</pdfrwt>
<pdfrwt beam="2">  1       21 0.10479963E+00 0.45375655E+03</pdfrwt>
<totfact> 0.48981794E+04</totfact>
</mgrwt>
</event>
<event>
 7    0  0.4709932E-002  0.4427814E+03  0.7546771E-02  0.1029897E+00
         21   -1    0    0  502  501  0.00000000000E+00  0.00000000000E+00  0.52544873083E+03  0.52544873083E+03  0.00000000000E+00 0.  1.
         21   -1    0    0  501  502 -0.00000000000E+00 -0.00000000000E+00 -0.93279952896E+02  0.93279952896E+02  0.00000000000E+00 0.  1.
      99926    2    1    2    0    0 -0.71054273576E-14  0.00000000000E+00  0.43216877793E+03  0.61872868372E+03  0.44278135851E+03 0.  0.
      99925    2    3    3    0    0  0.63194670687E+02 -0.46408042663E+01  0.38552441358E+03  0.47095078181E+03  0.26296475421E+03 0.  0.
         25    1    4    4    0    0  0.47904226685E+02 -0.39274393270E+02  0.20836498476E+03  0.25080025494E+03  0.12509000000E+03 0.  0.
         25    1    3    3    0    0 -0.63194670687E+02  0.46408042663E+01  0.46644364351E+02  0.14777790191E+03  0.12509000000E+03 0.  0.
         25    1    4    4    0    0  0.15290444002E+02  0.34633589004E+02  0.17715942882E+03  0.22015052688E+03  0.12509000000E+03 0.  0.
<mgrwt>
<rscale>  2 0.44278136E+03</rscale>
<asrwt>0</asrwt>
<pdfrwt beam="1">  1       21 0.77271871E-01 0.44278136E+03</pdfrwt>
<pdfrwt beam="2">  1       21 0.13717640E-01 0.44278136E+03</pdfrwt>
<totfact> 0.63443076E+04</totfact>
</mgrwt>
</event>
<event>
 7    0  0.4709932E-002  0.4319971E+03  0.7546771E-02  0.1033231E+00
         21   -1    0    0  502  501  0.00000000000E+00  0.00000000000E+00  0.67428087481E+02  0.67428087481E+02  0.00000000000E+00 0. -1.
         21   -1    0    0  501  502 -0.00000000000E+00 -0.00000000000E+00 -0.69192794320E+03  0.69192794320E+03  0.00000000000E+00 0. -1.
      99926    2    1    2    0    0  0.00000000000E+00 -0.71054273576E-14 -0.62449985572E+03  0.75935603068E+03  0.43199711983E+03 0.  0.
      99925    2    3    3    0    0  0.66705424395E+02 -0.48983097653E+02 -0.34015912813E+03  0.43788112503E+03  0.26302602477E+03 0.  0.
         25    1    4    4    0    0  0.26858022720E+02 -0.13711754817E+01 -0.11031763183E+03  0.16893999378E+03  0.12509000000E+03 0.  0.
         25    1    4    4    0    0  0.39847401675E+02 -0.47611922172E+02 -0.22984149631E+03  0.26894113125E+03  0.12509000000E+03 0.  0.
         25    1    3    3    0    0 -0.66705424395E+02  0.48983097653E+02 -0.28434072758E+03  0.32147490565E+03  0.12509000000E+03 0.  0.
<mgrwt>
<rscale>  2 0.43199712E+03</rscale>
<asrwt>0</asrwt>
<pdfrwt beam="1">  1       21 0.99158948E-02 0.43199712E+03</pdfrwt>
<pdfrwt beam="2">  1       21 0.10175411E+00 0.43199712E+03</pdfrwt>
<totfact> 0.59901194E+04</totfact>
</mgrwt>
</event>
<event>
 7    0  0.4709932E-002  0.4568993E+03  0.7546771E-02  0.1025684E+00
         21   -1    0    0  502  501  0.00000000000E+00  0.00000000000E+00  0.92360071741E+02  0.92360071741E+02  0.00000000000E+00 0. -1.
         21   -1    0    0  501  502 -0.00000000000E+00 -0.00000000000E+00 -0.56506293434E+03  0.56506293434E+03  0.00000000000E+00 0. -1.
      99926    2    1    2    0    0 -0.14210854715E-13  0.71054273576E-14 -0.47270286260E+03  0.65742300609E+03  0.45689934627E+03 0.  0.
      99925    2    3    3    0    0  0.97825880850E+02 -0.48845068944E+02 -0.35239587168E+03  0.45229615779E+03  0.26159743932E+03 0.  0.
         25    1    3    3    0    0 -0.97825880850E+02  0.48845068944E+02 -0.12030699093E+03  0.20512684829E+03  0.12509000000E+03 0.  0.
         25    1    4    4    0    0  0.74706377720E+02 -0.47780962843E+02 -0.15968886663E+03  0.22138677808E+03  0.12509000000E+03 0.  0.
         25    1    4    4    0    0  0.23119503131E+02 -0.10641061005E+01 -0.19270700505E+03  0.23090937972E+03  0.12509000000E+03 0.  0.
<mgrwt>
<rscale>  2 0.45689935E+03</rscale>
<asrwt>0</asrwt>
<pdfrwt beam="1">  1       21 0.13582364E-01 0.45689935E+03</pdfrwt>
<pdfrwt beam="2">  1       21 0.83097487E-01 0.45689935E+03</pdfrwt>
<totfact> 0.54455460E+04</totfact>
</mgrwt>
</event>
<event>
 7    0  0.4709932E-002  0.4385906E+03  0.7546771E-02  0.1031180E+00
         21   -1    0    0  502  501  0.00000000000E+00  0.00000000000E+00  0.25918486187E+03  0.25918486187E+03  0.00000000000E+00 0.  1.
         21   -1    0    0  501  502 -0.00000000000E+00 -0.00000000000E+00 -0.18554489313E+03  0.18554489313E+03  0.00000000000E+00 0.  1.
      99926    2    1    2    0    0  0.00000000000E+00  0.00000000000E+00  0.73639968736E+02  0.44472975500E+03  0.43859059496E+03 0.  0.
      99925    2    3    3    0    0  0.81374617152E+02 -0.43388667519E+02  0.77114477664E+02  0.28928206252E+03  0.26312176695E+03 0.  0.
         25    1    4    4    0    0  0.77701867754E+02 -0.55598653440E+01  0.30521003158E+02  0.15049097012E+03  0.12509000000E+03 0.  0.
         25    1    3    3    0    0 -0.81374617152E+02  0.43388667519E+02 -0.34745089279E+01  0.15544769248E+03  0.12509000000E+03 0.  0.
         25    1    4    4    0    0  0.36727493980E+01 -0.37828802175E+02  0.46593474506E+02  0.13879109240E+03  0.12509000000E+03 0.  0.
<mgrwt>
<rscale>  2 0.43859059E+03</rscale>
<asrwt>0</asrwt>
<pdfrwt beam="1">  1       21 0.38115421E-01 0.43859059E+03</pdfrwt>
<pdfrwt beam="2">  1       21 0.27286014E-01 0.43859059E+03</pdfrwt>
<totfact> 0.79171768E+04</totfact>
</mgrwt>
</event>
<event>
 7    0  0.4709932E-002  0.4474588E+03  0.7546771E-02  0.1028483E+00
         21   -1    0    0  502  501  0.00000000000E+00  0.00000000000E+00  0.37561058226E+02  0.37561058226E+02  0.00000000000E+00 0.  1.
         21   -1    0    0  501  502 -0.00000000000E+00 -0.00000000000E+00 -0.13326258624E+04  0.13326258624E+04  0.00000000000E+00 0.  1.
      99926    2    1    2    0    0  0.71054273576E-14  0.00000000000E+00 -0.12950648041E+04  0.13701869206E+04  0.44745876954E+03 0.  0.
      99925    2    3    3    0    0 -0.46356396350E+02 -0.58277292609E+02 -0.58937632592E+03  0.64963928531E+03  0.26290984985E+03 0.  0.
         25    1    3    3    0    0  0.46356396350E+02  0.58277292609E+02 -0.70568847822E+03  0.72054763528E+03  0.12509000000E+03 0.  0.
         25    1    4    4    0    0  0.17325345186E+02 -0.28220088373E+02 -0.29475196856E+03  0.32190491150E+03  0.12509000000E+03 0.  0.
         25    1    4    4    0    0 -0.63681741536E+02 -0.30057204236E+02 -0.29462435736E+03  0.32773437382E+03  0.12509000000E+03 0.  0.
<mgrwt>
<rscale>  2 0.44745877E+03</rscale>
<asrwt>0</asrwt>
<pdfrwt beam="1">  1       21 0.55236849E-02 0.44745877E+03</pdfrwt>
<pdfrwt beam="2">  1       21 0.19597440E+00 0.44745877E+03</pdfrwt>
<totfact> 0.28788193E+04</totfact>
</mgrwt>
</event>
<event>
 7    0  0.4709932E-002  0.4550432E+03  0.7546771E-02  0.1026229E+00
         21   -1    0    0  502  501  0.00000000000E+00  0.00000000000E+00  0.33209535827E+02  0.33209535827E+02  0.00000000000E+00 0. -1.
         21   -1    0    0  501  502 -0.00000000000E+00 -0.00000000000E+00 -0.15587714512E+04  0.15587714512E+04  0.00000000000E+00 0. -1.
      99926    2    1    2    0    0  0.00000000000E+00  0.26645352591E-14 -0.15255619153E+04  0.15919809870E+04  0.45504319071E+03 0.  0.
      99925    2    3    3    0    0 -0.79474611968E+02 -0.75018902759E+01 -0.12408761860E+04  0.12709421033E+04  0.26295936652E+03 0.  0.
         25    1    4    4    0    0 -0.41421749450E+02  0.16048493843E+02 -0.45704230234E+03  0.47592908054E+03  0.12509000000E+03 0.  0.
         25    1    3    3    0    0  0.79474611968E+02  0.75018902759E+01 -0.28468572929E+03  0.32103888373E+03  0.12509000000E+03 0.  0.
         25    1    4    4    0    0 -0.38052862518E+02 -0.23550384119E+02 -0.78383388370E+03  0.79501302271E+03  0.12509000000E+03 0.  0.
<mgrwt>
<rscale>  2 0.45504319E+03</rscale>
<asrwt>0</asrwt>
<pdfrwt beam="1">  1       21 0.48837543E-02 0.45504319E+03</pdfrwt>
<pdfrwt beam="2">  1       21 0.22923114E+00 0.45504319E+03</pdfrwt>
<totfact> 0.21604336E+04</totfact>
</mgrwt>
</event>
<event>
 7    0  0.4709932E-002  0.4518912E+03  0.7546771E-02  0.1027160E+00
         21   -1    0    0  502  501  0.00000000000E+00  0.00000000000E+00  0.16450343904E+03  0.16450343904E+03  0.00000000000E+00 0.  1.
         21   -1    0    0  501  502 -0.00000000000E+00 -0.00000000000E+00 -0.31033647288E+03  0.31033647288E+03  0.00000000000E+00 0.  1.
      99926    2    1    2    0    0  0.00000000000E+00 -0.71054273576E-14 -0.14583303385E+03  0.47483991192E+03  0.45189121278E+03 0.  0.
      99925    2    3    3    0    0  0.72437207683E+02  0.63194078964E+02 -0.14864792334E+03  0.31705501918E+03  0.26303429321E+03 0.  0.
         25    1    4    4    0    0 -0.43511100952E+01  0.26737461901E+02 -0.56080315432E+02  0.13973665914E+03  0.12509000000E+03 0.  0.
         25    1    3    3    0    0 -0.72437207683E+02 -0.63194078964E+02  0.28148894946E+01  0.15778489274E+03  0.12509000000E+03 0.  0.
         25    1    4    4    0    0  0.76788317778E+02  0.36456617063E+02 -0.92567607911E+02  0.17731836005E+03  0.12509000000E+03 0.  0.
<mgrwt>
<rscale>  2 0.45189121E+03</rscale>
<asrwt>0</asrwt>
<pdfrwt beam="1">  1       21 0.24191683E-01 0.45189121E+03</pdfrwt>
<pdfrwt beam="2">  1       21 0.45637716E-01 0.45189121E+03</pdfrwt>
<totfact> 0.68758537E+04</totfact>
</mgrwt>
</event>
<event>
 7    0  0.4709932E-002  0.4495015E+03  0.7546771E-02  0.1027871E+00
         21   -1    0    0  502  501  0.00000000000E+00  0.00000000000E+00  0.13667215157E+04  0.13667215157E+04  0.00000000000E+00 0. -1.
         21   -1    0    0  501  502 -0.00000000000E+00 -0.00000000000E+00 -0.36959167196E+02  0.36959167196E+02  0.00000000000E+00 0. -1.
      99926    2    1    2    0    0  0.00000000000E+00  0.00000000000E+00  0.13297623485E+04  0.14036806829E+04  0.44950145277E+03 0.  0.
      99925    2    3    3    0    0  0.48580432809E+02  0.90801544146E+02  0.94131330642E+03  0.98279454003E+03  0.26307677241E+03 0.  0.
         25    1    4    4    0    0  0.14604543473E+02  0.32092041939E+02  0.58190824480E+03  0.59624483672E+03  0.12509000000E+03 0.  0.
         25    1    4    4    0    0  0.33975889335E+02  0.58709502207E+02  0.35940506162E+03  0.38654970331E+03  0.12509000000E+03 0.  0.
         25    1    3    3    0    0 -0.48580432809E+02 -0.90801544146E+02  0.38844904211E+03  0.42088614290E+03  0.12509000000E+03 0.  0.
<mgrwt>
<rscale>  2 0.44950145E+03</rscale>
<asrwt>0</asrwt>
<pdfrwt beam="1">  1       21 0.20098842E+00 0.44950145E+03</pdfrwt>
<pdfrwt beam="2">  1       21 0.54351725E-02 0.44950145E+03</pdfrwt>
<totfact> 0.27385716E+04</totfact>
</mgrwt>
</event>
<event>
 7    0  0.4709932E-002  0.4266615E+03  0.7546771E-02  0.1034920E+00
         21   -1    0    0  502  501  0.00000000000E+00  0.00000000000E+00  0.92060867835E+03  0.92060867835E+03  0.00000000000E+00 0. -1.
         21   -1    0    0  501  502 -0.00000000000E+00 -0.00000000000E+00 -0.49434686434E+02  0.49434686434E+02  0.00000000000E+00 0. -1.
      99926    2    1    2    0    0  0.00000000000E+00 -0.39968028887E-14  0.87117399192E+03  0.97004336479E+03  0.42666146460E+03 0.  0.
      99925    2    3    3    0    0 -0.37155978016E+02 -0.81038329103E+00  0.73449486616E+03  0.78107269261E+03  0.26307911227E+03 0.  0.
         25    1    4    4    0    0 -0.31915089271E+02 -0.38461132582E+02  0.35585232246E+03  0.38049469792E+03  0.12509000000E+03 0.  0.
         25    1    4    4    0    0 -0.52408887453E+01  0.37650749291E+02  0.37864254369E+03  0.40057799469E+03  0.12509000000E+03 0.  0.
         25    1    3    3    0    0  0.37155978016E+02  0.81038329103E+00  0.13667912576E+03  0.18897067218E+03  0.12509000000E+03 0.  0.
<mgrwt>
<rscale>  2 0.42666146E+03</rscale>
<asrwt>0</asrwt>
<pdfrwt beam="1">  1       21 0.13538362E+00 0.42666146E+03</pdfrwt>
<pdfrwt beam="2">  1       21 0.72698074E-02 0.42666146E+03</pdfrwt>
<totfact> 0.50667581E+04</totfact>
</mgrwt>
</event>
<event>
 7    0  0.4709932E-002  0.4545149E+03  0.7546771E-02  0.1026384E+00
         21   -1    0    0  502  501  0.00000000000E+00  0.00000000000E+00  0.37245290000E+03  0.37245290000E+03  0.00000000000E+00 0. -1.
         21   -1    0    0  501  502 -0.00000000000E+00 -0.00000000000E+00 -0.13866438813E+03  0.13866438813E+03  0.00000000000E+00 0. -1.
      99926    2    1    2    0    0  0.14210854715E-13  0.00000000000E+00  0.23378851187E+03  0.51111728812E+03  0.45451492158E+03 0.  0.
      99925    2    3    3    0    0 -0.10243335025E+03  0.10428617680E+02  0.19886573649E+03  0.34538118569E+03  0.26294340640E+03 0.  0.
         25    1    4    4    0    0 -0.68237995991E+02 -0.28770845643E+02  0.84888937791E+02  0.16833842555E+03  0.12509000000E+03 0.  0.
         25    1    4    4    0    0 -0.34195354261E+02  0.39199463323E+02  0.11397679870E+03  0.17704276014E+03  0.12509000000E+03 0.  0.
         25    1    3    3    0    0  0.10243335025E+03 -0.10428617680E+02  0.34922775384E+02  0.16573610244E+03  0.12509000000E+03 0.  0.
<mgrwt>
<rscale>  2 0.45451492E+03</rscale>
<asrwt>0</asrwt>
<pdfrwt beam="1">  1       21 0.54772485E-01 0.45451492E+03</pdfrwt>
<pdfrwt beam="2">  1       21 0.20391822E-01 0.45451492E+03</pdfrwt>
<totfact> 0.64745367E+04</totfact>
</mgrwt>
</event>
<event>
 7    0  0.4709932E-002  0.4552702E+03  0.7546771E-02  0.1026162E+00
         21   -1    0    0  502  501  0.00000000000E+00  0.00000000000E+00  0.26408803224E+03  0.26408803224E+03  0.00000000000E+00 0. -1.
         21   -1    0    0  501  502 -0.00000000000E+00 -0.00000000000E+00 -0.19621389702E+03  0.19621389702E+03  0.00000000000E+00 0. -1.
      99926    2    1    2    0    0  0.00000000000E+00  0.00000000000E+00  0.67874135220E+02  0.46030192927E+03  0.45527021411E+03 0.  0.
      99925    2    3    3    0    0  0.81497694683E+02  0.13410310529E+02 -0.36007804715E+02  0.27792683170E+03  0.26291643370E+03 0.  0.
         25    1    3    3    0    0 -0.81497694683E+02 -0.13410310529E+02  0.10388193994E+03  0.18237509757E+03  0.12509000000E+03 0.  0.
         25    1    4    4    0    0  0.24861648242E+02  0.42203355031E+02 -0.29116850754E+02  0.13745735276E+03  0.12509000000E+03 0.  0.
         25    1    4    4    0    0  0.56636046442E+02 -0.28793044502E+02 -0.68909539610E+01  0.14046947894E+03  0.12509000000E+03 0.  0.
<mgrwt>
<rscale>  2 0.45527021E+03</rscale>
<asrwt>0</asrwt>
<pdfrwt beam="1">  1       21 0.38836475E-01 0.45527021E+03</pdfrwt>
<pdfrwt beam="2">  1       21 0.28854985E-01 0.45527021E+03</pdfrwt>
<totfact> 0.68011897E+04</totfact>
</mgrwt>
</event>
<event>
 7    0  0.4709932E-002  0.4535201E+03  0.7546771E-02  0.1026677E+00
         21   -1    0    0  502  501  0.00000000000E+00  0.00000000000E+00  0.13907257957E+03  0.13907257957E+03  0.00000000000E+00 0.  1.
         21   -1    0    0  501  502 -0.00000000000E+00 -0.00000000000E+00 -0.36973585936E+03  0.36973585936E+03  0.00000000000E+00 0.  1.
      99926    2    1    2    0    0  0.00000000000E+00 -0.71054273576E-14 -0.23066327979E+03  0.50880843892E+03  0.45352009754E+03 0.  0.
      99925    2    3    3    0    0 -0.10257220468E+03 -0.34976603890E+02 -0.11457016535E+03  0.30664627799E+03  0.26298516503E+03 0.  0.
         25    1    3    3    0    0  0.10257220468E+03  0.34976603890E+02 -0.11609311444E+03  0.20216216093E+03  0.12509000000E+03 0.  0.
         25    1    4    4    0    0 -0.57327732627E+02 -0.10890919876E+02 -0.15192182368E+02  0.13886465198E+03  0.12509000000E+03 0.  0.
         25    1    4    4    0    0 -0.45244472053E+02 -0.24085684014E+02 -0.99377982982E+02  0.16778162601E+03  0.12509000000E+03 0.  0.
<mgrwt>
<rscale>  2 0.45352010E+03</rscale>
<asrwt>0</asrwt>
<pdfrwt beam="1">  1       21 0.20451851E-01 0.45352010E+03</pdfrwt>
<pdfrwt beam="2">  1       21 0.54372919E-01 0.45352010E+03</pdfrwt>
<totfact> 0.65421171E+04</totfact>
</mgrwt>
</event>
<event>
 7    0  0.4709932E-002  0.4587871E+03  0.7546771E-02  0.1025134E+00
         21   -1    0    0  502  501  0.00000000000E+00  0.00000000000E+00  0.46152679355E+03  0.46152679355E+03  0.00000000000E+00 0. -1.
         21   -1    0    0  501  502 -0.00000000000E+00 -0.00000000000E+00 -0.11401590734E+03  0.11401590734E+03  0.00000000000E+00 0. -1.
      99926    2    1    2    0    0  0.00000000000E+00 -0.17763568394E-14  0.34751088622E+03  0.57554270089E+03  0.45878707971E+03 0.  0.
      99925    2    3    3    0    0  0.11461230284E+03 -0.14305526193E+02  0.23567261574E+03  0.37183719069E+03  0.26340213843E+03 0.  0.
         25    1    4    4    0    0  0.36605210908E+02 -0.34636188377E+02  0.81571130314E+02  0.15761016595E+03  0.12509000000E+03 0.  0.
         25    1    3    3    0    0 -0.11461230284E+03  0.14305526193E+02  0.11183827048E+03  0.20370551020E+03  0.12509000000E+03 0.  0.
         25    1    4    4    0    0  0.78007091936E+02  0.20330662184E+02  0.15410148543E+03  0.21422702474E+03  0.12509000000E+03 0.  0.
<mgrwt>
<rscale>  2 0.45878708E+03</rscale>
<asrwt>0</asrwt>
<pdfrwt beam="1">  1       21 0.67871587E-01 0.45878708E+03</pdfrwt>
<pdfrwt beam="2">  1       21 0.16767045E-01 0.45878708E+03</pdfrwt>
<totfact> 0.58439861E+04</totfact>
</mgrwt>
</event>
<event>
 7    0  0.4709932E-002  0.4497156E+03  0.7546771E-02  0.1027807E+00
         21   -1    0    0  502  501  0.00000000000E+00  0.00000000000E+00  0.11777365661E+03  0.11777365661E+03  0.00000000000E+00 0. -1.
         21   -1    0    0  501  502 -0.00000000000E+00 -0.00000000000E+00 -0.42930673027E+03  0.42930673027E+03  0.00000000000E+00 0. -1.
      99926    2    1    2    0    0 -0.14210854715E-13 -0.71054273576E-14 -0.31153307366E+03  0.54708038689E+03  0.44971556981E+03 0.  0.
      99925    2    3    3    0    0 -0.97470553573E+02 -0.44166193649E+02 -0.17667148913E+03  0.33427456799E+03  0.26282220275E+03 0.  0.
         25    1    4    4    0    0 -0.74539216329E+02 -0.22707487285E+02 -0.13181896769E+03  0.19772575222E+03  0.12509000000E+03 0.  0.
         25    1    4    4    0    0 -0.22931337245E+02 -0.21458706364E+02 -0.44852521441E+02  0.13654881576E+03  0.12509000000E+03 0.  0.
         25    1    3    3    0    0  0.97470553573E+02  0.44166193649E+02 -0.13486158453E+03  0.21280581890E+03  0.12509000000E+03 0.  0.
<mgrwt>
<rscale>  2 0.44971557E+03</rscale>
<asrwt>0</asrwt>
<pdfrwt beam="1">  1       21 0.17319655E-01 0.44971557E+03</pdfrwt>
<pdfrwt beam="2">  1       21 0.63133343E-01 0.44971557E+03</pdfrwt>
<totfact> 0.64723977E+04</totfact>
</mgrwt>
</event>
<event>
 7    0  0.4709932E-002  0.4484034E+03  0.7546771E-02  0.1028199E+00
         21   -1    0    0  502  501  0.00000000000E+00  0.00000000000E+00  0.50427609900E+02  0.50427609900E+02  0.00000000000E+00 0.  1.
         21   -1    0    0  501  502 -0.00000000000E+00 -0.00000000000E+00 -0.99680299458E+03  0.99680299458E+03  0.00000000000E+00 0.  1.
      99926    2    1    2    0    0 -0.44408920985E-15  0.00000000000E+00 -0.94637538468E+03  0.10472306045E+04  0.44840335663E+03 0.  0.
      99925    2    3    3    0    0  0.30783697548E+01 -0.96800773044E+02 -0.70430128325E+03  0.75804684853E+03  0.26308717369E+03 0.  0.
         25    1    3    3    0    0 -0.30783697548E+01  0.96800773044E+02 -0.24207410143E+03  0.28918375595E+03  0.12509000000E+03 0.  0.
         25    1    4    4    0    0  0.58548266871E+01 -0.91488678633E+02 -0.38441358009E+03  0.41451871607E+03  0.12509000000E+03 0.  0.
         25    1    4    4    0    0 -0.27764569323E+01 -0.53120944111E+01 -0.31988770316E+03  0.34352813246E+03  0.12509000000E+03 0.  0.
<mgrwt>
<rscale>  2 0.44840336E+03</rscale>
<asrwt>0</asrwt>
<pdfrwt beam="1">  1       21 0.74158252E-02 0.44840336E+03</pdfrwt>
<pdfrwt beam="2">  1       21 0.14658867E+00 0.44840336E+03</pdfrwt>
<totfact> 0.39367455E+04</totfact>
</mgrwt>
</event>
<event>
 6    0  0.4709932E-002  0.4445658E+03  0.7546771E-02  0.1029355E+00
         21   -1    0    0  502  501  0.00000000000E+00  0.00000000000E+00  0.39559664552E+02  0.39559664552E+02  0.00000000000E+00 0.  1.
         21   -1    0    0  501  502 -0.00000000000E+00 -0.00000000000E+00 -0.12489916964E+04  0.12489916964E+04  0.00000000000E+00 0.  1.
      99926    2    1    2    0    0 -0.24424906542E-14  0.71054273576E-14 -0.12094320319E+04  0.12885513610E+04  0.44456582208E+03 0.  0.
         25    1    3    3    0    0 -0.33797391750E+02  0.13443671821E+02 -0.39001984536E+03  0.41120066132E+03  0.12509000000E+03 0.  0.
         25    1    3    3    0    0  0.35235994521E+02  0.48062965057E+02 -0.61169860479E+03  0.62719559558E+03  0.12509000000E+03 0.  0.
         25    1    3    3    0    0 -0.14386027712E+01 -0.61506636878E+02 -0.20771358173E+03  0.25015510407E+03  0.12509000000E+03 0.  0.
<mgrwt>
<rscale>  2 0.44456582E+03</rscale>
<asrwt>0</asrwt>
<pdfrwt beam="1">  1       21 0.58175983E-02 0.44456582E+03</pdfrwt>
<pdfrwt beam="2">  1       21 0.18367523E+00 0.44456582E+03</pdfrwt>
<totfact> 0.31965535E+04</totfact>
</mgrwt>
</event>
<event>
 7    0  0.4709932E-002  0.4491709E+03  0.7546771E-02  0.1027970E+00
         21   -1    0    0  502  501  0.00000000000E+00  0.00000000000E+00  0.38648503645E+03  0.38648503645E+03  0.00000000000E+00 0.  1.
         21   -1    0    0  501  502 -0.00000000000E+00 -0.00000000000E+00 -0.13050599816E+03  0.13050599816E+03  0.00000000000E+00 0.  1.
      99926    2    1    2    0    0  0.00000000000E+00  0.00000000000E+00  0.25597903829E+03  0.51699103462E+03  0.44917086039E+03 0.  0.
      99925    2    3    3    0    0 -0.95179749529E+02  0.75750907512E+01  0.21925217216E+03  0.35539605476E+03  0.26290354509E+03 0.  0.
         25    1    4    4    0    0 -0.81592659645E+02 -0.15011781802E+02  0.98416237784E+02  0.17948810451E+03  0.12509000000E+03 0.  0.
         25    1    3    3    0    0  0.95179749529E+02 -0.75750907512E+01  0.36726866133E+02  0.16159497986E+03  0.12509000000E+03 0.  0.
         25    1    4    4    0    0 -0.13587089884E+02  0.22586872554E+02  0.12083593438E+03  0.17590795025E+03  0.12509000000E+03 0.  0.
<mgrwt>
<rscale>  2 0.44917086E+03</rscale>
<asrwt>0</asrwt>
<pdfrwt beam="1">  1       21 0.56836034E-01 0.44917086E+03</pdfrwt>
<pdfrwt beam="2">  1       21 0.19192059E-01 0.44917086E+03</pdfrwt>
<totfact> 0.67144599E+04</totfact>
</mgrwt>
</event>
<event>
 7    0  0.4709932E-002  0.4437783E+03  0.7546771E-02  0.1029594E+00
         21   -1    0    0  502  501  0.00000000000E+00  0.00000000000E+00  0.26573958862E+03  0.26573958862E+03  0.00000000000E+00 0.  1.
         21   -1    0    0  501  502 -0.00000000000E+00 -0.00000000000E+00 -0.18527459162E+03  0.18527459162E+03  0.00000000000E+00 0.  1.
      99926    2    1    2    0    0  0.00000000000E+00  0.00000000000E+00  0.80464996999E+02  0.45101418025E+03  0.44377829492E+03 0.  0.
      99925    2    3    3    0    0  0.63211657165E+02  0.46582259051E+02 -0.15479775749E+02  0.27489340357E+03  0.26298505549E+03 0.  0.
         25    1    4    4    0    0  0.64971042322E+02  0.39070889959E+02 -0.28051467492E+02  0.14893677756E+03  0.12509000000E+03 0.  0.
         25    1    4    4    0    0 -0.17593851577E+01  0.75113690918E+01  0.12571691744E+02  0.12595662601E+03  0.12509000000E+03 0.  0.
         25    1    3    3    0    0 -0.63211657165E+02 -0.46582259051E+02  0.95944772748E+02  0.17612077668E+03  0.12509000000E+03 0.  0.
<mgrwt>
<rscale>  2 0.44377829E+03</rscale>
<asrwt>0</asrwt>
<pdfrwt beam="1">  1       21 0.39079351E-01 0.44377829E+03</pdfrwt>
<pdfrwt beam="2">  1       21 0.27246263E-01 0.44377829E+03</pdfrwt>
<totfact> 0.75361476E+04</totfact>
</mgrwt>
</event>
<event>
 7    0  0.4709932E-002  0.4679611E+03  0.7546771E-02  0.1022497E+00
         21   -1    0    0  502  501  0.00000000000E+00  0.00000000000E+00  0.14280860074E+04  0.14280860074E+04  0.00000000000E+00 0. -1.
         21   -1    0    0  501  502 -0.00000000000E+00 -0.00000000000E+00 -0.38335850465E+02  0.38335850465E+02  0.00000000000E+00 0. -1.
      99926    2    1    2    0    0 -0.17763568394E-14 -0.14210854715E-13  0.13897501569E+04  0.14664218578E+04  0.46796107372E+03 0.  0.
      99925    2    3    3    0    0 -0.10797628964E+02 -0.12345634264E+03  0.81400859129E+03  0.86435548624E+03  0.26294935362E+03 0.  0.
         25    1    3    3    0    0  0.10797628964E+02  0.12345634264E+03  0.57574156562E+03  0.60206637160E+03  0.12509000000E+03 0.  0.
         25    1    4    4    0    0 -0.36214329011E+02 -0.34415394488E+02  0.39912961678E+03  0.42124560069E+03  0.12509000000E+03 0.  0.
         25    1    4    4    0    0  0.25416700047E+02 -0.89040948147E+02  0.41487897450E+03  0.44310988555E+03  0.12509000000E+03 0.  0.
<mgrwt>
<rscale>  2 0.46796107E+03</rscale>
<asrwt>0</asrwt>
<pdfrwt beam="1">  1       21 0.21001261E+00 0.46796107E+03</pdfrwt>
<pdfrwt beam="2">  1       21 0.56376260E-02 0.46796107E+03</pdfrwt>
<totfact> 0.22284481E+04</totfact>
</mgrwt>
</event>
<event>
 7    0  0.4709932E-002  0.4554063E+03  0.7546771E-02  0.1026122E+00
         21   -1    0    0  502  501  0.00000000000E+00  0.00000000000E+00  0.35037380909E+02  0.35037380909E+02  0.00000000000E+00 0. -1.
         21   -1    0    0  501  502 -0.00000000000E+00 -0.00000000000E+00 -0.14798117975E+04  0.14798117975E+04  0.00000000000E+00 0. -1.
      99926    2    1    2    0    0  0.00000000000E+00  0.00000000000E+00 -0.14447744166E+04  0.15148491785E+04  0.45540632242E+03 0.  0.
      99925    2    3    3    0    0 -0.13466434855E+02 -0.11272270114E+03 -0.89531572515E+03  0.94000997140E+03  0.26294628046E+03 0.  0.
         25    1    4    4    0    0  0.10931105366E+02 -0.38125172117E+02 -0.52934164492E+03  0.54536510977E+03  0.12509000000E+03 0.  0.
         25    1    3    3    0    0  0.13466434855E+02  0.11272270114E+03 -0.54945869149E+03  0.57483920706E+03  0.12509000000E+03 0.  0.
         25    1    4    4    0    0 -0.24397540221E+02 -0.74597529022E+02 -0.36597408023E+03  0.39464486163E+03  0.12509000000E+03 0.  0.
<mgrwt>
<rscale>  2 0.45540632E+03</rscale>
<asrwt>0</asrwt>
<pdfrwt beam="1">  1       21 0.51525546E-02 0.45540632E+03</pdfrwt>
<pdfrwt beam="2">  1       21 0.21761944E+00 0.45540632E+03</pdfrwt>
<totfact> 0.23343754E+04</totfact>
</mgrwt>
</event>
<event>
 7    0  0.4709932E-002  0.4457188E+03  0.7546771E-02  0.1029006E+00
         21   -1    0    0  502  501  0.00000000000E+00  0.00000000000E+00  0.27916451122E+02  0.27916451122E+02  0.00000000000E+00 0. -1.
         21   -1    0    0  501  502 -0.00000000000E+00 -0.00000000000E+00 -0.17791058962E+04  0.17791058962E+04  0.00000000000E+00 0. -1.
      99926    2    1    2    0    0 -0.71054273576E-14  0.00000000000E+00 -0.17511894451E+04  0.18070223473E+04  0.44571884767E+03 0.  0.
      99925    2    3    3    0    0 -0.63821513694E+02  0.71109709963E+02 -0.12813845444E+04  0.13115489078E+04  0.26283913424E+03 0.  0.
         25    1    4    4    0    0  0.87939005327E+01  0.40943733107E+02 -0.60734825412E+03  0.62150875445E+03  0.12509000000E+03 0.  0.
         25    1    3    3    0    0  0.63821513694E+02 -0.71109709963E+02 -0.46980490067E+03  0.49547343950E+03  0.12509000000E+03 0.  0.
         25    1    4    4    0    0 -0.72615414227E+02  0.30165976857E+02 -0.67403629032E+03  0.69004015340E+03  0.12509000000E+03 0.  0.
<mgrwt>
<rscale>  2 0.44571885E+03</rscale>
<asrwt>0</asrwt>
<pdfrwt beam="1">  1       21 0.41053607E-02 0.44571885E+03</pdfrwt>
<pdfrwt beam="2">  1       21 0.26163321E+00 0.44571885E+03</pdfrwt>
<totfact> 0.18416202E+04</totfact>
</mgrwt>
</event>
<event>
 7    0  0.4709932E-002  0.4503266E+03  0.7546771E-02  0.1027625E+00
         21   -1    0    0  502  501  0.00000000000E+00  0.00000000000E+00  0.66119021361E+02  0.66119021361E+02  0.00000000000E+00 0.  1.
         21   -1    0    0  501  502 -0.00000000000E+00 -0.00000000000E+00 -0.76677645717E+03  0.76677645717E+03  0.00000000000E+00 0.  1.
      99926    2    1    2    0    0  0.00000000000E+00  0.17763568394E-14 -0.70065743581E+03  0.83289547853E+03  0.45032658794E+03 0.  0.
      99925    2    3    3    0    0  0.59947455319E+02 -0.98046444673E+01 -0.60888292974E+03  0.66628246429E+03  0.26363624871E+03 0.  0.
         25    1    4    4    0    0  0.46332481493E+02  0.11245934268E+02 -0.39692714327E+03  0.41889358439E+03  0.12509000000E+03 0.  0.
         25    1    4    4    0    0  0.13614973826E+02 -0.21050578735E+02 -0.21195578648E+03  0.24738887990E+03  0.12509000000E+03 0.  0.
         25    1    3    3    0    0 -0.59947455319E+02  0.98046444673E+01 -0.91774506070E+02  0.16661301425E+03  0.12509000000E+03 0.  0.
<mgrwt>
<rscale>  2 0.45032659E+03</rscale>
<asrwt>0</asrwt>
<pdfrwt beam="1">  1       21 0.97233848E-02 0.45032659E+03</pdfrwt>
<pdfrwt beam="2">  1       21 0.11276125E+00 0.45032659E+03</pdfrwt>
<totfact> 0.47948574E+04</totfact>
</mgrwt>
</event>
<event>
 7    0  0.4709932E-002  0.4651149E+03  0.7546771E-02  0.1023308E+00
         21   -1    0    0  502  501  0.00000000000E+00  0.00000000000E+00  0.65059034011E+02  0.65059034011E+02  0.00000000000E+00 0. -1.
         21   -1    0    0  501  502 -0.00000000000E+00 -0.00000000000E+00 -0.83129075656E+03  0.83129075656E+03  0.00000000000E+00 0. -1.
      99926    2    1    2    0    0 -0.88817841970E-15  0.00000000000E+00 -0.76623172255E+03  0.89634979058E+03  0.46511492603E+03 0.  0.
      99925    2    3    3    0    0  0.19862867619E+01  0.12187993652E+03 -0.45586629027E+03  0.54021375769E+03  0.26297940059E+03 0.  0.
         25    1    3    3    0    0 -0.19862867619E+01 -0.12187993652E+03 -0.31036543229E+03  0.35613603289E+03  0.12509000000E+03 0.  0.
         25    1    4    4    0    0  0.36957468614E+02  0.42490346724E+02 -0.20113664124E+03  0.24346404376E+03  0.12509000000E+03 0.  0.
         25    1    4    4    0    0 -0.34971181852E+02  0.79389589796E+02 -0.25472964902E+03  0.29674971393E+03  0.12509000000E+03 0.  0.
<mgrwt>
<rscale>  2 0.46511493E+03</rscale>
<asrwt>0</asrwt>
<pdfrwt beam="1">  1       21 0.95675043E-02 0.46511493E+03</pdfrwt>
<pdfrwt beam="2">  1       21 0.12224865E+00 0.46511493E+03</pdfrwt>
<totfact> 0.40118832E+04</totfact>
</mgrwt>
</event>
<event>
 7    0  0.4709932E-002  0.4528875E+03  0.7546771E-02  0.1026864E+00
         21   -1    0    0  502  501  0.00000000000E+00  0.00000000000E+00  0.13502023385E+03  0.13502023385E+03  0.00000000000E+00 0.  1.
         21   -1    0    0  501  502 -0.00000000000E+00 -0.00000000000E+00 -0.37977102125E+03  0.37977102125E+03  0.00000000000E+00 0.  1.
      99926    2    1    2    0    0  0.00000000000E+00  0.00000000000E+00 -0.24475078740E+03  0.51479125510E+03  0.45288750081E+03 0.  0.
      99925    2    3    3    0    0  0.34164782267E+02  0.78179312637E+02 -0.73311474436E+02  0.28605957080E+03  0.26301381806E+03 0.  0.
         25    1    3    3    0    0 -0.34164782267E+02 -0.78179312637E+02 -0.17143931297E+03  0.22873168430E+03  0.12509000000E+03 0.  0.
         25    1    4    4    0    0  0.56118137941E+02  0.50567175060E+02 -0.31043769150E+02  0.14939045586E+03  0.12509000000E+03 0.  0.
         25    1    4    4    0    0 -0.21953355674E+02  0.27612137577E+02 -0.42267705286E+02  0.13666911493E+03  0.12509000000E+03 0.  0.
<mgrwt>
<rscale>  2 0.45288750E+03</rscale>
<asrwt>0</asrwt>
<pdfrwt beam="1">  1       21 0.19855917E-01 0.45288750E+03</pdfrwt>
<pdfrwt beam="2">  1       21 0.55848680E-01 0.45288750E+03</pdfrwt>
<totfact> 0.65331796E+04</totfact>
</mgrwt>
</event>
<event>
 7    0  0.4709932E-002  0.4429643E+03  0.7546771E-02  0.1029841E+00
         21   -1    0    0  502  501  0.00000000000E+00  0.00000000000E+00  0.30526498240E+03  0.30526498240E+03  0.00000000000E+00 0. -1.
         21   -1    0    0  501  502 -0.00000000000E+00 -0.00000000000E+00 -0.16069426491E+03  0.16069426491E+03  0.00000000000E+00 0. -1.
      99926    2    1    2    0    0  0.00000000000E+00  0.00000000000E+00  0.14457071749E+03  0.46595924730E+03  0.44296425115E+03 0.  0.
      99925    2    3    3    0    0  0.88094035867E+02  0.63062348941E+01  0.39298781189E+02  0.28013670716E+03  0.26292936835E+03 0.  0.
         25    1    4    4    0    0  0.19647189990E+02  0.36035462842E+02  0.21492950751E+02  0.13339423409E+03  0.12509000000E+03 0.  0.
         25    1    3    3    0    0 -0.88094035867E+02 -0.63062348941E+01  0.10527193630E+03  0.18582254014E+03  0.12509000000E+03 0.  0.
         25    1    4    4    0    0  0.68446845877E+02 -0.29729227948E+02  0.17805830438E+02  0.14674247307E+03  0.12509000000E+03 0.  0.
<mgrwt>
<rscale>  2 0.44296425E+03</rscale>
<asrwt>0</asrwt>
<pdfrwt beam="1">  1       21 0.44891909E-01 0.44296425E+03</pdfrwt>
<pdfrwt beam="2">  1       21 0.23631509E-01 0.44296425E+03</pdfrwt>
<totfact> 0.74612394E+04</totfact>
</mgrwt>
</event>
<event>
 6    0  0.4709932E-002  0.4527536E+03  0.7546771E-02  0.1026904E+00
         21   -1    0    0  502  501  0.00000000000E+00  0.00000000000E+00  0.47017125716E+03  0.47017125716E+03  0.00000000000E+00 0.  1.
         21   -1    0    0  501  502 -0.00000000000E+00 -0.00000000000E+00 -0.10899528781E+03  0.10899528781E+03  0.00000000000E+00 0.  1.
      99926    2    1    2    0    0  0.00000000000E+00  0.00000000000E+00  0.36117596934E+03  0.57916654497E+03  0.45275358196E+03 0.  0.
         25    1    3    3    0    0 -0.27898566491E+01  0.18412687428E+01  0.14492084004E+03  0.19146992336E+03  0.12509000000E+03 0.  0.
         25    1    3    3    0    0  0.81174352651E+02  0.53420092319E+02  0.71882868246E+02  0.17394722372E+03  0.12509000000E+03 0.  0.
         25    1    3    3    0    0 -0.78384496002E+02 -0.55261361062E+02  0.14437226105E+03  0.21374939790E+03  0.12509000000E+03 0.  0.
<mgrwt>
<rscale>  2 0.45275358E+03</rscale>
<asrwt>0</asrwt>
<pdfrwt beam="1">  1       21 0.69142831E-01 0.45275358E+03</pdfrwt>
<pdfrwt beam="2">  1       21 0.16028719E-01 0.45275358E+03</pdfrwt>
<totfact> 0.61056448E+04</totfact>
</mgrwt>
</event>
<event>
 7    0  0.4709932E-002  0.4409672E+03  0.7546771E-02  0.1030450E+00
         21   -1    0    0  502  501  0.00000000000E+00  0.00000000000E+00  0.69715498009E+03  0.69715498009E+03  0.00000000000E+00 0.  1.
         21   -1    0    0  501  502 -0.00000000000E+00 -0.00000000000E+00 -0.69730581839E+02  0.69730581839E+02  0.00000000000E+00 0.  1.
      99926    2    1    2    0    0  0.00000000000E+00  0.88817841970E-15  0.62742439825E+03  0.76688556193E+03  0.44096722052E+03 0.  0.
      99925    2    3    3    0    0 -0.73502674231E+02  0.43725572357E+01  0.51601094385E+03  0.58390406478E+03  0.26316325793E+03 0.  0.
         25    1    4    4    0    0 -0.66674183555E+02 -0.15548666954E+02  0.32123284125E+03  0.35146159704E+03  0.12509000000E+03 0.  0.
         25    1    3    3    0    0  0.73502674231E+02 -0.43725572357E+01  0.11141345440E+03  0.18298149715E+03  0.12509000000E+03 0.  0.
         25    1    4    4    0    0 -0.68284906763E+01  0.19921224189E+02  0.19477810260E+03  0.23244246774E+03  0.12509000000E+03 0.  0.
<mgrwt>
<rscale>  2 0.44096722E+03</rscale>
<asrwt>0</asrwt>
<pdfrwt beam="1">  1       21 0.10252279E+00 0.44096722E+03</pdfrwt>
<pdfrwt beam="2">  1       21 0.10254498E-01 0.44096722E+03</pdfrwt>
<totfact> 0.55247735E+04</totfact>
</mgrwt>
</event>
<event>
 7    0  0.4709932E-002  0.4589456E+03  0.7546771E-02  0.1025087E+00
         21   -1    0    0  502  501  0.00000000000E+00  0.00000000000E+00  0.85769071760E+03  0.85769071760E+03  0.00000000000E+00 0.  1.
         21   -1    0    0  501  502 -0.00000000000E+00 -0.00000000000E+00 -0.61394814218E+02  0.61394814218E+02  0.00000000000E+00 0.  1.
      99926    2    1    2    0    0  0.00000000000E+00 -0.71054273576E-14  0.79629590339E+03  0.91908553182E+03  0.45894558398E+03 0.  0.
      99925    2    3    3    0    0 -0.70360270582E+02 -0.40798824908E+02  0.33157618062E+03  0.43100045664E+03  0.26306561592E+03 0.  0.
         25    1    4    4    0    0 -0.11732918543E+02  0.15521180035E+01  0.19628164438E+03  0.23305377592E+03  0.12509000000E+03 0.  0.
         25    1    3    3    0    0  0.70360270582E+02  0.40798824908E+02  0.46471972276E+03  0.48808507518E+03  0.12509000000E+03 0.  0.
         25    1    4    4    0    0 -0.58627352039E+02 -0.42350942912E+02  0.13529453624E+03  0.19794668072E+03  0.12509000000E+03 0.  0.
<mgrwt>
<rscale>  2 0.45894558E+03</rscale>
<asrwt>0</asrwt>
<pdfrwt beam="1">  1       21 0.12613098E+00 0.45894558E+03</pdfrwt>
<pdfrwt beam="2">  1       21 0.90286497E-02 0.45894558E+03</pdfrwt>
<totfact> 0.41133760E+04</totfact>
</mgrwt>
</event>
<event>
 7    0  0.4709932E-002  0.3948622E+03  0.7546771E-02  0.1045573E+00
         21   -1    0    0  502  501  0.00000000000E+00  0.00000000000E+00  0.50989084584E+03  0.50989084584E+03  0.00000000000E+00 0. -1.
         21   -1    0    0  501  502 -0.00000000000E+00 -0.00000000000E+00 -0.76445856247E+02  0.76445856247E+02  0.00000000000E+00 0. -1.
      99926    2    1    2    0    0  0.00000000000E+00  0.19984014443E-14  0.43344498960E+03  0.58633670209E+03  0.39486221548E+03 0.  0.
      99925    2    3    3    0    0  0.26725176475E+02 -0.38437868866E+00  0.32249772021E+03  0.41701101742E+03  0.26301906073E+03 0.  0.
         25    1    4    4    0    0 -0.68158931706E+01 -0.33164655695E+02  0.13906358373E+03  0.19008561020E+03  0.12509000000E+03 0.  0.
         25    1    4    4    0    0  0.33541069646E+02  0.32780277006E+02  0.18343413649E+03  0.22692540722E+03  0.12509000000E+03 0.  0.
         25    1    3    3    0    0 -0.26725176475E+02  0.38437868866E+00  0.11094726938E+03  0.16932568467E+03  0.12509000000E+03 0.  0.
<mgrwt>
<rscale>  2 0.39486222E+03</rscale>
<asrwt>0</asrwt>
<pdfrwt beam="1">  1       21 0.74983946E-01 0.39486222E+03</pdfrwt>
<pdfrwt beam="2">  1       21 0.11242038E-01 0.39486222E+03</pdfrwt>
<totfact> 0.98716038E+04</totfact>
</mgrwt>
</event>
<event>
 7    0  0.4709932E-002  0.4581853E+03  0.7546771E-02  0.1025309E+00
         21   -1    0    0  502  501  0.00000000000E+00  0.00000000000E+00  0.11931019513E+04  0.11931019513E+04  0.00000000000E+00 0. -1.
         21   -1    0    0  501  502 -0.00000000000E+00 -0.00000000000E+00 -0.43989058967E+02  0.43989058967E+02  0.00000000000E+00 0. -1.
      99926    2    1    2    0    0  0.00000000000E+00  0.00000000000E+00  0.11491128924E+04  0.12370910103E+04  0.45818525551E+03 0.  0.
      99925    2    3    3    0    0  0.45562711436E+02 -0.83579022645E+02  0.90064753068E+03  0.94307747701E+03  0.26299760346E+03 0.  0.
         25    1    4    4    0    0  0.27018809385E+02 -0.11344499652E+02  0.32967169430E+03  0.35382149151E+03  0.12509000000E+03 0.  0.
         25    1    4    4    0    0  0.18543902051E+02 -0.72234522993E+02  0.57097583638E+03  0.58925598550E+03  0.12509000000E+03 0.  0.
         25    1    3    3    0    0 -0.45562711436E+02  0.83579022645E+02  0.24846536168E+03  0.29401353328E+03  0.12509000000E+03 0.  0.
<mgrwt>
<rscale>  2 0.45818526E+03</rscale>
<asrwt>0</asrwt>
<pdfrwt beam="1">  1       21 0.17545615E+00 0.45818526E+03</pdfrwt>
<pdfrwt beam="2">  1       21 0.64689800E-02 0.45818526E+03</pdfrwt>
<totfact> 0.30240922E+04</totfact>
</mgrwt>
</event>
<event>
 7    0  0.4709932E-002  0.4533892E+03  0.7546771E-02  0.1026716E+00
         21   -1    0    0  502  501  0.00000000000E+00  0.00000000000E+00  0.67793128696E+02  0.67793128696E+02  0.00000000000E+00 0.  1.
         21   -1    0    0  501  502 -0.00000000000E+00 -0.00000000000E+00 -0.75804782412E+03  0.75804782412E+03  0.00000000000E+00 0.  1.
      99926    2    1    2    0    0  0.00000000000E+00  0.14210854715E-13 -0.69025469542E+03  0.82584095281E+03  0.45338916484E+03 0.  0.
      99925    2    3    3    0    0  0.54173175250E+02 -0.66795139778E+02 -0.30490623002E+03  0.41167037020E+03  0.26288469141E+03 0.  0.
         25    1    4    4    0    0  0.35084929686E+02 -0.24680139365E+02 -0.94410012899E+02  0.16248329208E+03  0.12509000000E+03 0.  0.
         25    1    3    3    0    0 -0.54173175250E+02  0.66795139778E+02 -0.38534846541E+03  0.41417058262E+03  0.12509000000E+03 0.  0.
         25    1    4    4    0    0  0.19088245564E+02 -0.42115000413E+02 -0.21049621712E+03  0.24918707811E+03  0.12509000000E+03 0.  0.
<mgrwt>
<rscale>  2 0.45338916E+03</rscale>
<asrwt>0</asrwt>
<pdfrwt beam="1">  1       21 0.99695779E-02 0.45338916E+03</pdfrwt>
<pdfrwt beam="2">  1       21 0.11147762E+00 0.45338916E+03</pdfrwt>
<totfact> 0.47133085E+04</totfact>
</mgrwt>
</event>
<event>
 7    0  0.4709932E-002  0.5153418E+03  0.7546771E-02  0.1009850E+00
         21   -1    0    0  502  501  0.00000000000E+00  0.00000000000E+00  0.65331597944E+02  0.65331597944E+02  0.00000000000E+00 0. -1.
         21   -1    0    0  501  502 -0.00000000000E+00 -0.00000000000E+00 -0.10162660846E+04  0.10162660846E+04  0.00000000000E+00 0. -1.
      99926    2    1    2    0    0  0.00000000000E+00  0.00000000000E+00 -0.95093448669E+03  0.10815976826E+04  0.51534177880E+03 0.  0.
      99925    2    3    3    0    0 -0.15277797096E+03 -0.38500134070E+02 -0.66180945008E+03  0.72937025089E+03  0.26299400362E+03 0.  0.
         25    1    4    4    0    0 -0.10631290946E+03  0.74024101735E+01 -0.38706354857E+03  0.42050318563E+03  0.12509000000E+03 0.  0.
         25    1    4    4    0    0 -0.46465061505E+02 -0.45902544244E+02 -0.27474590151E+03  0.30886706526E+03  0.12509000000E+03 0.  0.
         25    1    3    3    0    0  0.15277797096E+03  0.38500134070E+02 -0.28912503661E+03  0.35222743168E+03  0.12509000000E+03 0.  0.
<mgrwt>
<rscale>  2 0.51534178E+03</rscale>
<asrwt>0</asrwt>
<pdfrwt beam="1">  1       21 0.96075891E-02 0.51534178E+03</pdfrwt>
<pdfrwt beam="2">  1       21 0.14945088E+00 0.51534178E+03</pdfrwt>
<totfact> 0.23157587E+04</totfact>
</mgrwt>
</event>
<event>
 7    0  0.4709932E-002  0.4592035E+03  0.7546771E-02  0.1025012E+00
         21   -1    0    0  502  501  0.00000000000E+00  0.00000000000E+00  0.91462985875E+02  0.91462985875E+02  0.00000000000E+00 0.  1.
         21   -1    0    0  501  502 -0.00000000000E+00 -0.00000000000E+00 -0.57637486534E+03  0.57637486534E+03  0.00000000000E+00 0.  1.
      99926    2    1    2    0    0  0.00000000000E+00  0.00000000000E+00 -0.48491187946E+03  0.66783785121E+03  0.45920351117E+03 0.  0.
      99925    2    3    3    0    0  0.12025301066E+02 -0.10952855930E+03 -0.24617132131E+03  0.37665805216E+03  0.26292557056E+03 0.  0.
         25    1    4    4    0    0  0.82991114212E+01 -0.64250645421E+02 -0.17839578842E+03  0.22730945012E+03  0.12509000000E+03 0.  0.
         25    1    4    4    0    0  0.37261896452E+01 -0.45277913876E+02 -0.67775532891E+02  0.14934860205E+03  0.12509000000E+03 0.  0.
         25    1    3    3    0    0 -0.12025301066E+02  0.10952855930E+03 -0.23874055816E+03  0.29117979905E+03  0.12509000000E+03 0.  0.
<mgrwt>
<rscale>  2 0.45920351E+03</rscale>
<asrwt>0</asrwt>
<pdfrwt beam="1">  1       21 0.13450440E-01 0.45920351E+03</pdfrwt>
<pdfrwt beam="2">  1       21 0.84761007E-01 0.45920351E+03</pdfrwt>
<totfact> 0.52908821E+04</totfact>
</mgrwt>
</event>
<event>
 7    0  0.4709932E-002  0.4578775E+03  0.7546771E-02  0.1025399E+00
         21   -1    0    0  502  501  0.00000000000E+00  0.00000000000E+00  0.11146767547E+04  0.11146767547E+04  0.00000000000E+00 0. -1.
         21   -1    0    0  501  502 -0.00000000000E+00 -0.00000000000E+00 -0.47020764112E+02  0.47020764112E+02  0.00000000000E+00 0. -1.
      99926    2    1    2    0    0  0.00000000000E+00  0.00000000000E+00  0.10676559906E+04  0.11616975188E+04  0.45787750652E+03 0.  0.
      99925    2    3    3    0    0  0.37177042963E+02 -0.10713595926E+03  0.72835457872E+03  0.78270780591E+03  0.26319359947E+03 0.  0.
         25    1    4    4    0    0  0.54970870212E+02 -0.37005596739E+02  0.38399217364E+03  0.40925384333E+03  0.12509000000E+03 0.  0.
         25    1    4    4    0    0 -0.17793827249E+02 -0.70130362526E+02  0.34436240508E+03  0.37345396259E+03  0.12509000000E+03 0.  0.
         25    1    3    3    0    0 -0.37177042963E+02  0.10713595926E+03  0.33930141189E+03  0.37898971293E+03  0.12509000000E+03 0.  0.
<mgrwt>
<rscale>  2 0.45787751E+03</rscale>
<asrwt>0</asrwt>
<pdfrwt beam="1">  1       21 0.16392303E+00 0.45787751E+03</pdfrwt>
<pdfrwt beam="2">  1       21 0.69148190E-02 0.45787751E+03</pdfrwt>
<totfact> 0.32655772E+04</totfact>
</mgrwt>
</event>
<event>
 7    0  0.4709932E-002  0.4481606E+03  0.7546771E-02  0.1028272E+00
         21   -1    0    0  502  501  0.00000000000E+00  0.00000000000E+00  0.39807638668E+03  0.39807638668E+03  0.00000000000E+00 0.  1.
         21   -1    0    0  501  502 -0.00000000000E+00 -0.00000000000E+00 -0.12613654595E+03  0.12613654595E+03  0.00000000000E+00 0.  1.
      99926    2    1    2    0    0  0.00000000000E+00  0.35527136788E-14  0.27193984073E+03  0.52421293263E+03  0.44816059818E+03 0.  0.
      99925    2    3    3    0    0  0.61304963621E+02  0.20005436945E+02  0.27150106656E+03  0.38347837150E+03  0.26302911663E+03 0.  0.
         25    1    4    4    0    0  0.48797065513E+02 -0.18669185719E+02  0.16944629800E+03  0.21700057167E+03  0.12509000000E+03 0.  0.
         25    1    4    4    0    0  0.12507898108E+02  0.38674622664E+02  0.10205476856E+03  0.16647779984E+03  0.12509000000E+03 0.  0.
         25    1    3    3    0    0 -0.61304963621E+02 -0.20005436945E+02  0.43877416860E+00  0.14073456112E+03  0.12509000000E+03 0.  0.
<mgrwt>
<rscale>  2 0.44816060E+03</rscale>
<asrwt>0</asrwt>
<pdfrwt beam="1">  1       21 0.58540645E-01 0.44816060E+03</pdfrwt>
<pdfrwt beam="2">  1       21 0.18549492E-01 0.44816060E+03</pdfrwt>
<totfact> 0.67167099E+04</totfact>
</mgrwt>
</event>
<event>
 7    0  0.4709932E-002  0.4527859E+03  0.7546771E-02  0.1026895E+00
         21   -1    0    0  502  501  0.00000000000E+00  0.00000000000E+00  0.13409214788E+03  0.13409214788E+03  0.00000000000E+00 0. -1.
         21   -1    0    0  501  502 -0.00000000000E+00 -0.00000000000E+00 -0.38222794587E+03  0.38222794587E+03  0.00000000000E+00 0. -1.
      99926    2    1    2    0    0  0.14210854715E-13  0.35527136788E-14 -0.24813579799E+03  0.51632009374E+03  0.45278589306E+03 0.  0.
      99925    2    3    3    0    0  0.88954717752E+02  0.26967003110E+02 -0.22447556185E+03  0.35868927207E+03  0.26387223227E+03 0.  0.
         25    1    3    3    0    0 -0.88954717752E+02 -0.26967003110E+02 -0.23660236137E+02  0.15763082167E+03  0.12509000000E+03 0.  0.
         25    1    4    4    0    0  0.47030761318E+02  0.16227820152E+02 -0.59517086025E+02  0.14719044224E+03  0.12509000000E+03 0.  0.
         25    1    4    4    0    0  0.41923956434E+02  0.10739182958E+02 -0.16495847583E+03  0.21149882983E+03  0.12509000000E+03 0.  0.
<mgrwt>
<rscale>  2 0.45278589E+03</rscale>
<asrwt>0</asrwt>
<pdfrwt beam="1">  1       21 0.19719433E-01 0.45278589E+03</pdfrwt>
<pdfrwt beam="2">  1       21 0.56209993E-01 0.45278589E+03</pdfrwt>
<totfact> 0.65277942E+04</totfact>
</mgrwt>
</event>
<event>
 7    0  0.5283343E-002  0.4076288E+03  0.7546771E-02  0.1041170E+00
         21   -1    0    0  502  501  0.00000000000E+00  0.00000000000E+00  0.13557065938E+03  0.13557065938E+03  0.00000000000E+00 0.  1.
         21   -1    0    0  501  502 -0.00000000000E+00 -0.00000000000E+00 -0.30641074477E+03  0.30641074477E+03  0.00000000000E+00 0.  1.
      99926    2    1    2    0    0  0.00000000000E+00  0.00000000000E+00 -0.17084008539E+03  0.44198140415E+03  0.40762878559E+03 0.  0.
      99925    2    3    3    0    0 -0.34688218979E+02  0.45491154084E+02 -0.12585722853E+03  0.29726207874E+03  0.26315771668E+03 0.  0.
         25    1    4    4    0    0  0.22142375032E+02  0.33551538280E+02 -0.60950593312E+02  0.14483947465E+03  0.12509000000E+03 0.  0.
         25    1    4    4    0    0 -0.56830594011E+02  0.11939615804E+02 -0.64906635216E+02  0.15242260409E+03  0.12509000000E+03 0.  0.
         25    1    3    3    0    0  0.34688218979E+02 -0.45491154084E+02 -0.44982856862E+02  0.14471932541E+03  0.12509000000E+03 0.  0.
<mgrwt>
<rscale>  2 0.40762879E+03</rscale>
<asrwt>0</asrwt>
<pdfrwt beam="1">  1       21 0.19936862E-01 0.40762879E+03</pdfrwt>
<pdfrwt beam="2">  1       21 0.45060404E-01 0.40762879E+03</pdfrwt>
<totfact> 0.10327304E+05</totfact>
</mgrwt>
</event>
<event>
 7    0  0.4709932E-002  0.4443207E+03  0.7546771E-02  0.1029429E+00
         21   -1    0    0  502  501  0.00000000000E+00  0.00000000000E+00  0.34905281927E+03  0.34905281927E+03  0.00000000000E+00 0. -1.
         21   -1    0    0  501  502 -0.00000000000E+00 -0.00000000000E+00 -0.14139758603E+03  0.14139758603E+03  0.00000000000E+00 0. -1.
      99926    2    1    2    0    0  0.00000000000E+00 -0.35527136788E-14  0.20765523324E+03  0.49045040530E+03  0.44432072219E+03 0.  0.
      99925    2    3    3    0    0 -0.14248811360E+02 -0.20235484865E+02  0.24235484207E+03  0.35829869542E+03  0.26273481343E+03 0.  0.
         25    1    4    4    0    0  0.11073450587E+02 -0.16507226369E+02  0.72950669334E+02  0.14616572131E+03  0.12509000000E+03 0.  0.
         25    1    4    4    0    0 -0.25322261948E+02 -0.37282584953E+01  0.16940417274E+03  0.21213297411E+03  0.12509000000E+03 0.  0.
         25    1    3    3    0    0  0.14248811360E+02  0.20235484865E+02 -0.34699608827E+02  0.13215170989E+03  0.12509000000E+03 0.  0.
<mgrwt>
<rscale>  2 0.44432072E+03</rscale>
<asrwt>0</asrwt>
<pdfrwt beam="1">  1       21 0.51331297E-01 0.44432072E+03</pdfrwt>
<pdfrwt beam="2">  1       21 0.20793763E-01 0.44432072E+03</pdfrwt>
<totfact> 0.71847362E+04</totfact>
</mgrwt>
</event>
<event>
 7    0  0.4709932E-002  0.4568219E+03  0.7546771E-02  0.1025707E+00
         21   -1    0    0  502  501  0.00000000000E+00  0.00000000000E+00  0.48328084861E+03  0.48328084861E+03  0.00000000000E+00 0.  1.
         21   -1    0    0  501  502 -0.00000000000E+00 -0.00000000000E+00 -0.10795287826E+03  0.10795287826E+03  0.00000000000E+00 0.  1.
      99926    2    1    2    0    0  0.00000000000E+00  0.00000000000E+00  0.37532797035E+03  0.59123372687E+03  0.45682188483E+03 0.  0.
      99925    2    3    3    0    0 -0.64147136079E+02  0.86466539258E+02  0.18362059374E+03  0.33827020415E+03  0.26290471866E+03 0.  0.
         25    1    3    3    0    0  0.64147136079E+02 -0.86466539258E+02  0.19170737661E+03  0.25296352271E+03  0.12509000000E+03 0.  0.
         25    1    4    4    0    0 -0.26446027568E+02  0.79871062002E+02  0.75735451146E+02  0.16870727779E+03  0.12509000000E+03 0.  0.
         25    1    4    4    0    0 -0.37701108512E+02  0.65954772564E+01  0.10788514260E+03  0.16956292636E+03  0.12509000000E+03 0.  0.
<mgrwt>
<rscale>  2 0.45682188E+03</rscale>
<asrwt>0</asrwt>
<pdfrwt beam="1">  1       21 0.71070712E-01 0.45682188E+03</pdfrwt>
<pdfrwt beam="2">  1       21 0.15875424E-01 0.45682188E+03</pdfrwt>
<totfact> 0.58376020E+04</totfact>
</mgrwt>
</event>
<event>
 7    0  0.4709932E-002  0.4530668E+03  0.7546771E-02  0.1026811E+00
         21   -1    0    0  502  501  0.00000000000E+00  0.00000000000E+00  0.19386903187E+04  0.19386903187E+04  0.00000000000E+00 0.  1.
         21   -1    0    0  501  502 -0.00000000000E+00 -0.00000000000E+00 -0.26470124791E+02  0.26470124791E+02  0.00000000000E+00 0.  1.
      99926    2    1    2    0    0  0.00000000000E+00 -0.71054273576E-14  0.19122201939E+04  0.19651604435E+04  0.45306677065E+03 0.  0.
      99925    2    3    3    0    0  0.48811583669E+02 -0.17221939562E+02  0.77796281235E+03  0.82285291851E+03  0.26302399548E+03 0.  0.
         25    1    4    4    0    0  0.27496736176E+02 -0.43194624026E+02  0.33194251159E+03  0.35840645243E+03  0.12509000000E+03 0.  0.
         25    1    3    3    0    0 -0.48811583669E+02  0.17221939562E+02  0.11342573816E+04  0.11423075250E+04  0.12509000000E+03 0.  0.
         25    1    4    4    0    0  0.21314847493E+02  0.25972684465E+02  0.44602030076E+03  0.46444646608E+03  0.12509000000E+03 0.  0.
<mgrwt>
<rscale>  2 0.45306677E+03</rscale>
<asrwt>0</asrwt>
<pdfrwt beam="1">  1       21 0.28510142E+00 0.45306677E+03</pdfrwt>
<pdfrwt beam="2">  1       21 0.38926667E-02 0.45306677E+03</pdfrwt>
<totfact> 0.14503537E+04</totfact>
</mgrwt>
</event>
<event>
 7    0  0.4709932E-002  0.4511618E+03  0.7546771E-02  0.1027376E+00
         21   -1    0    0  502  501  0.00000000000E+00  0.00000000000E+00  0.50243077343E+03  0.50243077343E+03  0.00000000000E+00 0.  1.
         21   -1    0    0  501  502 -0.00000000000E+00 -0.00000000000E+00 -0.10128109085E+03  0.10128109085E+03  0.00000000000E+00 0.  1.
      99926    2    1    2    0    0 -0.71054273576E-14  0.00000000000E+00  0.40114968258E+03  0.60371186428E+03  0.45116177502E+03 0.  0.
      99925    2    3    3    0    0  0.51085326044E+02  0.78665779515E+02  0.32907958349E+03  0.43155024635E+03  0.26295289969E+03 0.  0.
         25    1    4    4    0    0  0.37416634240E+02  0.55864257108E+02  0.11748458689E+03  0.18431211571E+03  0.12509000000E+03 0.  0.
         25    1    4    4    0    0  0.13668691804E+02  0.22801522407E+02  0.21159499660E+03  0.24723813065E+03  0.12509000000E+03 0.  0.
         25    1    3    3    0    0 -0.51085326044E+02 -0.78665779515E+02  0.72070099095E+02  0.17216161793E+03  0.12509000000E+03 0.  0.
<mgrwt>
<rscale>  2 0.45116178E+03</rscale>
<asrwt>0</asrwt>
<pdfrwt beam="1">  1       21 0.73886877E-01 0.45116178E+03</pdfrwt>
<pdfrwt beam="2">  1       21 0.14894278E-01 0.45116178E+03</pdfrwt>
<totfact> 0.60256856E+04</totfact>
</mgrwt>
</event>
<event>
 7    0  0.4709932E-002  0.4409766E+03  0.7546771E-02  0.1030448E+00
         21   -1    0    0  502  501  0.00000000000E+00  0.00000000000E+00  0.30589811432E+03  0.30589811432E+03  0.00000000000E+00 0.  1.
         21   -1    0    0  501  502 -0.00000000000E+00 -0.00000000000E+00 -0.15892574335E+03  0.15892574335E+03  0.00000000000E+00 0.  1.
      99926    2    1    2    0    0  0.35527136788E-14  0.00000000000E+00  0.14697237097E+03  0.46482385767E+03  0.44097657629E+03 0.  0.
      99925    2    3    3    0    0 -0.22227000162E+02 -0.50227485930E+02  0.18034538557E+03  0.32418920304E+03  0.26373725826E+03 0.  0.
         25    1    4    4    0    0 -0.34741697464E+02 -0.39933741289E+02  0.13111695997E+03  0.18878785588E+03  0.12509000000E+03 0.  0.
         25    1    3    3    0    0  0.22227000162E+02  0.50227485930E+02 -0.33373014602E+02  0.14063465463E+03  0.12509000000E+03 0.  0.
         25    1    4    4    0    0  0.12514697302E+02 -0.10293744641E+02  0.49228425600E+02  0.13540134717E+03  0.12509000000E+03 0.  0.
<mgrwt>
<rscale>  2 0.44097658E+03</rscale>
<asrwt>0</asrwt>
<pdfrwt beam="1">  1       21 0.44985017E-01 0.44097658E+03</pdfrwt>
<pdfrwt beam="2">  1       21 0.23371433E-01 0.44097658E+03</pdfrwt>
<totfact> 0.75925924E+04</totfact>
</mgrwt>
</event>
<event>
 7    0  0.4709932E-002  0.4607842E+03  0.7546771E-02  0.1024554E+00
         21   -1    0    0  502  501  0.00000000000E+00  0.00000000000E+00  0.95799525859E+02  0.95799525859E+02  0.00000000000E+00 0.  1.
         21   -1    0    0  501  502 -0.00000000000E+00 -0.00000000000E+00 -0.55407920482E+03  0.55407920482E+03  0.00000000000E+00 0.  1.
      99926    2    1    2    0    0  0.00000000000E+00  0.71054273576E-14 -0.45827967896E+03  0.64987873068E+03  0.46078422330E+03 0.  0.
      99925    2    3    3    0    0  0.10642345122E+03 -0.38351852092E+02 -0.33670586852E+03  0.44197366818E+03  0.26300772980E+03 0.  0.
         25    1    4    4    0    0  0.80421869213E+02 -0.52467722059E+02 -0.18075336990E+03  0.23987460836E+03  0.12509000000E+03 0.  0.
         25    1    4    4    0    0  0.26001582011E+02  0.14115869967E+02 -0.15595249862E+03  0.20209905982E+03  0.12509000000E+03 0.  0.
         25    1    3    3    0    0 -0.10642345122E+03  0.38351852092E+02 -0.12157381044E+03  0.20790506250E+03  0.12509000000E+03 0.  0.
<mgrwt>
<rscale>  2 0.46078422E+03</rscale>
<asrwt>0</asrwt>
<pdfrwt beam="1">  1       21 0.14088166E-01 0.46078422E+03</pdfrwt>
<pdfrwt beam="2">  1       21 0.81482236E-01 0.46078422E+03</pdfrwt>
<totfact> 0.53237143E+04</totfact>
</mgrwt>
</event>
<event>
 7    0  0.4709932E-002  0.4537210E+03  0.7546771E-02  0.1026618E+00
         21   -1    0    0  502  501  0.00000000000E+00  0.00000000000E+00  0.20542892698E+04  0.20542892698E+04  0.00000000000E+00 0.  1.
         21   -1    0    0  501  502 -0.00000000000E+00 -0.00000000000E+00 -0.25052796018E+02  0.25052796018E+02  0.00000000000E+00 0.  1.
      99926    2    1    2    0    0  0.14210854715E-13 -0.35527136788E-14  0.20292364738E+04  0.20793420658E+04  0.45372101577E+03 0.  0.
      99925    2    3    3    0    0 -0.10634483852E+03  0.30637978432E+02  0.13426932408E+04  0.13727749924E+04  0.26351115808E+03 0.  0.
         25    1    4    4    0    0 -0.70700374382E+02  0.43721490200E+02  0.59015656432E+03  0.60896829980E+03  0.12509000000E+03 0.  0.
         25    1    4    4    0    0 -0.35644464137E+02 -0.13083511768E+02  0.75253667647E+03  0.76380669259E+03  0.12509000000E+03 0.  0.
         25    1    3    3    0    0  0.10634483852E+03 -0.30637978432E+02  0.68654323298E+03  0.70656707343E+03  0.12509000000E+03 0.  0.
<mgrwt>
<rscale>  2 0.45372102E+03</rscale>
<asrwt>0</asrwt>
<pdfrwt beam="1">  1       21 0.30210125E+00 0.45372102E+03</pdfrwt>
<pdfrwt beam="2">  1       21 0.36842361E-02 0.45372102E+03</pdfrwt>
<totfact> 0.12581961E+04</totfact>
</mgrwt>
</event>
<event>
 7    0  0.4709932E-002  0.4587714E+03  0.7546771E-02  0.1025138E+00
         21   -1    0    0  502  501  0.00000000000E+00  0.00000000000E+00  0.15953345808E+03  0.15953345808E+03  0.00000000000E+00 0.  1.
         21   -1    0    0  501  502 -0.00000000000E+00 -0.00000000000E+00 -0.32982291529E+03  0.32982291529E+03  0.00000000000E+00 0.  1.
      99926    2    1    2    0    0  0.00000000000E+00  0.00000000000E+00 -0.17028945721E+03  0.48935637338E+03  0.45877136019E+03 0.  0.
      99925    2    3    3    0    0 -0.83118378097E+02 -0.81489286087E+02 -0.11386641793E+03  0.30941128179E+03  0.26309810270E+03 0.  0.
         25    1    3    3    0    0  0.83118378097E+02  0.81489286087E+02 -0.56423039284E+02  0.17994509159E+03  0.12509000000E+03 0.  0.
         25    1    4    4    0    0 -0.33871248641E+02 -0.45196750493E+02 -0.99297646159E+02  0.16940347804E+03  0.12509000000E+03 0.  0.
         25    1    4    4    0    0 -0.49247129456E+02 -0.36292535594E+02 -0.14568771769E+02  0.14000780375E+03  0.12509000000E+03 0.  0.
<mgrwt>
<rscale>  2 0.45877136E+03</rscale>
<asrwt>0</asrwt>
<pdfrwt beam="1">  1       21 0.23460803E-01 0.45877136E+03</pdfrwt>
<pdfrwt beam="2">  1       21 0.48503369E-01 0.45877136E+03</pdfrwt>
<totfact> 0.64084833E+04</totfact>
</mgrwt>
</event>
<event>
 7    0  0.4709932E-002  0.4566964E+03  0.7546771E-02  0.1025744E+00
         21   -1    0    0  502  501  0.00000000000E+00  0.00000000000E+00  0.99313992375E+03  0.99313992375E+03  0.00000000000E+00 0.  1.
         21   -1    0    0  501  502 -0.00000000000E+00 -0.00000000000E+00 -0.52503065513E+02  0.52503065513E+02  0.00000000000E+00 0.  1.
      99926    2    1    2    0    0  0.00000000000E+00  0.14210854715E-13  0.94063685823E+03  0.10456429893E+04  0.45669635637E+03 0.  0.
      99925    2    3    3    0    0  0.54589996804E+02  0.93554358434E+02  0.67745387250E+03  0.73476475295E+03  0.26306464429E+03 0.  0.
         25    1    3    3    0    0 -0.54589996804E+02 -0.93554358434E+02  0.26318298573E+03  0.31087823631E+03  0.12509000000E+03 0.  0.
         25    1    4    4    0    0  0.28804094847E+02  0.47510804323E+01  0.28523249853E+03  0.31282157049E+03  0.12509000000E+03 0.  0.
         25    1    4    4    0    0  0.25785901957E+02  0.88803278002E+02  0.39222137397E+03  0.42194318246E+03  0.12509000000E+03 0.  0.
<mgrwt>
<rscale>  2 0.45669636E+03</rscale>
<asrwt>0</asrwt>
<pdfrwt beam="1">  1       21 0.14604998E+00 0.45669636E+03</pdfrwt>
<pdfrwt beam="2">  1       21 0.77210397E-02 0.45669636E+03</pdfrwt>
<totfact> 0.36946033E+04</totfact>
</mgrwt>
</event>
<event>
 7    0  0.4709932E-002  0.4719642E+03  0.7546771E-02  0.1021367E+00
         21   -1    0    0  502  501  0.00000000000E+00  0.00000000000E+00  0.34384197909E+02  0.34384197909E+02  0.00000000000E+00 0. -1.
         21   -1    0    0  501  502 -0.00000000000E+00 -0.00000000000E+00 -0.16195680332E+04  0.16195680332E+04  0.00000000000E+00 0. -1.
      99926    2    1    2    0    0 -0.71054273576E-14  0.00000000000E+00 -0.15851838353E+04  0.16539522311E+04  0.47196418415E+03 0.  0.
      99925    2    3    3    0    0  0.44393310129E+02 -0.99472779602E+02 -0.74286913823E+03  0.79546102158E+03  0.26275098561E+03 0.  0.
         25    1    4    4    0    0  0.42362831221E+02 -0.14835894112E+02 -0.37106522866E+03  0.39414670523E+03  0.12509000000E+03 0.  0.
         25    1    3    3    0    0 -0.44393310129E+02  0.99472779602E+02 -0.84231469709E+03  0.85849120957E+03  0.12509000000E+03 0.  0.
         25    1    4    4    0    0  0.20304789082E+01 -0.84636885490E+02 -0.37180390957E+03  0.40131431634E+03  0.12509000000E+03 0.  0.
<mgrwt>
<rscale>  2 0.47196418E+03</rscale>
<asrwt>0</asrwt>
<pdfrwt beam="1">  1       21 0.50564991E-02 0.47196418E+03</pdfrwt>
<pdfrwt beam="2">  1       21 0.23817180E+00 0.47196418E+03</pdfrwt>
<totfact> 0.17778160E+04</totfact>
</mgrwt>
</event>
<event>
 7    0  0.4709932E-002  0.4560644E+03  0.7546771E-02  0.1025929E+00
         21   -1    0    0  502  501  0.00000000000E+00  0.00000000000E+00  0.35504216588E+03  0.35504216588E+03  0.00000000000E+00 0. -1.
         21   -1    0    0  501  502 -0.00000000000E+00 -0.00000000000E+00 -0.14645776642E+03  0.14645776642E+03  0.00000000000E+00 0. -1.
      99926    2    1    2    0    0  0.00000000000E+00  0.00000000000E+00  0.20858439946E+03  0.50149993229E+03  0.45606439281E+03 0.  0.
      99925    2    3    3    0    0 -0.69073541905E+02 -0.73369004019E+02  0.19000021653E+03  0.33979945333E+03  0.26307683528E+03 0.  0.
         25    1    4    4    0    0 -0.12800431782E+02 -0.63612696779E+02  0.12200765690E+03  0.18639689560E+03  0.12509000000E+03 0.  0.
         25    1    4    4    0    0 -0.56273110124E+02 -0.97563072395E+01  0.67992559628E+02  0.15340255773E+03  0.12509000000E+03 0.  0.
         25    1    3    3    0    0  0.69073541905E+02  0.73369004019E+02  0.18584182931E+02  0.16170047896E+03  0.12509000000E+03 0.  0.
<mgrwt>
<rscale>  2 0.45606439E+03</rscale>
<asrwt>0</asrwt>
<pdfrwt beam="1">  1       21 0.52212083E-01 0.45606439E+03</pdfrwt>
<pdfrwt beam="2">  1       21 0.21537907E-01 0.45606439E+03</pdfrwt>
<totfact> 0.64617727E+04</totfact>
</mgrwt>
</event>
<event>
 7    0  0.4709932E-002  0.4544129E+03  0.7546771E-02  0.1026414E+00
         21   -1    0    0  502  501  0.00000000000E+00  0.00000000000E+00  0.10177238547E+04  0.10177238547E+04  0.00000000000E+00 0. -1.
         21   -1    0    0  501  502 -0.00000000000E+00 -0.00000000000E+00 -0.50723755505E+02  0.50723755505E+02  0.00000000000E+00 0. -1.
      99926    2    1    2    0    0 -0.35527136788E-14  0.00000000000E+00  0.96700009917E+03  0.10684476102E+04  0.45441292225E+03 0.  0.
      99925    2    3    3    0    0  0.12545159547E+02  0.11177262281E+03  0.59815779960E+03  0.66305563901E+03  0.26305802965E+03 0.  0.
         25    1    4    4    0    0  0.35110792435E+02  0.78862294239E+02  0.27427084722E+03  0.31356663555E+03  0.12509000000E+03 0.  0.
         25    1    3    3    0    0 -0.12545159547E+02 -0.11177262281E+03  0.36884229957E+03  0.40539197117E+03  0.12509000000E+03 0.  0.
         25    1    4    4    0    0 -0.22565632888E+02  0.32910328570E+02  0.32388695238E+03  0.34948900346E+03  0.12509000000E+03 0.  0.
<mgrwt>
<rscale>  2 0.45441292E+03</rscale>
<asrwt>0</asrwt>
<pdfrwt beam="1">  1       21 0.14966526E+00 0.45441292E+03</pdfrwt>
<pdfrwt beam="2">  1       21 0.74593764E-02 0.45441292E+03</pdfrwt>
<totfact> 0.36775892E+04</totfact>
</mgrwt>
</event>
<event>
 7    0  0.4709932E-002  0.4607932E+03  0.7546771E-02  0.1024551E+00
         21   -1    0    0  502  501  0.00000000000E+00  0.00000000000E+00  0.78356648034E+02  0.78356648034E+02  0.00000000000E+00 0.  1.
         21   -1    0    0  501  502 -0.00000000000E+00 -0.00000000000E+00 -0.67744845824E+03  0.67744845824E+03  0.00000000000E+00 0.  1.
      99926    2    1    2    0    0  0.00000000000E+00 -0.14210854715E-13 -0.59909181021E+03  0.75580510628E+03  0.46079318747E+03 0.  0.
      99925    2    3    3    0    0  0.58208883886E+02  0.10069127249E+03 -0.41187753784E+03  0.50238115635E+03  0.26309069455E+03 0.  0.
         25    1    4    4    0    0  0.27862916381E+02  0.60260408751E+02 -0.27968805967E+03  0.31349733299E+03  0.12509000000E+03 0.  0.
         25    1    4    4    0    0  0.30345967505E+02  0.40430863739E+02 -0.13218947817E+03  0.18888382335E+03  0.12509000000E+03 0.  0.
         25    1    3    3    0    0 -0.58208883886E+02 -0.10069127249E+03 -0.18721427237E+03  0.25342394993E+03  0.12509000000E+03 0.  0.
<mgrwt>
<rscale>  2 0.46079319E+03</rscale>
<asrwt>0</asrwt>
<pdfrwt beam="1">  1       21 0.11523036E-01 0.46079319E+03</pdfrwt>
<pdfrwt beam="2">  1       21 0.99624776E-01 0.46079319E+03</pdfrwt>
<totfact> 0.47763796E+04</totfact>
</mgrwt>
</event>
<event>
 7    0  0.4709932E-002  0.4645804E+03  0.7546771E-02  0.1023461E+00
         21   -1    0    0  502  501  0.00000000000E+00  0.00000000000E+00  0.32862845271E+02  0.32862845271E+02  0.00000000000E+00 0.  1.
         21   -1    0    0  501  502 -0.00000000000E+00 -0.00000000000E+00 -0.16419374538E+04  0.16419374538E+04  0.00000000000E+00 0.  1.
      99926    2    1    2    0    0  0.00000000000E+00  0.00000000000E+00 -0.16090746085E+04  0.16748002991E+04  0.46458039773E+03 0.  0.
      99925    2    3    3    0    0 -0.75440958502E+02 -0.23068349768E+02 -0.66902529168E+03  0.72318918460E+03  0.26302902659E+03 0.  0.
         25    1    3    3    0    0  0.75440958502E+02  0.23068349768E+02 -0.94004931683E+03  0.95161111446E+03  0.12509000000E+03 0.  0.
         25    1    4    4    0    0 -0.40708327414E+02 -0.94549476702E-01 -0.23187538297E+03  0.26659121926E+03  0.12509000000E+03 0.  0.
         25    1    4    4    0    0 -0.34732631088E+02 -0.22973800291E+02 -0.43714990872E+03  0.45659796534E+03  0.12509000000E+03 0.  0.
<mgrwt>
<rscale>  2 0.46458040E+03</rscale>
<asrwt>0</asrwt>
<pdfrwt beam="1">  1       21 0.48327703E-02 0.46458040E+03</pdfrwt>
<pdfrwt beam="2">  1       21 0.24146145E+00 0.46458040E+03</pdfrwt>
<totfact> 0.18385070E+04</totfact>
</mgrwt>
</event>
<event>
 7    0  0.4709932E-002  0.4524825E+03  0.7546771E-02  0.1026984E+00
         21   -1    0    0  502  501  0.00000000000E+00  0.00000000000E+00  0.10691701414E+03  0.10691701414E+03  0.00000000000E+00 0. -1.
         21   -1    0    0  501  502 -0.00000000000E+00 -0.00000000000E+00 -0.47873678810E+03  0.47873678810E+03  0.00000000000E+00 0. -1.
      99926    2    1    2    0    0  0.00000000000E+00  0.00000000000E+00 -0.37181977396E+03  0.58565380224E+03  0.45248252096E+03 0.  0.
      99925    2    3    3    0    0  0.35380585070E+02 -0.52829469942E+02 -0.11700636372E+03  0.29475842443E+03  0.26296254663E+03 0.  0.
         25    1    4    4    0    0  0.55888741885E+02 -0.12775477101E+02 -0.59864782649E+02  0.15006020321E+03  0.12509000000E+03 0.  0.
         25    1    3    3    0    0 -0.35380585070E+02  0.52829469942E+02 -0.25481341024E+03  0.29089537781E+03  0.12509000000E+03 0.  0.
         25    1    4    4    0    0 -0.20508156815E+02 -0.40053992842E+02 -0.57141581069E+02  0.14469822122E+03  0.12509000000E+03 0.  0.
<mgrwt>
<rscale>  2 0.45248252E+03</rscale>
<asrwt>0</asrwt>
<pdfrwt beam="1">  1       21 0.15723090E-01 0.45248252E+03</pdfrwt>
<pdfrwt beam="2">  1       21 0.70402469E-01 0.45248252E+03</pdfrwt>
<totfact> 0.60770398E+04</totfact>
</mgrwt>
</event>
<event>
 7    0  0.4709932E-002  0.4463370E+03  0.7546771E-02  0.1028820E+00
         21   -1    0    0  502  501  0.00000000000E+00  0.00000000000E+00  0.92251733915E+02  0.92251733915E+02  0.00000000000E+00 0. -1.
         21   -1    0    0  501  502 -0.00000000000E+00 -0.00000000000E+00 -0.53987246510E+03  0.53987246510E+03  0.00000000000E+00 0. -1.
      99926    2    1    2    0    0  0.00000000000E+00  0.35527136788E-14 -0.44762073118E+03  0.63212419901E+03  0.44633696239E+03 0.  0.
      99925    2    3    3    0    0 -0.39564788979E+02  0.23101654661E+02 -0.15064029262E+03  0.30663387970E+03  0.26312122576E+03 0.  0.
         25    1    4    4    0    0 -0.14905099339E+02  0.51852882346E+02 -0.82049094109E+02  0.15902969955E+03  0.12509000000E+03 0.  0.
         25    1    3    3    0    0  0.39564788979E+02 -0.23101654661E+02 -0.29698043856E+03  0.32549031931E+03  0.12509000000E+03 0.  0.
         25    1    4    4    0    0 -0.24659689640E+02 -0.28751227685E+02 -0.68591198512E+02  0.14760418016E+03  0.12509000000E+03 0.  0.
<mgrwt>
<rscale>  2 0.44633696E+03</rscale>
<asrwt>0</asrwt>
<pdfrwt beam="1">  1       21 0.13566431E-01 0.44633696E+03</pdfrwt>
<pdfrwt beam="2">  1       21 0.79393009E-01 0.44633696E+03</pdfrwt>
<totfact> 0.60794824E+04</totfact>
</mgrwt>
</event>
<event>
 7    0  0.4709932E-002  0.4555094E+03  0.7546771E-02  0.1026092E+00
         21   -1    0    0  502  501  0.00000000000E+00  0.00000000000E+00  0.14034481436E+04  0.14034481436E+04  0.00000000000E+00 0.  1.
         21   -1    0    0  501  502 -0.00000000000E+00 -0.00000000000E+00 -0.36960540953E+02  0.36960540953E+02  0.00000000000E+00 0.  1.
      99926    2    1    2    0    0  0.00000000000E+00  0.00000000000E+00  0.13664876027E+04  0.14404086846E+04  0.45550939656E+03 0.  0.
      99925    2    3    3    0    0 -0.19977507076E+02  0.10176595598E+03  0.71447006492E+03  0.76844902193E+03  0.26323186558E+03 0.  0.
         25    1    4    4    0    0 -0.29784361440E+02  0.29792649134E+02  0.26117891327E+03  0.29263739160E+03  0.12509000000E+03 0.  0.
         25    1    3    3    0    0  0.19977507076E+02 -0.10176595598E+03  0.65201753774E+03  0.67195966263E+03  0.12509000000E+03 0.  0.
         25    1    4    4    0    0  0.98068543647E+01  0.71973306845E+02  0.45329115165E+03  0.47581163033E+03  0.12509000000E+03 0.  0.
<mgrwt>
<rscale>  2 0.45550940E+03</rscale>
<asrwt>0</asrwt>
<pdfrwt beam="1">  1       21 0.20638940E+00 0.45550940E+03</pdfrwt>
<pdfrwt beam="2">  1       21 0.54353746E-02 0.45550940E+03</pdfrwt>
<totfact> 0.25175029E+04</totfact>
</mgrwt>
</event>
<event>
 7    0  0.4709932E-002  0.4542446E+03  0.7546771E-02  0.1026464E+00
         21   -1    0    0  502  501  0.00000000000E+00  0.00000000000E+00  0.27182730384E+03  0.27182730384E+03  0.00000000000E+00 0.  1.
         21   -1    0    0  501  502 -0.00000000000E+00 -0.00000000000E+00 -0.18976955762E+03  0.18976955762E+03  0.00000000000E+00 0.  1.
      99926    2    1    2    0    0 -0.35527136788E-14  0.00000000000E+00  0.82057746223E+02  0.46159686146E+03  0.45424463540E+03 0.  0.
      99925    2    3    3    0    0 -0.29784421417E+02  0.97613212234E+02  0.36728695795E+01  0.28213336113E+03  0.26300245727E+03 0.  0.
         25    1    4    4    0    0 -0.30802317168E+02  0.16864049671E+02  0.23151129123E+02  0.13197220084E+03  0.12509000000E+03 0.  0.
         25    1    4    4    0    0  0.10178957511E+01  0.80749162562E+02 -0.19478259543E+02  0.15016116030E+03  0.12509000000E+03 0.  0.
         25    1    3    3    0    0  0.29784421417E+02 -0.97613212234E+02  0.78384876643E+02  0.17946350032E+03  0.12509000000E+03 0.  0.
<mgrwt>
<rscale>  2 0.45424464E+03</rscale>
<asrwt>0</asrwt>
<pdfrwt beam="1">  1       21 0.39974604E-01 0.45424464E+03</pdfrwt>
<pdfrwt beam="2">  1       21 0.27907288E-01 0.45424464E+03</pdfrwt>
<totfact> 0.68473730E+04</totfact>
</mgrwt>
</event>
<event>
 7    0  0.4709932E-002  0.4534414E+03  0.7546771E-02  0.1026701E+00
         21   -1    0    0  502  501  0.00000000000E+00  0.00000000000E+00  0.77799057072E+02  0.77799057072E+02  0.00000000000E+00 0.  1.
         21   -1    0    0  501  502 -0.00000000000E+00 -0.00000000000E+00 -0.66070560567E+03  0.66070560567E+03  0.00000000000E+00 0.  1.
      99926    2    1    2    0    0  0.00000000000E+00  0.00000000000E+00 -0.58290654860E+03  0.73850466275E+03  0.45344138816E+03 0.  0.
      99925    2    3    3    0    0 -0.10175286425E+03 -0.17010919755E+02 -0.43731988967E+03  0.52059183583E+03  0.26291473306E+03 0.  0.
         25    1    4    4    0    0 -0.24298495853E+02 -0.38333867438E+02 -0.18837528532E+03  0.23063533665E+03  0.12509000000E+03 0.  0.
         25    1    4    4    0    0 -0.77454368397E+02  0.21322947683E+02 -0.24894460435E+03  0.28995649918E+03  0.12509000000E+03 0.  0.
         25    1    3    3    0    0  0.10175286425E+03  0.17010919755E+02 -0.14558665893E+03  0.21791282691E+03  0.12509000000E+03 0.  0.
<mgrwt>
<rscale>  2 0.45344139E+03</rscale>
<asrwt>0</asrwt>
<pdfrwt beam="1">  1       21 0.11441037E-01 0.45344139E+03</pdfrwt>
<pdfrwt beam="2">  1       21 0.97162594E-01 0.45344139E+03</pdfrwt>
<totfact> 0.51489801E+04</totfact>
</mgrwt>
</event>
<event>
 7    0  0.4709932E-002  0.4498837E+03  0.7546771E-02  0.1027757E+00
         21   -1    0    0  502  501  0.00000000000E+00  0.00000000000E+00  0.44122293715E+03  0.44122293715E+03  0.00000000000E+00 0. -1.
         21   -1    0    0  501  502 -0.00000000000E+00 -0.00000000000E+00 -0.11467862304E+03  0.11467862304E+03  0.00000000000E+00 0. -1.
      99926    2    1    2    0    0  0.00000000000E+00  0.00000000000E+00  0.32654431411E+03  0.55590156019E+03  0.44988371335E+03 0.  0.
      99925    2    3    3    0    0  0.63007801394E+02 -0.63724230411E+01  0.97802680912E+02  0.28760911961E+03  0.26295066168E+03 0.  0.
         25    1    4    4    0    0  0.10950481029E+02  0.31546174661E+02  0.53675000304E+02  0.14015558472E+03  0.12509000000E+03 0.  0.
         25    1    4    4    0    0  0.52057320365E+02 -0.37918597702E+02  0.44127680608E+02  0.14745353489E+03  0.12509000000E+03 0.  0.
         25    1    3    3    0    0 -0.63007801394E+02  0.63724230411E+01  0.22874163320E+03  0.26829244058E+03  0.12509000000E+03 0.  0.
<mgrwt>
<rscale>  2 0.44988371E+03</rscale>
<asrwt>0</asrwt>
<pdfrwt beam="1">  1       21 0.64885726E-01 0.44988371E+03</pdfrwt>
<pdfrwt beam="2">  1       21 0.16864504E-01 0.44988371E+03</pdfrwt>
<totfact> 0.64030642E+04</totfact>
</mgrwt>
</event>
<event>
 7    0  0.4709932E-002  0.4378475E+03  0.7546771E-02  0.1031409E+00
         21   -1    0    0  502  501  0.00000000000E+00  0.00000000000E+00  0.64039810014E+03  0.64039810014E+03  0.00000000000E+00 0. -1.
         21   -1    0    0  501  502 -0.00000000000E+00 -0.00000000000E+00 -0.74840346999E+02  0.74840346999E+02  0.00000000000E+00 0. -1.
      99926    2    1    2    0    0  0.00000000000E+00  0.00000000000E+00  0.56555775314E+03  0.71523844714E+03  0.43784753525E+03 0.  0.
      99925    2    3    3    0    0  0.86048511483E+02  0.22008186016E+02  0.30046085772E+03  0.40895005584E+03  0.26282068901E+03 0.  0.
         25    1    4    4    0    0  0.50054791184E+02  0.11992135370E+02  0.21119490226E+03  0.25079890006E+03  0.12509000000E+03 0.  0.
         25    1    4    4    0    0  0.35993720299E+02  0.10016050646E+02  0.89265955463E+02  0.15815115579E+03  0.12509000000E+03 0.  0.
         25    1    3    3    0    0 -0.86048511483E+02 -0.22008186016E+02  0.26509689542E+03  0.30628839130E+03  0.12509000000E+03 0.  0.
<mgrwt>
<rscale>  2 0.43784754E+03</rscale>
<asrwt>0</asrwt>
<pdfrwt beam="1">  1       21 0.94176188E-01 0.43784754E+03</pdfrwt>
<pdfrwt beam="2">  1       21 0.11005934E-01 0.43784754E+03</pdfrwt>
<totfact> 0.59745936E+04</totfact>
</mgrwt>
</event>
<event>
 7    0  0.4709932E-002  0.4309019E+03  0.7546771E-02  0.1033575E+00
         21   -1    0    0  502  501  0.00000000000E+00  0.00000000000E+00  0.44596554608E+02  0.44596554608E+02  0.00000000000E+00 0.  1.
         21   -1    0    0  501  502 -0.00000000000E+00 -0.00000000000E+00 -0.10408678677E+04  0.10408678677E+04  0.00000000000E+00 0.  1.
      99926    2    1    2    0    0  0.00000000000E+00  0.00000000000E+00 -0.99627131308E+03  0.10854644223E+04  0.43090194106E+03 0.  0.
      99925    2    3    3    0    0 -0.52078217169E+02  0.70116849209E+02 -0.65168598552E+03  0.70861555429E+03  0.26422124596E+03 0.  0.
         25    1    4    4    0    0  0.25470031553E+01  0.64439503499E+01 -0.34251260358E+03  0.36470591363E+03  0.12509000000E+03 0.  0.
         25    1    3    3    0    0  0.52078217169E+02 -0.70116849209E+02 -0.34458532756E+03  0.37684886801E+03  0.12509000000E+03 0.  0.
         25    1    4    4    0    0 -0.54625220324E+02  0.63672898859E+02 -0.30917338194E+03  0.34390964067E+03  0.12509000000E+03 0.  0.
<mgrwt>
<rscale>  2 0.43090194E+03</rscale>
<asrwt>0</asrwt>
<pdfrwt beam="1">  1       21 0.65583165E-02 0.43090194E+03</pdfrwt>
<pdfrwt beam="2">  1       21 0.15306881E+00 0.43090194E+03</pdfrwt>
<totfact> 0.43649655E+04</totfact>
</mgrwt>
</event>
<event>
 7    0  0.4709932E-002  0.4520386E+03  0.7546771E-02  0.1027116E+00
         21   -1    0    0  502  501  0.00000000000E+00  0.00000000000E+00  0.14572434305E+03  0.14572434305E+03  0.00000000000E+00 0.  1.
         21   -1    0    0  501  502 -0.00000000000E+00 -0.00000000000E+00 -0.35055727202E+03  0.35055727202E+03  0.00000000000E+00 0.  1.
      99926    2    1    2    0    0  0.00000000000E+00  0.00000000000E+00 -0.20483292897E+03  0.49628161507E+03  0.45203861856E+03 0.  0.
      99925    2    3    3    0    0  0.17811896156E+02 -0.97216455652E+02 -0.18309025345E+03  0.33538240770E+03  0.26304185141E+03 0.  0.
         25    1    4    4    0    0  0.61677057637E+01 -0.38519782005E+02 -0.13621430922E+03  0.18900703780E+03  0.12509000000E+03 0.  0.
         25    1    4    4    0    0  0.11644190392E+02 -0.58696673646E+02 -0.46875944230E+02  0.14637536990E+03  0.12509000000E+03 0.  0.
         25    1    3    3    0    0 -0.17811896156E+02  0.97216455652E+02 -0.21742675518E+02  0.16089920737E+03  0.12509000000E+03 0.  0.
<mgrwt>
<rscale>  2 0.45203862E+03</rscale>
<asrwt>0</asrwt>
<pdfrwt beam="1">  1       21 0.21430051E-01 0.45203862E+03</pdfrwt>
<pdfrwt beam="2">  1       21 0.51552538E-01 0.45203862E+03</pdfrwt>
<totfact> 0.67096181E+04</totfact>
</mgrwt>
</event>
<event>
 7    0  0.4709932E-002  0.4571360E+03  0.7546771E-02  0.1025615E+00
         21   -1    0    0  502  501  0.00000000000E+00  0.00000000000E+00  0.62819226345E+02  0.62819226345E+02  0.00000000000E+00 0. -1.
         21   -1    0    0  501  502 -0.00000000000E+00 -0.00000000000E+00 -0.83164555938E+03  0.83164555938E+03  0.00000000000E+00 0. -1.
      99926    2    1    2    0    0  0.00000000000E+00  0.00000000000E+00 -0.76882633304E+03  0.89446478573E+03  0.45713600004E+03 0.  0.
      99925    2    3    3    0    0 -0.65213976422E+02  0.53155834984E+02 -0.32740899296E+03  0.42801523676E+03  0.26252997679E+03 0.  0.
         25    1    4    4    0    0 -0.25290010192E+02  0.29816729805E+02 -0.10185650398E+03  0.16598457005E+03  0.12509000000E+03 0.  0.
         25    1    3    3    0    0  0.65213976422E+02 -0.53155834984E+02 -0.44141734008E+03  0.46644954897E+03  0.12509000000E+03 0.  0.
         25    1    4    4    0    0 -0.39923966230E+02  0.23339105179E+02 -0.22555248898E+03  0.26203066671E+03  0.12509000000E+03 0.  0.
<mgrwt>
<rscale>  2 0.45713600E+03</rscale>
<asrwt>0</asrwt>
<pdfrwt beam="1">  1       21 0.92381210E-02 0.45713600E+03</pdfrwt>
<pdfrwt beam="2">  1       21 0.12230082E+00 0.45713600E+03</pdfrwt>
<totfact> 0.42754299E+04</totfact>
</mgrwt>
</event>
<event>
 7    0  0.4709932E-002  0.4521760E+03  0.7546771E-02  0.1027075E+00
         21   -1    0    0  502  501  0.00000000000E+00  0.00000000000E+00  0.48890624553E+03  0.48890624553E+03  0.00000000000E+00 0.  1.
         21   -1    0    0  501  502 -0.00000000000E+00 -0.00000000000E+00 -0.10455131001E+03  0.10455131001E+03  0.00000000000E+00 0.  1.
      99926    2    1    2    0    0  0.14210854715E-13  0.00000000000E+00  0.38435493552E+03  0.59345755555E+03  0.45217602079E+03 0.  0.
      99925    2    3    3    0    0  0.96468739923E+02 -0.26026436878E+02  0.18076040700E+03  0.33445594679E+03  0.26306436932E+03 0.  0.
         25    1    4    4    0    0  0.76677870516E+02 -0.30170001721E+02  0.66707098482E+02  0.16397277188E+03  0.12509000000E+03 0.  0.
         25    1    3    3    0    0 -0.96468739923E+02  0.26026436878E+02  0.20359452852E+03  0.25900160876E+03  0.12509000000E+03 0.  0.
         25    1    4    4    0    0  0.19790869406E+02  0.41435648428E+01  0.11405330852E+03  0.17048317491E+03  0.12509000000E+03 0.  0.
<mgrwt>
<rscale>  2 0.45217602E+03</rscale>
<asrwt>0</asrwt>
<pdfrwt beam="1">  1       21 0.71897976E-01 0.45217602E+03</pdfrwt>
<pdfrwt beam="2">  1       21 0.15375193E-01 0.45217602E+03</pdfrwt>
<totfact> 0.60419927E+04</totfact>
</mgrwt>
</event>
<event>
 7    0  0.4709932E-002  0.4892220E+03  0.7546771E-02  0.1016631E+00
         21   -1    0    0  502  501  0.00000000000E+00  0.00000000000E+00  0.16066055337E+04  0.16066055337E+04  0.00000000000E+00 0.  1.
         21   -1    0    0  501  502 -0.00000000000E+00 -0.00000000000E+00 -0.37242839099E+02  0.37242839099E+02  0.00000000000E+00 0.  1.
      99926    2    1    2    0    0  0.00000000000E+00  0.00000000000E+00  0.15693626946E+04  0.16438483728E+04  0.48922204116E+03 0.  0.
      99925    2    3    3    0    0 -0.16435731328E+02 -0.45702593509E+02  0.50856139955E+03  0.57459360615E+03  0.26299097855E+03 0.  0.
         25    1    4    4    0    0 -0.41879218221E+02 -0.32529629445E+01  0.22753681484E+03  0.26303034215E+03  0.12509000000E+03 0.  0.
         25    1    4    4    0    0  0.25443486893E+02 -0.42449630564E+02  0.28102458471E+03  0.31156326400E+03  0.12509000000E+03 0.  0.
         25    1    3    3    0    0  0.16435731328E+02  0.45702593509E+02  0.10608012951E+04  0.10692547667E+04  0.12509000000E+03 0.  0.
<mgrwt>
<rscale>  2 0.48922204E+03</rscale>
<asrwt>0</asrwt>
<pdfrwt beam="1">  1       21 0.23626547E+00 0.48922204E+03</pdfrwt>
<pdfrwt beam="2">  1       21 0.54768892E-02 0.48922204E+03</pdfrwt>
<totfact> 0.15817761E+04</totfact>
</mgrwt>
</event>
<event>
 7    0  0.4709932E-002  0.4485700E+03  0.7546771E-02  0.1028149E+00
         21   -1    0    0  502  501  0.00000000000E+00  0.00000000000E+00  0.39657663529E+02  0.39657663529E+02  0.00000000000E+00 0.  1.
         21   -1    0    0  501  502 -0.00000000000E+00 -0.00000000000E+00 -0.12684500272E+04  0.12684500272E+04  0.00000000000E+00 0.  1.
      99926    2    1    2    0    0  0.00000000000E+00  0.00000000000E+00 -0.12287923637E+04  0.13081076907E+04  0.44857001407E+03 0.  0.
      99925    2    3    3    0    0  0.10137578197E+03  0.23139865840E+02 -0.85224043015E+03  0.89792313556E+03  0.26294429834E+03 0.  0.
         25    1    3    3    0    0 -0.10137578197E+03 -0.23139865840E+02 -0.37655193352E+03  0.41018455517E+03  0.12509000000E+03 0.  0.
         25    1    4    4    0    0  0.26312453458E+02 -0.21605786509E+02 -0.41888227487E+03  0.43848491823E+03  0.12509000000E+03 0.  0.
         25    1    4    4    0    0  0.75063328512E+02  0.44745652349E+02 -0.43335815528E+03  0.45943821732E+03  0.12509000000E+03 0.  0.
<mgrwt>
<rscale>  2 0.44857001E+03</rscale>
<asrwt>0</asrwt>
<pdfrwt beam="1">  1       21 0.58320101E-02 0.44857001E+03</pdfrwt>
<pdfrwt beam="2">  1       21 0.18653675E+00 0.44857001E+03</pdfrwt>
<totfact> 0.30370613E+04</totfact>
</mgrwt>
</event>
<event>
 7    0  0.4709932E-002  0.4599773E+03  0.7546771E-02  0.1024788E+00
         21   -1    0    0  502  501  0.00000000000E+00  0.00000000000E+00  0.12512921393E+04  0.12512921393E+04  0.00000000000E+00 0.  1.
         21   -1    0    0  501  502 -0.00000000000E+00 -0.00000000000E+00 -0.42272130815E+02  0.42272130815E+02  0.00000000000E+00 0.  1.
      99926    2    1    2    0    0  0.00000000000E+00  0.00000000000E+00  0.12090200085E+04  0.12935642701E+04  0.45997732552E+03 0.  0.
      99925    2    3    3    0    0  0.38783870376E+02  0.46547864705E+02  0.47298609976E+03  0.54452200482E+03  0.26290201759E+03 0.  0.
         25    1    3    3    0    0 -0.38783870376E+02 -0.46547864705E+02  0.73603390869E+03  0.74904226526E+03  0.12509000000E+03 0.  0.
         25    1    4    4    0    0  0.35390123048E+02  0.10712921767E+01  0.29386168219E+03  0.32133441278E+03  0.12509000000E+03 0.  0.
         25    1    4    4    0    0  0.33937473277E+01  0.45476572529E+02  0.17912441757E+03  0.22318759204E+03  0.12509000000E+03 0.  0.
<mgrwt>
<rscale>  2 0.45997733E+03</rscale>
<asrwt>0</asrwt>
<pdfrwt beam="1">  1       21 0.18401353E+00 0.45997733E+03</pdfrwt>
<pdfrwt beam="2">  1       21 0.62164907E-02 0.45997733E+03</pdfrwt>
<totfact> 0.28194509E+04</totfact>
</mgrwt>
</event>
<event>
 7    0  0.4709932E-002  0.4303119E+03  0.7546771E-02  0.1033761E+00
         21   -1    0    0  502  501  0.00000000000E+00  0.00000000000E+00  0.27503853959E+03  0.27503853959E+03  0.00000000000E+00 0. -1.
         21   -1    0    0  501  502 -0.00000000000E+00 -0.00000000000E+00 -0.16831122131E+03  0.16831122131E+03  0.00000000000E+00 0. -1.
      99926    2    1    2    0    0  0.00000000000E+00 -0.17763568394E-14  0.10672731828E+03  0.44334976091E+03  0.43031185206E+03 0.  0.
      99925    2    3    3    0    0  0.83123504110E+02 -0.85035182707E+01  0.40230946284E+02  0.27887756767E+03  0.26300635345E+03 0.  0.
         25    1    4    4    0    0  0.46447132820E+02 -0.19312395271E+02  0.58191309956E+02  0.14684700001E+03  0.12509000000E+03 0.  0.
         25    1    3    3    0    0 -0.83123504110E+02  0.85035182707E+01  0.66496371997E+02  0.16447219323E+03  0.12509000000E+03 0.  0.
         25    1    4    4    0    0  0.36676371290E+02  0.10808877001E+02 -0.17960363671E+02  0.13203056766E+03  0.12509000000E+03 0.  0.
<mgrwt>
<rscale>  2 0.43031185E+03</rscale>
<asrwt>0</asrwt>
<pdfrwt beam="1">  1       21 0.40446844E-01 0.43031185E+03</pdfrwt>
<pdfrwt beam="2">  1       21 0.24751650E-01 0.43031185E+03</pdfrwt>
<totfact> 0.84920178E+04</totfact>
</mgrwt>
</event>
<event>
 7    0  0.4709932E-002  0.4595625E+03  0.7546771E-02  0.1024908E+00
         21   -1    0    0  502  501  0.00000000000E+00  0.00000000000E+00  0.20559474829E+03  0.20559474829E+03  0.00000000000E+00 0.  1.
         21   -1    0    0  501  502 -0.00000000000E+00 -0.00000000000E+00 -0.25681312259E+03  0.25681312259E+03  0.00000000000E+00 0.  1.
      99926    2    1    2    0    0  0.35527136788E-14 -0.14210854715E-13 -0.51218374297E+02  0.46240787088E+03  0.45956252805E+03 0.  0.
      99925    2    3    3    0    0 -0.26059016754E+02  0.10791433176E+03 -0.70522763457E+02  0.29404890054E+03  0.26299566610E+03 0.  0.
         25    1    3    3    0    0  0.26059016754E+02 -0.10791433176E+03  0.19304389160E+02  0.16835897034E+03  0.12509000000E+03 0.  0.
         25    1    4    4    0    0 -0.42178321229E+02  0.42263638431E+02 -0.61307051774E+02  0.15156282068E+03  0.12509000000E+03 0.  0.
         25    1    4    4    0    0  0.16119304475E+02  0.65650693328E+02 -0.92157116834E+01  0.14248607986E+03  0.12509000000E+03 0.  0.
<mgrwt>
<rscale>  2 0.45956253E+03</rscale>
<asrwt>0</asrwt>
<pdfrwt beam="1">  1       21 0.30234522E-01 0.45956253E+03</pdfrwt>
<pdfrwt beam="2">  1       21 0.37766636E-01 0.45956253E+03</pdfrwt>
<totfact> 0.65586223E+04</totfact>
</mgrwt>
</event>
<event>
 7    0  0.4709932E-002  0.4552250E+03  0.7546771E-02  0.1026175E+00
         21   -1    0    0  502  501  0.00000000000E+00  0.00000000000E+00  0.36505340138E+03  0.36505340138E+03  0.00000000000E+00 0.  1.
         21   -1    0    0  501  502 -0.00000000000E+00 -0.00000000000E+00 -0.14191744233E+03  0.14191744233E+03  0.00000000000E+00 0.  1.
      99926    2    1    2    0    0  0.00000000000E+00  0.00000000000E+00  0.22313595905E+03  0.50697084372E+03  0.45522497752E+03 0.  0.
      99925    2    3    3    0    0  0.16260044204E+02 -0.79180697815E+02  0.22878259030E+03  0.35792935792E+03  0.26313110742E+03 0.  0.
         25    1    4    4    0    0  0.53148373304E+01 -0.61668725892E+00  0.12608494326E+03  0.17768947300E+03  0.12509000000E+03 0.  0.
         25    1    4    4    0    0  0.10945206873E+02 -0.78564010556E+02  0.10269764703E+03  0.18023988492E+03  0.12509000000E+03 0.  0.
         25    1    3    3    0    0 -0.16260044204E+02  0.79180697815E+02 -0.56466312478E+01  0.14904148580E+03  0.12509000000E+03 0.  0.
<mgrwt>
<rscale>  2 0.45522498E+03</rscale>
<asrwt>0</asrwt>
<pdfrwt beam="1">  1       21 0.53684324E-01 0.45522498E+03</pdfrwt>
<pdfrwt beam="2">  1       21 0.20870212E-01 0.45522498E+03</pdfrwt>
<totfact> 0.64668110E+04</totfact>
</mgrwt>
</event>
<event>
 7    0  0.4709932E-002  0.4383377E+03  0.7546771E-02  0.1031258E+00
         21   -1    0    0  502  501  0.00000000000E+00  0.00000000000E+00  0.42160921424E+03  0.42160921424E+03  0.00000000000E+00 0.  1.
         21   -1    0    0  501  502 -0.00000000000E+00 -0.00000000000E+00 -0.11393245915E+03  0.11393245915E+03  0.00000000000E+00 0.  1.
      99926    2    1    2    0    0 -0.35527136788E-14 -0.14210854715E-13  0.30767675510E+03  0.53554167339E+03  0.43833765331E+03 0.  0.
      99925    2    3    3    0    0  0.21683914634E+02  0.75752165559E+02  0.12808316529E+03  0.30292622176E+03  0.26296466655E+03 0.  0.
         25    1    4    4    0    0 -0.88708732308E+01  0.70611392329E+02  0.50585076005E+02  0.15254841570E+03  0.12509000000E+03 0.  0.
         25    1    4    4    0    0  0.30554787865E+02  0.51407732297E+01  0.77498089286E+02  0.15037780605E+03  0.12509000000E+03 0.  0.
         25    1    3    3    0    0 -0.21683914634E+02 -0.75752165559E+02  0.17959358981E+03  0.23261545164E+03  0.12509000000E+03 0.  0.
<mgrwt>
<rscale>  2 0.43833765E+03</rscale>
<asrwt>0</asrwt>
<pdfrwt beam="1">  1       21 0.62001355E-01 0.43833765E+03</pdfrwt>
<pdfrwt beam="2">  1       21 0.16754774E-01 0.43833765E+03</pdfrwt>
<totfact> 0.71848858E+04</totfact>
</mgrwt>
</event>
<event>
 7    0  0.4709932E-002  0.4896619E+03  0.7546771E-02  0.1016513E+00
         21   -1    0    0  502  501  0.00000000000E+00  0.00000000000E+00  0.17667740545E+03  0.17667740545E+03  0.00000000000E+00 0.  1.
         21   -1    0    0  501  502 -0.00000000000E+00 -0.00000000000E+00 -0.33927475439E+03  0.33927475439E+03  0.00000000000E+00 0.  1.
      99926    2    1    2    0    0  0.00000000000E+00  0.00000000000E+00 -0.16259734894E+03  0.51595215985E+03  0.48966185615E+03 0.  0.
      99925    2    3    3    0    0  0.11968616310E+03  0.23744718193E+02 -0.17844622690E+03  0.34048910302E+03  0.26306117939E+03 0.  0.
         25    1    4    4    0    0  0.60017136651E+02  0.50529441433E+02 -0.75956960856E+02  0.16604893600E+03  0.12509000000E+03 0.  0.
         25    1    4    4    0    0  0.59669026450E+02 -0.26784723240E+02 -0.10248926604E+03  0.17444016702E+03  0.12509000000E+03 0.  0.
         25    1    3    3    0    0 -0.11968616310E+03 -0.23744718193E+02  0.15848877958E+02  0.17546305683E+03  0.12509000000E+03 0.  0.
<mgrwt>
<rscale>  2 0.48966186E+03</rscale>
<asrwt>0</asrwt>
<pdfrwt beam="1">  1       21 0.25981971E-01 0.48966186E+03</pdfrwt>
<pdfrwt beam="2">  1       21 0.49893346E-01 0.48966186E+03</pdfrwt>
<totfact> 0.49175690E+04</totfact>
</mgrwt>
</event>
<event>
 7    0  0.4709932E-002  0.4560324E+03  0.7546771E-02  0.1025938E+00
         21   -1    0    0  502  501  0.00000000000E+00  0.00000000000E+00  0.59941317081E+02  0.59941317081E+02  0.00000000000E+00 0. -1.
         21   -1    0    0  501  502 -0.00000000000E+00 -0.00000000000E+00 -0.86737133829E+03  0.86737133829E+03  0.00000000000E+00 0. -1.
      99926    2    1    2    0    0  0.00000000000E+00  0.35527136788E-14 -0.80743002121E+03  0.92731265537E+03  0.45603236909E+03 0.  0.
      99925    2    3    3    0    0 -0.90278641935E+02 -0.20942003241E+02 -0.64089336191E+03  0.69934167546E+03  0.26409406849E+03 0.  0.
         25    1    4    4    0    0 -0.80268478201E+02 -0.31587534556E+02 -0.39149637158E+03  0.41994966126E+03  0.12509000000E+03 0.  0.
         25    1    4    4    0    0 -0.10010163734E+02  0.10645531315E+02 -0.24939699033E+03  0.27939201420E+03  0.12509000000E+03 0.  0.
         25    1    3    3    0    0  0.90278641935E+02  0.20942003241E+02 -0.16653665930E+03  0.22797097991E+03  0.12509000000E+03 0.  0.
<mgrwt>
<rscale>  2 0.45603237E+03</rscale>
<asrwt>0</asrwt>
<pdfrwt beam="1">  1       21 0.88148998E-02 0.45603237E+03</pdfrwt>
<pdfrwt beam="2">  1       21 0.12755461E+00 0.45603237E+03</pdfrwt>
<totfact> 0.41735409E+04</totfact>
</mgrwt>
</event>
<event>
 7    0  0.4709932E-002  0.4500603E+03  0.7546771E-02  0.1027704E+00
         21   -1    0    0  502  501  0.00000000000E+00  0.00000000000E+00  0.22411912804E+04  0.22411912804E+04  0.00000000000E+00 0.  1.
         21   -1    0    0  501  502 -0.00000000000E+00 -0.00000000000E+00 -0.22594482829E+02  0.22594482829E+02  0.00000000000E+00 0.  1.
      99926    2    1    2    0    0  0.00000000000E+00  0.00000000000E+00  0.22185967976E+04  0.22637857633E+04  0.45006025330E+03 0.  0.
      99925    2    3    3    0    0  0.89244209530E+02 -0.44420959386E+02  0.16171635498E+04  0.16414456551E+04  0.26303638771E+03 0.  0.
         25    1    3    3    0    0 -0.89244209530E+02  0.44420959386E+02  0.60143324778E+03  0.62234010815E+03  0.12509000000E+03 0.  0.
         25    1    4    4    0    0  0.44861920103E+02 -0.55150769959E+02  0.98093652658E+03  0.99143238629E+03  0.12509000000E+03 0.  0.
         25    1    4    4    0    0  0.44382289428E+02  0.10729810573E+02  0.63622702324E+03  0.65001326883E+03  0.12509000000E+03 0.  0.
<mgrwt>
<rscale>  2 0.45006025E+03</rscale>
<asrwt>0</asrwt>
<pdfrwt beam="1">  1       21 0.32958680E+00 0.45006025E+03</pdfrwt>
<pdfrwt beam="2">  1       21 0.33227196E-02 0.45006025E+03</pdfrwt>
<totfact> 0.10248921E+04</totfact>
</mgrwt>
</event>
<event>
 6    0  0.4709932E-002  0.4545703E+03  0.7546771E-02  0.1026368E+00
         21   -1    0    0  502  501  0.00000000000E+00  0.00000000000E+00  0.33606321592E+03  0.33606321592E+03  0.00000000000E+00 0. -1.
         21   -1    0    0  501  502 -0.00000000000E+00 -0.00000000000E+00 -0.15371676378E+03  0.15371676378E+03  0.00000000000E+00 0. -1.
      99926    2    1    2    0    0  0.00000000000E+00  0.00000000000E+00  0.18234645213E+03  0.48977997970E+03  0.45457034649E+03 0.  0.
         25    1    3    3    0    0  0.28986301130E+02  0.13969358734E+02  0.96595776604E+02  0.16128732372E+03  0.12509000000E+03 0.  0.
         25    1    3    3    0    0  0.99048795684E+01 -0.27987094145E+02 -0.51269948393E+02  0.13841062021E+03  0.12509000000E+03 0.  0.
         25    1    3    3    0    0 -0.38891180698E+02  0.14017735411E+02  0.13702062392E+03  0.19008203577E+03  0.12509000000E+03 0.  0.
<mgrwt>
<rscale>  2 0.45457035E+03</rscale>
<asrwt>0</asrwt>
<pdfrwt beam="1">  1       21 0.49421061E-01 0.45457035E+03</pdfrwt>
<pdfrwt beam="2">  1       21 0.22605406E-01 0.45457035E+03</pdfrwt>
<totfact> 0.66220365E+04</totfact>
</mgrwt>
</event>
<event>
 7    0  0.4709932E-002  0.4528991E+03  0.7546771E-02  0.1026861E+00
         21   -1    0    0  502  501  0.00000000000E+00  0.00000000000E+00  0.85717287376E+03  0.85717287376E+03  0.00000000000E+00 0. -1.
         21   -1    0    0  501  502 -0.00000000000E+00 -0.00000000000E+00 -0.59823865866E+02  0.59823865866E+02  0.00000000000E+00 0. -1.
      99926    2    1    2    0    0 -0.71054273576E-14  0.00000000000E+00  0.79734900790E+03  0.91699673963E+03  0.45289908379E+03 0.  0.
      99925    2    3    3    0    0  0.57929500359E+02  0.94892097861E+02  0.52404798395E+03  0.59652631192E+03  0.26240620053E+03 0.  0.
         25    1    3    3    0    0 -0.57929500359E+02 -0.94892097861E+02  0.27330102394E+03  0.32047042771E+03  0.12509000000E+03 0.  0.
         25    1    4    4    0    0  0.43586565351E+02  0.83773682832E+02  0.32350321674E+03  0.35947135902E+03  0.12509000000E+03 0.  0.
         25    1    4    4    0    0  0.14342935008E+02  0.11118415029E+02  0.20054476722E+03  0.23705495290E+03  0.12509000000E+03 0.  0.
<mgrwt>
<rscale>  2 0.45289908E+03</rscale>
<asrwt>0</asrwt>
<pdfrwt beam="1">  1       21 0.12605483E+00 0.45289908E+03</pdfrwt>
<pdfrwt beam="2">  1       21 0.87976279E-02 0.45289908E+03</pdfrwt>
<totfact> 0.43212836E+04</totfact>
</mgrwt>
</event>
<event>
 7    0  0.4709932E-002  0.4565127E+03  0.7546771E-02  0.1025798E+00
         21   -1    0    0  502  501  0.00000000000E+00  0.00000000000E+00  0.59631646023E+03  0.59631646023E+03  0.00000000000E+00 0. -1.
         21   -1    0    0  501  502 -0.00000000000E+00 -0.00000000000E+00 -0.87371331870E+02  0.87371331870E+02  0.00000000000E+00 0. -1.
      99926    2    1    2    0    0 -0.88817841970E-15  0.00000000000E+00  0.50894512836E+03  0.68368779210E+03  0.45651270890E+03 0.  0.
      99925    2    3    3    0    0 -0.21640932115E+01  0.10454885382E+03  0.24984676142E+03  0.37755935829E+03  0.26304470857E+03 0.  0.
         25    1    4    4    0    0  0.39278757894E+02  0.51562100859E+02  0.13059572792E+03  0.19210471966E+03  0.12509000000E+03 0.  0.
         25    1    4    4    0    0 -0.41442851106E+02  0.52986752962E+02  0.11925103350E+03  0.18545463863E+03  0.12509000000E+03 0.  0.
         25    1    3    3    0    0  0.21640932115E+01 -0.10454885382E+03  0.25909836694E+03  0.30612843381E+03  0.12509000000E+03 0.  0.
<mgrwt>
<rscale>  2 0.45651271E+03</rscale>
<asrwt>0</asrwt>
<pdfrwt beam="1">  1       21 0.87693596E-01 0.45651271E+03</pdfrwt>
<pdfrwt beam="2">  1       21 0.12848725E-01 0.45651271E+03</pdfrwt>
<totfact> 0.53161857E+04</totfact>
</mgrwt>
</event>
<event>
 7    0  0.4709932E-002  0.4529616E+03  0.7546771E-02  0.1026843E+00
         21   -1    0    0  502  501  0.00000000000E+00  0.00000000000E+00  0.72194883567E+02  0.72194883567E+02  0.00000000000E+00 0.  1.
         21   -1    0    0  501  502 -0.00000000000E+00 -0.00000000000E+00 -0.71048742588E+03  0.71048742588E+03  0.00000000000E+00 0.  1.
      99926    2    1    2    0    0  0.00000000000E+00  0.00000000000E+00 -0.63829254232E+03  0.78268230945E+03  0.45296161863E+03 0.  0.
      99925    2    3    3    0    0  0.50047550237E+02 -0.83811032975E+02 -0.31036490952E+03  0.41838423509E+03  0.26303981557E+03 0.  0.
         25    1    4    4    0    0 -0.13697673321E+02 -0.44465455905E+02 -0.12828127946E+03  0.18511725415E+03  0.12509000000E+03 0.  0.
         25    1    4    4    0    0  0.63745223558E+02 -0.39345577070E+02 -0.18208363006E+03  0.23326698094E+03  0.12509000000E+03 0.  0.
         25    1    3    3    0    0 -0.50047550237E+02  0.83811032975E+02 -0.32792763280E+03  0.36429807436E+03  0.12509000000E+03 0.  0.
<mgrwt>
<rscale>  2 0.45296162E+03</rscale>
<asrwt>0</asrwt>
<pdfrwt beam="1">  1       21 0.10616894E-01 0.45296162E+03</pdfrwt>
<pdfrwt beam="2">  1       21 0.10448345E+00 0.45296162E+03</pdfrwt>
<totfact> 0.49399516E+04</totfact>
</mgrwt>
</event>
<event>
 7    0  0.4709932E-002  0.4683293E+03  0.7546771E-02  0.1022393E+00
         21   -1    0    0  502  501  0.00000000000E+00  0.00000000000E+00  0.11210875854E+03  0.11210875854E+03  0.00000000000E+00 0. -1.
         21   -1    0    0  501  502 -0.00000000000E+00 -0.00000000000E+00 -0.48910610446E+03  0.48910610446E+03  0.00000000000E+00 0. -1.
      99926    2    1    2    0    0  0.00000000000E+00  0.00000000000E+00 -0.37699734592E+03  0.60121486300E+03  0.46832927804E+03 0.  0.
      99925    2    3    3    0    0  0.86063542129E+02  0.50114282149E+02 -0.33196245243E+03  0.43510037149E+03  0.26304921381E+03 0.  0.
         25    1    3    3    0    0 -0.86063542129E+02 -0.50114282149E+02 -0.45034893484E+02  0.16611449151E+03  0.12509000000E+03 0.  0.
         25    1    4    4    0    0  0.76847847591E+02  0.51725256840E+02 -0.19145229009E+03  0.24674395911E+03  0.12509000000E+03 0.  0.
         25    1    4    4    0    0  0.92156945379E+01 -0.16109746908E+01 -0.14051016234E+03  0.18835641239E+03  0.12509000000E+03 0.  0.
<mgrwt>
<rscale>  2 0.46832928E+03</rscale>
<asrwt>0</asrwt>
<pdfrwt beam="1">  1       21 0.16486582E-01 0.46832928E+03</pdfrwt>
<pdfrwt beam="2">  1       21 0.71927367E-01 0.46832928E+03</pdfrwt>
<totfact> 0.52817066E+04</totfact>
</mgrwt>
</event>
<event>
 7    0  0.4709932E-002  0.4315303E+03  0.7546771E-02  0.1033378E+00
         21   -1    0    0  502  501  0.00000000000E+00  0.00000000000E+00  0.14408220199E+04  0.14408220199E+04  0.00000000000E+00 0. -1.
         21   -1    0    0  501  502 -0.00000000000E+00 -0.00000000000E+00 -0.32311132873E+02  0.32311132873E+02  0.00000000000E+00 0. -1.
      99926    2    1    2    0    0  0.71054273576E-14  0.00000000000E+00  0.14085108870E+04  0.14731331528E+04  0.43153026189E+03 0.  0.
      99925    2    3    3    0    0 -0.47836981891E+02  0.74055057479E+02  0.95542929121E+03  0.99490416062E+03  0.26309053562E+03 0.  0.
         25    1    3    3    0    0  0.47836981891E+02 -0.74055057479E+02  0.45308159584E+03  0.47822899218E+03  0.12509000000E+03 0.  0.
         25    1    4    4    0    0  0.15785081902E+02  0.23998375169E+02  0.45698515212E+03  0.47466622819E+03  0.12509000000E+03 0.  0.
         25    1    4    4    0    0 -0.63622063794E+02  0.50056682310E+02  0.49844413909E+03  0.52023793243E+03  0.12509000000E+03 0.  0.
<mgrwt>
<rscale>  2 0.43153026E+03</rscale>
<asrwt>0</asrwt>
<pdfrwt beam="1">  1       21 0.21188555E+00 0.43153026E+03</pdfrwt>
<pdfrwt beam="2">  1       21 0.47516381E-02 0.43153026E+03</pdfrwt>
<totfact> 0.29461885E+04</totfact>
</mgrwt>
</event>
<event>
 7    0  0.4709932E-002  0.4583051E+03  0.7546771E-02  0.1025274E+00
         21   -1    0    0  502  501  0.00000000000E+00  0.00000000000E+00  0.56535712682E+03  0.56535712682E+03  0.00000000000E+00 0. -1.
         21   -1    0    0  501  502 -0.00000000000E+00 -0.00000000000E+00 -0.92880918657E+02  0.92880918657E+02  0.00000000000E+00 0. -1.
      99926    2    1    2    0    0  0.00000000000E+00  0.00000000000E+00  0.47247620817E+03  0.65823804548E+03  0.45830509187E+03 0.  0.
      99925    2    3    3    0    0  0.10797695457E+03 -0.39962872599E+02  0.31939159334E+03  0.42946203865E+03  0.26300303960E+03 0.  0.
         25    1    3    3    0    0 -0.10797695457E+03  0.39962872599E+02  0.15308461483E+03  0.22877600683E+03  0.12509000000E+03 0.  0.
         25    1    4    4    0    0  0.52710689685E+02 -0.56085713481E+02  0.13634451248E+03  0.20040298962E+03  0.12509000000E+03 0.  0.
         25    1    4    4    0    0  0.55266264886E+02  0.16122840883E+02  0.18304708086E+03  0.22905904903E+03  0.12509000000E+03 0.  0.
<mgrwt>
<rscale>  2 0.45830509E+03</rscale>
<asrwt>0</asrwt>
<pdfrwt beam="1">  1       21 0.83140752E-01 0.45830509E+03</pdfrwt>
<pdfrwt beam="2">  1       21 0.13658959E-01 0.45830509E+03</pdfrwt>
<totfact> 0.53812767E+04</totfact>
</mgrwt>
</event>
<event>
 7    0  0.4709932E-002  0.4535542E+03  0.7546771E-02  0.1026667E+00
         21   -1    0    0  502  501  0.00000000000E+00  0.00000000000E+00  0.39557111788E+02  0.39557111788E+02  0.00000000000E+00 0.  1.
         21   -1    0    0  501  502 -0.00000000000E+00 -0.00000000000E+00 -0.13000912591E+04  0.13000912591E+04  0.00000000000E+00 0.  1.
      99926    2    1    2    0    0  0.35527136788E-14 -0.14210854715E-13 -0.12605341473E+04  0.13396483709E+04  0.45355420964E+03 0.  0.
      99925    2    3    3    0    0 -0.18429674745E+02  0.90009541928E+02 -0.60641329860E+03  0.66736646323E+03  0.26305804867E+03 0.  0.
         25    1    4    4    0    0 -0.42443889694E+02  0.51747265158E+02 -0.25801446517E+03  0.29444564110E+03  0.12509000000E+03 0.  0.
         25    1    4    4    0    0  0.24014214949E+02  0.38262276770E+02 -0.34839883343E+03  0.37292082213E+03  0.12509000000E+03 0.  0.
         25    1    3    3    0    0  0.18429674745E+02 -0.90009541928E+02 -0.65412084872E+03  0.67228190767E+03  0.12509000000E+03 0.  0.
<mgrwt>
<rscale>  2 0.45355421E+03</rscale>
<asrwt>0</asrwt>
<pdfrwt beam="1">  1       21 0.58172215E-02 0.45355421E+03</pdfrwt>
<pdfrwt beam="2">  1       21 0.19118992E+00 0.45355421E+03</pdfrwt>
<totfact> 0.28301464E+04</totfact>
</mgrwt>
</event>
<event>
 7    0  0.4709932E-002  0.4551508E+03  0.7546771E-02  0.1026197E+00
         21   -1    0    0  502  501  0.00000000000E+00  0.00000000000E+00  0.91515546900E+03  0.91515546900E+03  0.00000000000E+00 0. -1.
         21   -1    0    0  501  502 -0.00000000000E+00 -0.00000000000E+00 -0.56592094676E+02  0.56592094676E+02  0.00000000000E+00 0. -1.
      99926    2    1    2    0    0 -0.22204460493E-15  0.00000000000E+00  0.85856337433E+03  0.97174756368E+03  0.45515080993E+03 0.  0.
      99925    2    3    3    0    0 -0.12801108590E+01 -0.64783783426E+02  0.73862786611E+03  0.78673239806E+03  0.26301742201E+03 0.  0.
         25    1    4    4    0    0  0.91840437834E+01 -0.53113987939E+02  0.48098685712E+03  0.49990129746E+03  0.12509000000E+03 0.  0.
         25    1    4    4    0    0 -0.10464154642E+02 -0.11669795487E+02  0.25764100899E+03  0.28683110060E+03  0.12509000000E+03 0.  0.
         25    1    3    3    0    0  0.12801108590E+01  0.64783783426E+02  0.11993550821E+03  0.18501516562E+03  0.12509000000E+03 0.  0.
<mgrwt>
<rscale>  2 0.45515081E+03</rscale>
<asrwt>0</asrwt>
<pdfrwt beam="1">  1       21 0.13458168E+00 0.45515081E+03</pdfrwt>
<pdfrwt beam="2">  1       21 0.83223674E-02 0.45515081E+03</pdfrwt>
<totfact> 0.40225062E+04</totfact>
</mgrwt>
</event>
<event>
 7    0  0.4709932E-002  0.4550258E+03  0.7546771E-02  0.1026234E+00
         21   -1    0    0  502  501  0.00000000000E+00  0.00000000000E+00  0.48467189081E+02  0.48467189081E+02  0.00000000000E+00 0.  1.
         21   -1    0    0  501  502 -0.00000000000E+00 -0.00000000000E+00 -0.10679824797E+04  0.10679824797E+04  0.00000000000E+00 0.  1.
      99926    2    1    2    0    0 -0.14210854715E-13  0.00000000000E+00 -0.10195152906E+04  0.11164496688E+04  0.45502575214E+03 0.  0.
      99925    2    3    3    0    0  0.70117940694E+02  0.54978849844E+02 -0.47035754765E+03  0.54622082498E+03  0.26302427164E+03 0.  0.
         25    1    4    4    0    0 -0.61790775749E+01  0.32478336309E+02 -0.21260775069E+03  0.24888267735E+03  0.12509000000E+03 0.  0.
         25    1    4    4    0    0  0.76297018269E+02  0.22500513535E+02 -0.25774979696E+03  0.29733814763E+03  0.12509000000E+03 0.  0.
         25    1    3    3    0    0 -0.70117940694E+02 -0.54978849844E+02 -0.54915774294E+03  0.57022884377E+03  0.12509000000E+03 0.  0.
<mgrwt>
<rscale>  2 0.45502575E+03</rscale>
<asrwt>0</asrwt>
<pdfrwt beam="1">  1       21 0.71275281E-02 0.45502575E+03</pdfrwt>
<pdfrwt beam="2">  1       21 0.15705624E+00 0.45502575E+03</pdfrwt>
<totfact> 0.34915443E+04</totfact>
</mgrwt>
</event>
<event>
 7    0  0.4709932E-002  0.4430724E+03  0.7546771E-02  0.1029808E+00
         21   -1    0    0  502  501  0.00000000000E+00  0.00000000000E+00  0.16873745527E+03  0.16873745527E+03  0.00000000000E+00 0. -1.
         21   -1    0    0  501  502 -0.00000000000E+00 -0.00000000000E+00 -0.29085595883E+03  0.29085595883E+03  0.00000000000E+00 0. -1.
      99926    2    1    2    0    0 -0.14210854715E-13  0.00000000000E+00 -0.12211850356E+03  0.45959341410E+03  0.44307242903E+03 0.  0.
      99925    2    3    3    0    0 -0.60204225878E+02 -0.81782073017E+02 -0.74951552467E+02  0.29170927055E+03  0.26298993712E+03 0.  0.
         25    1    4    4    0    0 -0.70978767189E+02 -0.36616424949E+02 -0.36140352258E+02  0.15274940631E+03  0.12509000000E+03 0.  0.
         25    1    4    4    0    0  0.10774541312E+02 -0.45165648069E+02 -0.38811200209E+02  0.13895986423E+03  0.12509000000E+03 0.  0.
         25    1    3    3    0    0  0.60204225878E+02  0.81782073017E+02 -0.47166951095E+02  0.16788414355E+03  0.12509000000E+03 0.  0.
<mgrwt>
<rscale>  2 0.44307243E+03</rscale>
<asrwt>0</asrwt>
<pdfrwt beam="1">  1       21 0.24814332E-01 0.44307243E+03</pdfrwt>
<pdfrwt beam="2">  1       21 0.42772934E-01 0.44307243E+03</pdfrwt>
<totfact> 0.75073385E+04</totfact>
</mgrwt>
</event>
<event>
 7    0  0.4709932E-002  0.4534261E+03  0.7546771E-02  0.1026705E+00
         21   -1    0    0  502  501  0.00000000000E+00  0.00000000000E+00  0.68774552217E+02  0.68774552217E+02  0.00000000000E+00 0. -1.
         21   -1    0    0  501  502 -0.00000000000E+00 -0.00000000000E+00 -0.74735198839E+03  0.74735198839E+03  0.00000000000E+00 0. -1.
      99926    2    1    2    0    0  0.00000000000E+00 -0.35527136788E-14 -0.67857743617E+03  0.81612654060E+03  0.45342606167E+03 0.  0.
      99925    2    3    3    0    0 -0.92736542519E+02 -0.28772229602E+02 -0.32818448402E+03  0.43161303430E+03  0.26297689692E+03 0.  0.
         25    1    3    3    0    0  0.92736542519E+02  0.28772229602E+02 -0.35039295215E+03  0.38451350630E+03  0.12509000000E+03 0.  0.
         25    1    4    4    0    0 -0.17457988611E+02 -0.42911313368E+02 -0.14705315428E+03  0.19854042527E+03  0.12509000000E+03 0.  0.
         25    1    4    4    0    0 -0.75278553908E+02  0.14139083766E+02 -0.18113132974E+03  0.23307260903E+03  0.12509000000E+03 0.  0.
<mgrwt>
<rscale>  2 0.45342606E+03</rscale>
<asrwt>0</asrwt>
<pdfrwt beam="1">  1       21 0.10113905E-01 0.45342606E+03</pdfrwt>
<pdfrwt beam="2">  1       21 0.10990470E+00 0.45342606E+03</pdfrwt>
<totfact> 0.47579581E+04</totfact>
</mgrwt>
</event>
<event>
 7    0  0.4709932E-002  0.4516573E+03  0.7546771E-02  0.1027229E+00
         21   -1    0    0  502  501  0.00000000000E+00  0.00000000000E+00  0.17458679742E+03  0.17458679742E+03  0.00000000000E+00 0.  1.
         21   -1    0    0  501  502 -0.00000000000E+00 -0.00000000000E+00 -0.29211016044E+03  0.29211016044E+03  0.00000000000E+00 0.  1.
      99926    2    1    2    0    0  0.00000000000E+00  0.00000000000E+00 -0.11752336302E+03  0.46669695785E+03  0.45165729222E+03 0.  0.
      99925    2    3    3    0    0  0.80066958411E+02  0.72742100750E+02 -0.94405632205E+02  0.29971172309E+03  0.26308280543E+03 0.  0.
         25    1    3    3    0    0 -0.80066958411E+02 -0.72742100750E+02 -0.23117730819E+02  0.16698523476E+03  0.12509000000E+03 0.  0.
         25    1    4    4    0    0  0.76856516432E+02  0.23514258812E+02 -0.63862469812E+02  0.16182017067E+03  0.12509000000E+03 0.  0.
         25    1    4    4    0    0  0.32104419790E+01  0.49227841939E+02 -0.30543162393E+02  0.13789155242E+03  0.12509000000E+03 0.  0.
<mgrwt>
<rscale>  2 0.45165729E+03</rscale>
<asrwt>0</asrwt>
<pdfrwt beam="1">  1       21 0.25674529E-01 0.45165729E+03</pdfrwt>
<pdfrwt beam="2">  1       21 0.42957376E-01 0.45165729E+03</pdfrwt>
<totfact> 0.69507100E+04</totfact>
</mgrwt>
</event>
<event>
 7    0  0.4709932E-002  0.4544787E+03  0.7546771E-02  0.1026395E+00
         21   -1    0    0  502  501  0.00000000000E+00  0.00000000000E+00  0.79069912808E+02  0.79069912808E+02  0.00000000000E+00 0.  1.
         21   -1    0    0  501  502 -0.00000000000E+00 -0.00000000000E+00 -0.65306399101E+03  0.65306399101E+03  0.00000000000E+00 0.  1.
      99926    2    1    2    0    0  0.71054273576E-14  0.00000000000E+00 -0.57399407820E+03  0.73213390382E+03  0.45447865881E+03 0.  0.
      99925    2    3    3    0    0 -0.45920868567E+02 -0.26465648282E+02 -0.52158939139E+03  0.58652169276E+03  0.26295065347E+03 0.  0.
         25    1    4    4    0    0  0.16401049450E+02 -0.23680349511E+02 -0.24201099926E+03  0.27394631817E+03  0.12509000000E+03 0.  0.
         25    1    4    4    0    0 -0.62321918017E+02 -0.27852987711E+01 -0.27957839213E+03  0.31257537459E+03  0.12509000000E+03 0.  0.
         25    1    3    3    0    0  0.45920868567E+02  0.26465648282E+02 -0.52404686810E+02  0.14561221106E+03  0.12509000000E+03 0.  0.
<mgrwt>
<rscale>  2 0.45447866E+03</rscale>
<asrwt>0</asrwt>
<pdfrwt beam="1">  1       21 0.11627928E-01 0.45447866E+03</pdfrwt>
<pdfrwt beam="2">  1       21 0.96038823E-01 0.45447866E+03</pdfrwt>
<totfact> 0.51403203E+04</totfact>
</mgrwt>
</event>
<event>
 7    0  0.4709932E-002  0.4548428E+03  0.7546771E-02  0.1026288E+00
         21   -1    0    0  502  501  0.00000000000E+00  0.00000000000E+00  0.27366733459E+03  0.27366733459E+03  0.00000000000E+00 0. -1.
         21   -1    0    0  501  502 -0.00000000000E+00 -0.00000000000E+00 -0.18899038139E+03  0.18899038139E+03  0.00000000000E+00 0. -1.
      99926    2    1    2    0    0  0.71054273576E-14  0.00000000000E+00  0.84676953198E+02  0.46265771599E+03  0.45484280335E+03 0.  0.
      99925    2    3    3    0    0 -0.54197864994E+02 -0.12861943475E+02 -0.47494453055E+02  0.27234316875E+03  0.26232087285E+03 0.  0.
         25    1    4    4    0    0 -0.42359646318E+02 -0.16865515972E+02  0.11186261043E+02  0.13360922798E+03  0.12509000000E+03 0.  0.
         25    1    4    4    0    0 -0.11838218676E+02  0.40035724968E+01 -0.58680714098E+02  0.13873394077E+03  0.12509000000E+03 0.  0.
         25    1    3    3    0    0  0.54197864994E+02  0.12861943475E+02  0.13217140625E+03  0.19031454724E+03  0.12509000000E+03 0.  0.
<mgrwt>
<rscale>  2 0.45484280E+03</rscale>
<asrwt>0</asrwt>
<pdfrwt beam="1">  1       21 0.40245196E-01 0.45484280E+03</pdfrwt>
<pdfrwt beam="2">  1       21 0.27792703E-01 0.45484280E+03</pdfrwt>
<totfact> 0.68069397E+04</totfact>
</mgrwt>
</event>
<event>
 7    0  0.4709932E-002  0.4550619E+03  0.7546771E-02  0.1026223E+00
         21   -1    0    0  502  501  0.00000000000E+00  0.00000000000E+00  0.81959005127E+03  0.81959005127E+03  0.00000000000E+00 0.  1.
         21   -1    0    0  501  502 -0.00000000000E+00 -0.00000000000E+00 -0.63166143574E+02  0.63166143574E+02  0.00000000000E+00 0.  1.
      99926    2    1    2    0    0 -0.71054273576E-14  0.17763568394E-14  0.75642390769E+03  0.88275619484E+03  0.45506194238E+03 0.  0.
      99925    2    3    3    0    0 -0.33873901781E+02  0.15652534000E+02  0.26836193167E+03  0.37753897069E+03  0.26291653614E+03 0.  0.
         25    1    3    3    0    0  0.33873901781E+02 -0.15652534000E+02  0.48806197602E+03  0.50521722415E+03  0.12509000000E+03 0.  0.
         25    1    4    4    0    0 -0.54447289534E+02  0.17477076504E+02  0.15770170855E+03  0.20925413382E+03  0.12509000000E+03 0.  0.
         25    1    4    4    0    0  0.20573387753E+02 -0.18245425043E+01  0.11066022312E+03  0.16828483687E+03  0.12509000000E+03 0.  0.
<mgrwt>
<rscale>  2 0.45506194E+03</rscale>
<asrwt>0</asrwt>
<pdfrwt beam="1">  1       21 0.12052794E+00 0.45506194E+03</pdfrwt>
<pdfrwt beam="2">  1       21 0.92891393E-02 0.45506194E+03</pdfrwt>
<totfact> 0.43966341E+04</totfact>
</mgrwt>
</event>
<event>
 7    0  0.4709932E-002  0.4551102E+03  0.7546771E-02  0.1026209E+00
         21   -1    0    0  502  501  0.00000000000E+00  0.00000000000E+00  0.28293302445E+03  0.28293302445E+03  0.00000000000E+00 0.  1.
         21   -1    0    0  501  502 -0.00000000000E+00 -0.00000000000E+00 -0.18301616811E+03  0.18301616811E+03  0.00000000000E+00 0.  1.
      99926    2    1    2    0    0  0.71054273576E-14  0.00000000000E+00  0.99916856332E+02  0.46594919256E+03  0.45511017553E+03 0.  0.
      99925    2    3    3    0    0 -0.63051430959E+02  0.93977550119E+02  0.57263449324E+02  0.29195469810E+03  0.26296611996E+03 0.  0.
         25    1    4    4    0    0 -0.25117092311E+02  0.86206896158E+02  0.45075470023E+02  0.16044252357E+03  0.12509000000E+03 0.  0.
         25    1    3    3    0    0  0.63051430959E+02 -0.93977550119E+02  0.42653407008E+02  0.17399449446E+03  0.12509000000E+03 0.  0.
         25    1    4    4    0    0 -0.37934338648E+02  0.77706539607E+01  0.12187979301E+02  0.13151217454E+03  0.12509000000E+03 0.  0.
<mgrwt>
<rscale>  2 0.45511018E+03</rscale>
<asrwt>0</asrwt>
<pdfrwt beam="1">  1       21 0.41607798E-01 0.45511018E+03</pdfrwt>
<pdfrwt beam="2">  1       21 0.26914142E-01 0.45511018E+03</pdfrwt>
<totfact> 0.67679497E+04</totfact>
</mgrwt>
</event>
<event>
 7    0  0.4709932E-002  0.4585154E+03  0.7546771E-02  0.1025213E+00
         21   -1    0    0  502  501  0.00000000000E+00  0.00000000000E+00  0.13198761872E+04  0.13198761872E+04  0.00000000000E+00 0.  1.
         21   -1    0    0  501  502 -0.00000000000E+00 -0.00000000000E+00 -0.39821232577E+02  0.39821232577E+02  0.00000000000E+00 0.  1.
      99926    2    1    2    0    0  0.14210854715E-13  0.71054273576E-14  0.12800549546E+04  0.13596974198E+04  0.45851541576E+03 0.  0.
      99925    2    3    3    0    0  0.94678495919E+02  0.51405516765E+02  0.66914022105E+03  0.72686974612E+03  0.26264890569E+03 0.  0.
         25    1    4    4    0    0  0.68692846288E+02  0.20726105910E+02  0.43630781476E+03  0.45952181223E+03  0.12509000000E+03 0.  0.
         25    1    4    4    0    0  0.25985649631E+02  0.30679410855E+02  0.23283240629E+03  0.26734793389E+03  0.12509000000E+03 0.  0.
         25    1    3    3    0    0 -0.94678495919E+02 -0.51405516765E+02  0.61091473356E+03  0.63282767364E+03  0.12509000000E+03 0.  0.
<mgrwt>
<rscale>  2 0.45851542E+03</rscale>
<asrwt>0</asrwt>
<pdfrwt beam="1">  1       21 0.19409941E+00 0.45851542E+03</pdfrwt>
<pdfrwt beam="2">  1       21 0.58560645E-02 0.45851542E+03</pdfrwt>
<totfact> 0.26689319E+04</totfact>
</mgrwt>
</event>
<event>
 7    0  0.4709932E-002  0.4555944E+03  0.7546771E-02  0.1026067E+00
         21   -1    0    0  502  501  0.00000000000E+00  0.00000000000E+00  0.10442294743E+03  0.10442294743E+03  0.00000000000E+00 0.  1.
         21   -1    0    0  501  502 -0.00000000000E+00 -0.00000000000E+00 -0.49693640011E+03  0.49693640011E+03  0.00000000000E+00 0.  1.
      99926    2    1    2    0    0  0.00000000000E+00 -0.88817841970E-15 -0.39251345268E+03  0.60135934754E+03  0.45559439674E+03 0.  0.
      99925    2    3    3    0    0 -0.90449913869E+02 -0.59798051643E+01 -0.15619037408E+03  0.31902435048E+03  0.26299079500E+03 0.  0.
         25    1    4    4    0    0 -0.13290222061E+02  0.23149738064E+02 -0.63048857667E+02  0.14260156706E+03  0.12509000000E+03 0.  0.
         25    1    4    4    0    0 -0.77159691808E+02 -0.29129543228E+02 -0.93141516414E+02  0.17642278342E+03  0.12509000000E+03 0.  0.
         25    1    3    3    0    0  0.90449913869E+02  0.59798051643E+01 -0.23632307860E+03  0.28233499707E+03  0.12509000000E+03 0.  0.
<mgrwt>
<rscale>  2 0.45559440E+03</rscale>
<asrwt>0</asrwt>
<pdfrwt beam="1">  1       21 0.15356316E-01 0.45559440E+03</pdfrwt>
<pdfrwt beam="2">  1       21 0.73078883E-01 0.45559440E+03</pdfrwt>
<totfact> 0.58320301E+04</totfact>
</mgrwt>
</event>
<event>
 7    0  0.4709932E-002  0.4499721E+03  0.7546771E-02  0.1027730E+00
         21   -1    0    0  502  501  0.00000000000E+00  0.00000000000E+00  0.20874855663E+03  0.20874855663E+03  0.00000000000E+00 0.  1.
         21   -1    0    0  501  502 -0.00000000000E+00 -0.00000000000E+00 -0.24248658942E+03  0.24248658942E+03  0.00000000000E+00 0.  1.
      99926    2    1    2    0    0  0.00000000000E+00  0.00000000000E+00 -0.33738032790E+02  0.45123514604E+03  0.44997211266E+03 0.  0.
      99925    2    3    3    0    0  0.33851898286E+02 -0.44858942048E+02  0.71766948666E+02  0.27821178083E+03  0.26285551995E+03 0.  0.
         25    1    4    4    0    0  0.60991826791E+01  0.49472147899E+01  0.63469023893E+02  0.14049021339E+03  0.12509000000E+03 0.  0.
         25    1    4    4    0    0  0.27752715607E+02 -0.49806156838E+02  0.82979247735E+01  0.13772156744E+03  0.12509000000E+03 0.  0.
         25    1    3    3    0    0 -0.33851898286E+02  0.44858942048E+02 -0.10550498146E+03  0.17302336522E+03  0.12509000000E+03 0.  0.
<mgrwt>
<rscale>  2 0.44997211E+03</rscale>
<asrwt>0</asrwt>
<pdfrwt beam="1">  1       21 0.30698318E-01 0.44997211E+03</pdfrwt>
<pdfrwt beam="2">  1       21 0.35659792E-01 0.44997211E+03</pdfrwt>
<totfact> 0.71654157E+04</totfact>
</mgrwt>
</event>
<event>
 7    0  0.4709932E-002  0.4552471E+03  0.7546771E-02  0.1026169E+00
         21   -1    0    0  502  501  0.00000000000E+00  0.00000000000E+00  0.12149712888E+03  0.12149712888E+03  0.00000000000E+00 0. -1.
         21   -1    0    0  501  502 -0.00000000000E+00 -0.00000000000E+00 -0.42645023306E+03  0.42645023306E+03  0.00000000000E+00 0. -1.
      99926    2    1    2    0    0  0.00000000000E+00  0.00000000000E+00 -0.30495310418E+03  0.54794736194E+03  0.45524709302E+03 0.  0.
      99925    2    3    3    0    0  0.10437873222E+03  0.38745874633E+02 -0.16698703630E+03  0.33097200268E+03  0.26317605081E+03 0.  0.
         25    1    4    4    0    0  0.31344745700E+02  0.51107634779E+02 -0.99399610177E+02  0.17065249491E+03  0.12509000000E+03 0.  0.
         25    1    4    4    0    0  0.73033986516E+02 -0.12361760146E+02 -0.67587426128E+02  0.16031950777E+03  0.12509000000E+03 0.  0.
         25    1    3    3    0    0 -0.10437873222E+03 -0.38745874633E+02 -0.13796606788E+03  0.21697535926E+03  0.12509000000E+03 0.  0.
<mgrwt>
<rscale>  2 0.45524709E+03</rscale>
<asrwt>0</asrwt>
<pdfrwt beam="1">  1       21 0.17867225E-01 0.45524709E+03</pdfrwt>
<pdfrwt beam="2">  1       21 0.62713269E-01 0.45524709E+03</pdfrwt>
<totfact> 0.61881285E+04</totfact>
</mgrwt>
</event>
<event>
 7    0  0.4709932E-002  0.4515545E+03  0.7546771E-02  0.1027259E+00
         21   -1    0    0  502  501  0.00000000000E+00  0.00000000000E+00  0.14616313454E+04  0.14616313454E+04  0.00000000000E+00 0. -1.
         21   -1    0    0  501  502 -0.00000000000E+00 -0.00000000000E+00 -0.34875672197E+02  0.34875672197E+02  0.00000000000E+00 0. -1.
      99926    2    1    2    0    0  0.00000000000E+00 -0.35527136788E-14  0.14267556732E+04  0.14965070176E+04  0.45155454012E+03 0.  0.
      99925    2    3    3    0    0 -0.10559018338E+03 -0.29265306360E+02  0.92994856465E+03  0.97260764158E+03  0.26297442192E+03 0.  0.
         25    1    4    4    0    0 -0.14749258203E+02 -0.34368521681E+01  0.35594478671E+03  0.37758913101E+03  0.12509000000E+03 0.  0.
         25    1    3    3    0    0  0.10559018338E+03  0.29265306360E+02  0.49680710858E+03  0.52389937605E+03  0.12509000000E+03 0.  0.
         25    1    4    4    0    0 -0.90840925181E+02 -0.25828454192E+02  0.57400377794E+03  0.59501851057E+03  0.12509000000E+03 0.  0.
<mgrwt>
<rscale>  2 0.45155454E+03</rscale>
<asrwt>0</asrwt>
<pdfrwt beam="1">  1       21 0.21494575E+00 0.45155454E+03</pdfrwt>
<pdfrwt beam="2">  1       21 0.51287763E-02 0.45155454E+03</pdfrwt>
<totfact> 0.24514397E+04</totfact>
</mgrwt>
</event>
<event>
 7    0  0.4709932E-002  0.5007102E+03  0.7546771E-02  0.1013594E+00
         21   -1    0    0  502  501  0.00000000000E+00  0.00000000000E+00  0.45618712423E+03  0.45618712423E+03  0.00000000000E+00 0. -1.
         21   -1    0    0  501  502 -0.00000000000E+00 -0.00000000000E+00 -0.13739464147E+03  0.13739464147E+03  0.00000000000E+00 0. -1.
      99926    2    1    2    0    0  0.00000000000E+00  0.00000000000E+00  0.31879248276E+03  0.59358176570E+03  0.50071016118E+03 0.  0.
      99925    2    3    3    0    0  0.12498922299E+03  0.63477780968E+02  0.12345448578E+03  0.32255376769E+03  0.26296043135E+03 0.  0.
         25    1    4    4    0    0  0.66874281184E+02  0.11864399463E+02  0.22755354375E+02  0.14414661880E+03  0.12509000000E+03 0.  0.
         25    1    4    4    0    0  0.58114941807E+02  0.51613381505E+02  0.10069913140E+03  0.17840714890E+03  0.12509000000E+03 0.  0.
         25    1    3    3    0    0 -0.12498922299E+03 -0.63477780968E+02  0.19533799698E+03  0.27102799801E+03  0.12509000000E+03 0.  0.
<mgrwt>
<rscale>  2 0.50071016E+03</rscale>
<asrwt>0</asrwt>
<pdfrwt beam="1">  1       21 0.67086341E-01 0.50071016E+03</pdfrwt>
<pdfrwt beam="2">  1       21 0.20205094E-01 0.50071016E+03</pdfrwt>
<totfact> 0.41793521E+04</totfact>
</mgrwt>
</event>
<event>
 7    0  0.4709932E-002  0.4599245E+03  0.7546771E-02  0.1024803E+00
         21   -1    0    0  502  501  0.00000000000E+00  0.00000000000E+00  0.52381271373E+03  0.52381271373E+03  0.00000000000E+00 0. -1.
         21   -1    0    0  501  502 -0.00000000000E+00 -0.00000000000E+00 -0.10095716425E+03  0.10095716425E+03  0.00000000000E+00 0. -1.
      99926    2    1    2    0    0  0.14210854715E-13 -0.17763568394E-14  0.42285554947E+03  0.62476987798E+03  0.45992454241E+03 0.  0.
      99925    2    3    3    0    0  0.11738323829E+03  0.84153394963E+01  0.25656581200E+03  0.38571041370E+03  0.26286282503E+03 0.  0.
         25    1    4    4    0    0  0.96313154467E+02 -0.16472157694E+02  0.14034480797E+03  0.21187668330E+03  0.12509000000E+03 0.  0.
         25    1    4    4    0    0  0.21070083825E+02  0.24887497190E+02  0.11622100403E+03  0.17383373040E+03  0.12509000000E+03 0.  0.
         25    1    3    3    0    0 -0.11738323829E+03 -0.84153394963E+01  0.16628973748E+03  0.23905946428E+03  0.12509000000E+03 0.  0.
<mgrwt>
<rscale>  2 0.45992454E+03</rscale>
<asrwt>0</asrwt>
<pdfrwt beam="1">  1       21 0.77031280E-01 0.45992454E+03</pdfrwt>
<pdfrwt beam="2">  1       21 0.14846642E-01 0.45992454E+03</pdfrwt>
<totfact> 0.55008674E+04</totfact>
</mgrwt>
</event>
<event>
 6    0  0.4709932E-002  0.4608238E+03  0.7546771E-02  0.1024543E+00
         21   -1    0    0  502  501  0.00000000000E+00  0.00000000000E+00  0.23407711990E+03  0.23407711990E+03  0.00000000000E+00 0. -1.
         21   -1    0    0  501  502 -0.00000000000E+00 -0.00000000000E+00 -0.22680411640E+03  0.22680411640E+03  0.00000000000E+00 0. -1.
      99926    2    1    2    0    0 -0.14210854715E-13 -0.17763568394E-14  0.72730035028E+01  0.46088123630E+03  0.46082384638E+03 0.  0.
         25    1    3    3    0    0 -0.72506734629E+02 -0.67780816552E+02 -0.36112340432E+00  0.15968438925E+03  0.12509000000E+03 0.  0.
         25    1    3    3    0    0  0.10067251165E+03  0.11254594973E+02  0.51984777394E+01  0.16104705145E+03  0.12509000000E+03 0.  0.
         25    1    3    3    0    0 -0.28165777021E+02  0.56526221579E+02  0.24356491677E+01  0.14014979560E+03  0.12509000000E+03 0.  0.
<mgrwt>
<rscale>  2 0.46082385E+03</rscale>
<asrwt>0</asrwt>
<pdfrwt beam="1">  1       21 0.34423106E-01 0.46082385E+03</pdfrwt>
<pdfrwt beam="2">  1       21 0.33353547E-01 0.46082385E+03</pdfrwt>
<totfact> 0.65041745E+04</totfact>
</mgrwt>
</event>
<event>
 7    0  0.4709932E-002  0.4568779E+03  0.7546771E-02  0.1025691E+00
         21   -1    0    0  502  501  0.00000000000E+00  0.00000000000E+00  0.39349444904E+03  0.39349444904E+03  0.00000000000E+00 0. -1.
         21   -1    0    0  501  502 -0.00000000000E+00 -0.00000000000E+00 -0.13261776361E+03  0.13261776361E+03  0.00000000000E+00 0. -1.
      99926    2    1    2    0    0  0.00000000000E+00 -0.14210854715E-13  0.26087668543E+03  0.52611221265E+03  0.45687789977E+03 0.  0.
      99925    2    3    3    0    0  0.63407303828E+02  0.95756283355E+02  0.16527715163E+03  0.33123653191E+03  0.26308050335E+03 0.  0.
         25    1    3    3    0    0 -0.63407303828E+02 -0.95756283355E+02  0.95599533796E+02  0.19487568074E+03  0.12509000000E+03 0.  0.
         25    1    4    4    0    0  0.32325558451E+02  0.37650374309E+02  0.35162064130E+02  0.13909123362E+03  0.12509000000E+03 0.  0.
         25    1    4    4    0    0  0.31081745377E+02  0.58105909047E+02  0.13011508750E+03  0.19214529830E+03  0.12509000000E+03 0.  0.
<mgrwt>
<rscale>  2 0.45687790E+03</rscale>
<asrwt>0</asrwt>
<pdfrwt beam="1">  1       21 0.57866830E-01 0.45687790E+03</pdfrwt>
<pdfrwt beam="2">  1       21 0.19502613E-01 0.45687790E+03</pdfrwt>
<totfact> 0.62534347E+04</totfact>
</mgrwt>
</event>
<event>
 7    0  0.4709932E-002  0.4546294E+03  0.7546771E-02  0.1026350E+00
         21   -1    0    0  502  501  0.00000000000E+00  0.00000000000E+00  0.94078959536E+03  0.94078959536E+03  0.00000000000E+00 0.  1.
         21   -1    0    0  501  502 -0.00000000000E+00 -0.00000000000E+00 -0.54924047318E+02  0.54924047318E+02  0.00000000000E+00 0.  1.
      99926    2    1    2    0    0  0.00000000000E+00  0.00000000000E+00  0.88586554804E+03  0.99571364268E+03  0.45462939743E+03 0.  0.
      99925    2    3    3    0    0  0.60665120390E+02  0.85691348329E+02  0.46737424928E+03  0.54648570582E+03  0.26302979635E+03 0.  0.
         25    1    4    4    0    0  0.54547972901E+02  0.44642262795E+02  0.17938273371E+03  0.22976963731E+03  0.12509000000E+03 0.  0.
         25    1    3    3    0    0 -0.60665120390E+02 -0.85691348329E+02  0.41849129876E+03  0.44922793685E+03  0.12509000000E+03 0.  0.
         25    1    4    4    0    0  0.61171474892E+01  0.41049085533E+02  0.28799151557E+03  0.31671606851E+03  0.12509000000E+03 0.  0.
<mgrwt>
<rscale>  2 0.45462940E+03</rscale>
<asrwt>0</asrwt>
<pdfrwt beam="1">  1       21 0.13835140E+00 0.45462940E+03</pdfrwt>
<pdfrwt beam="2">  1       21 0.80770664E-02 0.45462940E+03</pdfrwt>
<totfact> 0.39447982E+04</totfact>
</mgrwt>
</event>
<event>
 7    0  0.4709932E-002  0.4383174E+03  0.7546771E-02  0.1031264E+00
         21   -1    0    0  502  501  0.00000000000E+00  0.00000000000E+00  0.30722895145E+02  0.30722895145E+02  0.00000000000E+00 0.  1.
         21   -1    0    0  501  502 -0.00000000000E+00 -0.00000000000E+00 -0.15633466121E+04  0.15633466121E+04  0.00000000000E+00 0.  1.
      99926    2    1    2    0    0  0.00000000000E+00  0.71054273576E-14 -0.15326237169E+04  0.15940695072E+04  0.43831739203E+03 0.  0.
      99925    2    3    3    0    0  0.57131434405E+02  0.61872194644E+02 -0.11525709802E+04  0.11851932911E+04  0.26300399947E+03 0.  0.
         25    1    4    4    0    0  0.31864385578E+02  0.64748032382E+02 -0.50925039008E+03  0.52933081779E+03  0.12509000000E+03 0.  0.
         25    1    3    3    0    0 -0.57131434405E+02 -0.61872194644E+02 -0.38005273675E+03  0.40887621609E+03  0.12509000000E+03 0.  0.
         25    1    4    4    0    0  0.25267048827E+02 -0.28758377373E+01 -0.64332059008E+03  0.65586247333E+03  0.12509000000E+03 0.  0.
<mgrwt>
<rscale>  2 0.43831739E+03</rscale>
<asrwt>0</asrwt>
<pdfrwt beam="1">  1       21 0.45180738E-02 0.43831739E+03</pdfrwt>
<pdfrwt beam="2">  1       21 0.22990386E+00 0.43831739E+03</pdfrwt>
<totfact> 0.24599954E+04</totfact>
</mgrwt>
</event>
<event>
 7    0  0.4709932E-002  0.4629774E+03  0.7546771E-02  0.1023921E+00
         21   -1    0    0  502  501  0.00000000000E+00  0.00000000000E+00  0.94915394113E+02  0.94915394113E+02  0.00000000000E+00 0. -1.
         21   -1    0    0  501  502 -0.00000000000E+00 -0.00000000000E+00 -0.56457663827E+03  0.56457663827E+03  0.00000000000E+00 0. -1.
      99926    2    1    2    0    0  0.00000000000E+00 -0.17763568394E-14 -0.46966124415E+03  0.65949203238E+03  0.46297738229E+03 0.  0.
      99925    2    3    3    0    0 -0.17742903818E+02  0.15598292264E+02 -0.12528208151E+03  0.29233725150E+03  0.26307290113E+03 0.  0.
         25    1    4    4    0    0 -0.22730819962E+02 -0.16972477403E+02 -0.30141596179E+02  0.13176030922E+03  0.12509000000E+03 0.  0.
         25    1    3    3    0    0  0.17742903818E+02 -0.15598292264E+02 -0.34437916265E+03  0.36715478088E+03  0.12509000000E+03 0.  0.
         25    1    4    4    0    0  0.49879161443E+01  0.32570769667E+02 -0.95140485329E+02  0.16057694228E+03  0.12509000000E+03 0.  0.
<mgrwt>
<rscale>  2 0.46297738E+03</rscale>
<asrwt>0</asrwt>
<pdfrwt beam="1">  1       21 0.13958146E-01 0.46297738E+03</pdfrwt>
<pdfrwt beam="2">  1       21 0.83025979E-01 0.46297738E+03</pdfrwt>
<totfact> 0.51819772E+04</totfact>
</mgrwt>
</event>
<event>
 7    0  0.4709932E-002  0.4552837E+03  0.7546771E-02  0.1026158E+00
         21   -1    0    0  502  501  0.00000000000E+00  0.00000000000E+00  0.87225974654E+03  0.87225974654E+03  0.00000000000E+00 0. -1.
         21   -1    0    0  501  502 -0.00000000000E+00 -0.00000000000E+00 -0.59409842850E+02  0.59409842850E+02  0.00000000000E+00 0. -1.
      99926    2    1    2    0    0  0.71054273576E-14  0.00000000000E+00  0.81284990369E+03  0.93166958940E+03  0.45528371140E+03 0.  0.
      99925    2    3    3    0    0 -0.48043240793E+02  0.88861995369E+02  0.61672620976E+03  0.67806237611E+03  0.26308318245E+03 0.  0.
         25    1    4    4    0    0  0.57760860108E+01  0.39937473971E+02  0.22652604654E+03  0.26189677901E+03  0.12509000000E+03 0.  0.
         25    1    3    3    0    0  0.48043240793E+02 -0.88861995369E+02  0.19612369394E+03  0.25360721329E+03  0.12509000000E+03 0.  0.
         25    1    4    4    0    0 -0.53819326803E+02  0.48924521398E+02  0.39020016322E+03  0.41616559710E+03  0.12509000000E+03 0.  0.
<mgrwt>
<rscale>  2 0.45528371E+03</rscale>
<asrwt>0</asrwt>
<pdfrwt beam="1">  1       21 0.12827348E+00 0.45528371E+03</pdfrwt>
<pdfrwt beam="2">  1       21 0.87367421E-02 0.45528371E+03</pdfrwt>
<totfact> 0.41799299E+04</totfact>
</mgrwt>
</event>
<event>
 7    0  0.4709932E-002  0.4524340E+03  0.7546771E-02  0.1026999E+00
         21   -1    0    0  502  501  0.00000000000E+00  0.00000000000E+00  0.30875413585E+03  0.30875413585E+03  0.00000000000E+00 0.  1.
         21   -1    0    0  501  502 -0.00000000000E+00 -0.00000000000E+00 -0.16574398018E+03  0.16574398018E+03  0.00000000000E+00 0.  1.
      99926    2    1    2    0    0  0.00000000000E+00  0.00000000000E+00  0.14301015567E+03  0.47449811604E+03  0.45243403662E+03 0.  0.
      99925    2    3    3    0    0 -0.17636918230E+02  0.97878141928E+02  0.39301433723E+02  0.28398775238E+03  0.26308411061E+03 0.  0.
         25    1    3    3    0    0  0.17636918230E+02 -0.97878141928E+02  0.10370872195E+03  0.19051036365E+03  0.12509000000E+03 0.  0.
         25    1    4    4    0    0  0.34768955304E+01  0.65291479052E+02  0.56199875649E+02  0.15192432380E+03  0.12509000000E+03 0.  0.
         25    1    4    4    0    0 -0.21113813760E+02  0.32586662876E+02 -0.16898441926E+02  0.13206342858E+03  0.12509000000E+03 0.  0.
<mgrwt>
<rscale>  2 0.45243404E+03</rscale>
<asrwt>0</asrwt>
<pdfrwt beam="1">  1       21 0.45405020E-01 0.45243404E+03</pdfrwt>
<pdfrwt beam="2">  1       21 0.24374115E-01 0.45243404E+03</pdfrwt>
<totfact> 0.68486907E+04</totfact>
</mgrwt>
</event>
<event>
 7    0  0.4709932E-002  0.4539206E+03  0.7546771E-02  0.1026559E+00
         21   -1    0    0  502  501  0.00000000000E+00  0.00000000000E+00  0.10415014997E+03  0.10415014997E+03  0.00000000000E+00 0.  1.
         21   -1    0    0  501  502 -0.00000000000E+00 -0.00000000000E+00 -0.49458381362E+03  0.49458381362E+03  0.00000000000E+00 0.  1.
      99926    2    1    2    0    0 -0.14210854715E-13 -0.71054273576E-14 -0.39043366365E+03  0.59873396359E+03  0.45392060258E+03 0.  0.
      99925    2    3    3    0    0 -0.83595643555E+02 -0.38394683709E+02 -0.33026549588E+03  0.43221039207E+03  0.26318841519E+03 0.  0.
         25    1    3    3    0    0  0.83595643555E+02  0.38394683709E+02 -0.60168167773E+02  0.16652357152E+03  0.12509000000E+03 0.  0.
         25    1    4    4    0    0 -0.48226819462E+02 -0.58289599568E+02 -0.15459024567E+03  0.21276549459E+03  0.12509000000E+03 0.  0.
         25    1    4    4    0    0 -0.35368824093E+02  0.19894915860E+02 -0.17567525021E+03  0.21944489748E+03  0.12509000000E+03 0.  0.
<mgrwt>
<rscale>  2 0.45392060E+03</rscale>
<asrwt>0</asrwt>
<pdfrwt beam="1">  1       21 0.15316199E-01 0.45392060E+03</pdfrwt>
<pdfrwt beam="2">  1       21 0.72732913E-01 0.45392060E+03</pdfrwt>
<totfact> 0.59260069E+04</totfact>
</mgrwt>
</event>
<event>
 7    0  0.4709932E-002  0.4452154E+03  0.7546771E-02  0.1029159E+00
         21   -1    0    0  502  501  0.00000000000E+00  0.00000000000E+00  0.30452419539E+03  0.30452419539E+03  0.00000000000E+00 0. -1.
         21   -1    0    0  501  502 -0.00000000000E+00 -0.00000000000E+00 -0.16272662028E+03  0.16272662028E+03  0.00000000000E+00 0. -1.
      99926    2    1    2    0    0  0.00000000000E+00  0.00000000000E+00  0.14179757511E+03  0.46725081567E+03  0.44521542251E+03 0.  0.
      99925    2    3    3    0    0  0.66780498542E+02 -0.77615147937E+01  0.71713111579E+01  0.27156838125E+03  0.26301726539E+03 0.  0.
         25    1    4    4    0    0  0.31075256668E+01  0.24075628777E+02 -0.68939167685E+00  0.12742557034E+03  0.12509000000E+03 0.  0.
         25    1    3    3    0    0 -0.66780498542E+02  0.77615147937E+01  0.13462626395E+03  0.19568243442E+03  0.12509000000E+03 0.  0.
         25    1    4    4    0    0  0.63672972875E+02 -0.31837143571E+02  0.78607028347E+01  0.14414281090E+03  0.12509000000E+03 0.  0.
<mgrwt>
<rscale>  2 0.44521542E+03</rscale>
<asrwt>0</asrwt>
<pdfrwt beam="1">  1       21 0.44782970E-01 0.44521542E+03</pdfrwt>
<pdfrwt beam="2">  1       21 0.23930385E-01 0.44521542E+03</pdfrwt>
<totfact> 0.73157648E+04</totfact>
</mgrwt>
</event>
<event>
 7    0  0.4709932E-002  0.4499251E+03  0.7546771E-02  0.1027744E+00
         21   -1    0    0  502  501  0.00000000000E+00  0.00000000000E+00  0.34424651178E+02  0.34424651178E+02  0.00000000000E+00 0.  1.
         21   -1    0    0  501  502 -0.00000000000E+00 -0.00000000000E+00 -0.14701136426E+04  0.14701136426E+04  0.00000000000E+00 0.  1.
      99926    2    1    2    0    0 -0.88817841970E-15  0.00000000000E+00 -0.14356889915E+04  0.15045382938E+04  0.44992510194E+03 0.  0.
      99925    2    3    3    0    0  0.44935981928E+01  0.44080062877E+02 -0.57712769757E+03  0.63578156847E+03  0.26301821065E+03 0.  0.
         25    1    4    4    0    0  0.13638849582E+02 -0.17222717204E+02 -0.28430667275E+03  0.31138470174E+03  0.12509000000E+03 0.  0.
         25    1    4    4    0    0 -0.91452513895E+01  0.61302780082E+02 -0.29282102482E+03  0.32439686673E+03  0.12509000000E+03 0.  0.
         25    1    3    3    0    0 -0.44935981928E+01 -0.44080062877E+02 -0.85856129389E+03  0.86875672535E+03  0.12509000000E+03 0.  0.
<mgrwt>
<rscale>  2 0.44992510E+03</rscale>
<asrwt>0</asrwt>
<pdfrwt beam="1">  1       21 0.50624488E-02 0.44992510E+03</pdfrwt>
<pdfrwt beam="2">  1       21 0.21619318E+00 0.44992510E+03</pdfrwt>
<totfact> 0.24624560E+04</totfact>
</mgrwt>
</event>
<event>
 7    0  0.4709932E-002  0.4585755E+03  0.7546771E-02  0.1025195E+00
         21   -1    0    0  502  501  0.00000000000E+00  0.00000000000E+00  0.29597362770E+02  0.29597362770E+02  0.00000000000E+00 0. -1.
         21   -1    0    0  501  502 -0.00000000000E+00 -0.00000000000E+00 -0.17762690324E+04  0.17762690324E+04  0.00000000000E+00 0. -1.
      99926    2    1    2    0    0  0.00000000000E+00  0.71054273576E-14 -0.17466716696E+04  0.18058663951E+04  0.45857552891E+03 0.  0.
      99925    2    3    3    0    0 -0.41763076837E+02  0.53907402259E+02 -0.72328977007E+03  0.77261512706E+03  0.26293702757E+03 0.  0.
         25    1    4    4    0    0  0.17534644302E+02  0.27258406458E+02 -0.30638682981E+03  0.33252200237E+03  0.12509000000E+03 0.  0.
         25    1    3    3    0    0  0.41763076837E+02 -0.53907402259E+02 -0.10233818995E+04  0.10332512681E+04  0.12509000000E+03 0.  0.
         25    1    4    4    0    0 -0.59297721139E+02  0.26648995801E+02 -0.41690294025E+03  0.44009312469E+03  0.12509000000E+03 0.  0.
<mgrwt>
<rscale>  2 0.45857553E+03</rscale>
<asrwt>0</asrwt>
<pdfrwt beam="1">  1       21 0.43525526E-02 0.45857553E+03</pdfrwt>
<pdfrwt beam="2">  1       21 0.26121608E+00 0.45857553E+03</pdfrwt>
<totfact> 0.16679183E+04</totfact>
</mgrwt>
</event>
<event>
 7    0  0.4709932E-002  0.4624180E+03  0.7546771E-02  0.1024082E+00
         21   -1    0    0  502  501  0.00000000000E+00  0.00000000000E+00  0.45891620857E+02  0.45891620857E+02  0.00000000000E+00 0.  1.
         21   -1    0    0  501  502 -0.00000000000E+00 -0.00000000000E+00 -0.11648660641E+04  0.11648660641E+04  0.00000000000E+00 0.  1.
      99926    2    1    2    0    0 -0.88817841970E-15  0.00000000000E+00 -0.11189744433E+04  0.12107576850E+04  0.46241795710E+03 0.  0.
      99925    2    3    3    0    0 -0.45434805494E+01 -0.98048112830E+02 -0.88037943783E+03  0.92403628647E+03  0.26294681688E+03 0.  0.
         25    1    4    4    0    0  0.15641167027E+02 -0.35861968811E+02 -0.53735122871E+03  0.55310449104E+03  0.12509000000E+03 0.  0.
         25    1    4    4    0    0 -0.20184647576E+02 -0.62186144019E+02 -0.34302820912E+03  0.37093179542E+03  0.12509000000E+03 0.  0.
         25    1    3    3    0    0  0.45434805494E+01  0.98048112830E+02 -0.23859500542E+03  0.28672139850E+03  0.12509000000E+03 0.  0.
<mgrwt>
<rscale>  2 0.46241796E+03</rscale>
<asrwt>0</asrwt>
<pdfrwt beam="1">  1       21 0.67487678E-02 0.46241796E+03</pdfrwt>
<pdfrwt beam="2">  1       21 0.17130383E+00 0.46241796E+03</pdfrwt>
<totfact> 0.30043055E+04</totfact>
</mgrwt>
</event>
<event>
 7    0  0.4709932E-002  0.4527009E+03  0.7546771E-02  0.1026920E+00
         21   -1    0    0  502  501  0.00000000000E+00  0.00000000000E+00  0.45702508876E+02  0.45702508876E+02  0.00000000000E+00 0.  1.
         21   -1    0    0  501  502 -0.00000000000E+00 -0.00000000000E+00 -0.11210439085E+04  0.11210439085E+04  0.00000000000E+00 0.  1.
      99926    2    1    2    0    0  0.00000000000E+00  0.00000000000E+00 -0.10753413997E+04  0.11667464174E+04  0.45270086892E+03 0.  0.
      99925    2    3    3    0    0  0.15840541342E+02 -0.76015188911E+02 -0.88263213528E+03  0.92423126247E+03  0.26293479917E+03 0.  0.
         25    1    4    4    0    0  0.25543369955E+02 -0.22376266448E+02 -0.54205455008E+03  0.55733634765E+03  0.12509000000E+03 0.  0.
         25    1    4    4    0    0 -0.97028286133E+01 -0.53638922464E+02 -0.34057758520E+03  0.36689491483E+03  0.12509000000E+03 0.  0.
         25    1    3    3    0    0 -0.15840541342E+02  0.76015188911E+02 -0.19270926438E+03  0.24251515494E+03  0.12509000000E+03 0.  0.
<mgrwt>
<rscale>  2 0.45270087E+03</rscale>
<asrwt>0</asrwt>
<pdfrwt beam="1">  1       21 0.67209568E-02 0.45270087E+03</pdfrwt>
<pdfrwt beam="2">  1       21 0.16485941E+00 0.45270087E+03</pdfrwt>
<totfact> 0.33830172E+04</totfact>
</mgrwt>
</event>
<event>
 7    0  0.4709932E-002  0.3981312E+03  0.7546771E-02  0.1044429E+00
         21   -1    0    0  502  501  0.00000000000E+00  0.00000000000E+00  0.24320480777E+03  0.24320480777E+03  0.00000000000E+00 0.  1.
         21   -1    0    0  501  502 -0.00000000000E+00 -0.00000000000E+00 -0.16293724059E+03  0.16293724059E+03  0.00000000000E+00 0.  1.
      99926    2    1    2    0    0 -0.35527136788E-14 -0.35527136788E-14  0.80267567182E+02  0.40614204836E+03  0.39813123603E+03 0.  0.
      99925    2    3    3    0    0  0.19333030095E+02  0.28138595122E+02  0.77473442556E+02  0.27644678314E+03  0.26316371904E+03 0.  0.
         25    1    4    4    0    0 -0.26747308230E+02  0.30747835910E+01  0.21685757441E+02  0.12977924706E+03  0.12509000000E+03 0.  0.
         25    1    4    4    0    0  0.46080338325E+02  0.25063811531E+02  0.55787685115E+02  0.14666753608E+03  0.12509000000E+03 0.  0.
         25    1    3    3    0    0 -0.19333030095E+02 -0.28138595122E+02  0.27941246261E+01  0.12969526522E+03  0.12509000000E+03 0.  0.
<mgrwt>
<rscale>  2 0.39813124E+03</rscale>
<asrwt>0</asrwt>
<pdfrwt beam="1">  1       21 0.35765413E-01 0.39813124E+03</pdfrwt>
<pdfrwt beam="2">  1       21 0.23961359E-01 0.39813124E+03</pdfrwt>
<totfact> 0.11700104E+05</totfact>
</mgrwt>
</event>
<event>
 7    0  0.4709932E-002  0.4522257E+03  0.7546771E-02  0.1027060E+00
         21   -1    0    0  502  501  0.00000000000E+00  0.00000000000E+00  0.23763035220E+03  0.23763035220E+03  0.00000000000E+00 0. -1.
         21   -1    0    0  501  502 -0.00000000000E+00 -0.00000000000E+00 -0.21515362567E+03  0.21515362567E+03  0.00000000000E+00 0. -1.
      99926    2    1    2    0    0 -0.71054273576E-14  0.00000000000E+00  0.22476726533E+02  0.45278397787E+03  0.45222574825E+03 0.  0.
      99925    2    3    3    0    0 -0.40937275437E+02 -0.74887568778E+02  0.84779607415E+02  0.28903671669E+03  0.26281292450E+03 0.  0.
         25    1    4    4    0    0 -0.34784048682E+02 -0.85587018557E+00  0.27741305417E+02  0.13276953974E+03  0.12509000000E+03 0.  0.
         25    1    3    3    0    0  0.40937275437E+02  0.74887568778E+02 -0.62302880882E+02  0.16374726118E+03  0.12509000000E+03 0.  0.
         25    1    4    4    0    0 -0.61532267542E+01 -0.74031698592E+02  0.57038301998E+02  0.15626717695E+03  0.12509000000E+03 0.  0.
<mgrwt>
<rscale>  2 0.45222575E+03</rscale>
<asrwt>0</asrwt>
<pdfrwt beam="1">  1       21 0.34945640E-01 0.45222575E+03</pdfrwt>
<pdfrwt beam="2">  1       21 0.31640239E-01 0.45222575E+03</pdfrwt>
<totfact> 0.70250663E+04</totfact>
</mgrwt>
</event>
<event>
 7    0  0.4709932E-002  0.4595253E+03  0.7546771E-02  0.1024919E+00
         21   -1    0    0  502  501  0.00000000000E+00  0.00000000000E+00  0.56480890516E+03  0.56480890516E+03  0.00000000000E+00 0.  1.
         21   -1    0    0  501  502 -0.00000000000E+00 -0.00000000000E+00 -0.93466799650E+02  0.93466799650E+02  0.00000000000E+00 0.  1.
      99926    2    1    2    0    0  0.00000000000E+00  0.00000000000E+00  0.47134210551E+03  0.65827570481E+03  0.45952532370E+03 0.  0.
      99925    2    3    3    0    0 -0.16380884039E+02 -0.28872660939E+02  0.45664159923E+03  0.52802373018E+03  0.26303145357E+03 0.  0.
         25    1    4    4    0    0  0.12185047683E+02 -0.34066440629E+02  0.28787175717E+03  0.31595356374E+03  0.12509000000E+03 0.  0.
         25    1    4    4    0    0 -0.28565931722E+02  0.51937796908E+01  0.16876984206E+03  0.21207016644E+03  0.12509000000E+03 0.  0.
         25    1    3    3    0    0  0.16380884039E+02  0.28872660939E+02  0.14700506280E+02  0.13025197464E+03  0.12509000000E+03 0.  0.
<mgrwt>
<rscale>  2 0.45952532E+03</rscale>
<asrwt>0</asrwt>
<pdfrwt beam="1">  1       21 0.83060131E-01 0.45952532E+03</pdfrwt>
<pdfrwt beam="2">  1       21 0.13745118E-01 0.45952532E+03</pdfrwt>
<totfact> 0.53299241E+04</totfact>
</mgrwt>
</event>
<event>
 7    0  0.4709932E-002  0.4491897E+03  0.7546771E-02  0.1027964E+00
         21   -1    0    0  502  501  0.00000000000E+00  0.00000000000E+00  0.46067781451E+02  0.46067781451E+02  0.00000000000E+00 0.  1.
         21   -1    0    0  501  502 -0.00000000000E+00 -0.00000000000E+00 -0.10949702033E+04  0.10949702033E+04  0.00000000000E+00 0.  1.
      99926    2    1    2    0    0  0.00000000000E+00  0.14210854715E-13 -0.10489024218E+04  0.11410379847E+04  0.44918970611E+03 0.  0.
      99925    2    3    3    0    0  0.59405739886E+01 -0.99775773076E+02 -0.56239540997E+03  0.62885923077E+03  0.26303011171E+03 0.  0.
         25    1    4    4    0    0 -0.16434942378E+02 -0.32651892523E+02 -0.33945593552E+03  0.36361255985E+03  0.12509000000E+03 0.  0.
         25    1    4    4    0    0  0.22375516367E+02 -0.67123880553E+02 -0.22293947444E+03  0.26524667093E+03  0.12509000000E+03 0.  0.
         25    1    3    3    0    0 -0.59405739886E+01  0.99775773076E+02 -0.48650701186E+03  0.51217875395E+03  0.12509000000E+03 0.  0.
<mgrwt>
<rscale>  2 0.44918971E+03</rscale>
<asrwt>0</asrwt>
<pdfrwt beam="1">  1       21 0.67746746E-02 0.44918971E+03</pdfrwt>
<pdfrwt beam="2">  1       21 0.16102501E+00 0.44918971E+03</pdfrwt>
<totfact> 0.35671301E+04</totfact>
</mgrwt>
</event>
<event>
 7    0  0.4709932E-002  0.4552720E+03  0.7546771E-02  0.1026161E+00
         21   -1    0    0  502  501  0.00000000000E+00  0.00000000000E+00  0.42293413100E+03  0.42293413100E+03  0.00000000000E+00 0. -1.
         21   -1    0    0  501  502 -0.00000000000E+00 -0.00000000000E+00 -0.12252061184E+03  0.12252061184E+03  0.00000000000E+00 0. -1.
      99926    2    1    2    0    0  0.00000000000E+00  0.00000000000E+00  0.30041351916E+03  0.54545474284E+03  0.45527200001E+03 0.  0.
      99925    2    3    3    0    0  0.79887791378E+02 -0.17880914967E+02  0.28294158161E+03  0.39494041451E+03  0.26309733195E+03 0.  0.
         25    1    4    4    0    0  0.48366900703E+02 -0.28197795558E+01  0.87079846999E+02  0.15993034763E+03  0.12509000000E+03 0.  0.
         25    1    4    4    0    0  0.31520890675E+02 -0.15061135411E+02  0.19586173461E+03  0.23501006688E+03  0.12509000000E+03 0.  0.
         25    1    3    3    0    0 -0.79887791378E+02  0.17880914967E+02  0.17471937554E+02  0.15051432833E+03  0.12509000000E+03 0.  0.
<mgrwt>
<rscale>  2 0.45527200E+03</rscale>
<asrwt>0</asrwt>
<pdfrwt beam="1">  1       21 0.62196195E-01 0.45527200E+03</pdfrwt>
<pdfrwt beam="2">  1       21 0.18017737E-01 0.45527200E+03</pdfrwt>
<totfact> 0.62034246E+04</totfact>
</mgrwt>
</event>
<event>
 7    0  0.4709932E-002  0.4555966E+03  0.7546771E-02  0.1026066E+00
         21   -1    0    0  502  501  0.00000000000E+00  0.00000000000E+00  0.36155967955E+03  0.36155967955E+03  0.00000000000E+00 0.  1.
         21   -1    0    0  501  502 -0.00000000000E+00 -0.00000000000E+00 -0.14352282958E+03  0.14352282958E+03  0.00000000000E+00 0.  1.
      99926    2    1    2    0    0  0.00000000000E+00  0.00000000000E+00  0.21803684997E+03  0.50508250912E+03  0.45559661223E+03 0.  0.
      99925    2    3    3    0    0 -0.88656811031E+02  0.63018591834E+02  0.10098615688E+03  0.30215457632E+03  0.26318778667E+03 0.  0.
         25    1    3    3    0    0  0.88656811031E+02 -0.63018591834E+02  0.11705069310E+03  0.20292793281E+03  0.12509000000E+03 0.  0.
         25    1    4    4    0    0 -0.55647892225E+02  0.27997807667E+02  0.93057389916E+02  0.16789208159E+03  0.12509000000E+03 0.  0.
         25    1    4    4    0    0 -0.33008918806E+02  0.35020784167E+02  0.79287669592E+01  0.13426249473E+03  0.12509000000E+03 0.  0.
<mgrwt>
<rscale>  2 0.45559661E+03</rscale>
<asrwt>0</asrwt>
<pdfrwt beam="1">  1       21 0.53170541E-01 0.45559661E+03</pdfrwt>
<pdfrwt beam="2">  1       21 0.21106299E-01 0.45559661E+03</pdfrwt>
<totfact> 0.64608559E+04</totfact>
</mgrwt>
</event>
<event>
 7    0  0.4709932E-002  0.4582745E+03  0.7546771E-02  0.1025283E+00
         21   -1    0    0  502  501  0.00000000000E+00  0.00000000000E+00  0.94258616895E+02  0.94258616895E+02  0.00000000000E+00 0.  1.
         21   -1    0    0  501  502 -0.00000000000E+00 -0.00000000000E+00 -0.55701946526E+03  0.55701946526E+03  0.00000000000E+00 0.  1.
      99926    2    1    2    0    0  0.00000000000E+00 -0.71054273576E-14 -0.46276084837E+03  0.65127808216E+03  0.45827452200E+03 0.  0.
      99925    2    3    3    0    0  0.73767596502E+02 -0.43267774109E+02 -0.40216609132E+03  0.48808190802E+03  0.26300689224E+03 0.  0.
         25    1    3    3    0    0 -0.73767596502E+02  0.43267774109E+02 -0.60594757050E+02  0.16319617413E+03  0.12509000000E+03 0.  0.
         25    1    4    4    0    0  0.77451522226E+02 -0.28722975210E+02 -0.20150588644E+03  0.25114911501E+03  0.12509000000E+03 0.  0.
         25    1    4    4    0    0 -0.36839257239E+01 -0.14544798899E+02 -0.20066020488E+03  0.23693279301E+03  0.12509000000E+03 0.  0.
<mgrwt>
<rscale>  2 0.45827452E+03</rscale>
<asrwt>0</asrwt>
<pdfrwt beam="1">  1       21 0.13861561E-01 0.45827452E+03</pdfrwt>
<pdfrwt beam="2">  1       21 0.81914631E-01 0.45827452E+03</pdfrwt>
<totfact> 0.54213825E+04</totfact>
</mgrwt>
</event>
<event>
 7    0  0.4709932E-002  0.4382553E+03  0.7546771E-02  0.1031283E+00
         21   -1    0    0  502  501  0.00000000000E+00  0.00000000000E+00  0.12549618016E+03  0.12549618016E+03  0.00000000000E+00 0.  1.
         21   -1    0    0  501  502 -0.00000000000E+00 -0.00000000000E+00 -0.38261659807E+03  0.38261659807E+03  0.00000000000E+00 0.  1.
      99926    2    1    2    0    0  0.00000000000E+00  0.00000000000E+00 -0.25712041791E+03  0.50811277823E+03  0.43825527503E+03 0.  0.
      99925    2    3    3    0    0  0.35233155389E+02 -0.85835355604E+02 -0.19622584492E+03  0.34088616363E+03  0.26284921691E+03 0.  0.
         25    1    4    4    0    0 -0.12447604475E+02 -0.68752722496E+02 -0.11133426554E+03  0.18145166434E+03  0.12509000000E+03 0.  0.
         25    1    4    4    0    0  0.47680759864E+02 -0.17082633108E+02 -0.84891579383E+02  0.15943449929E+03  0.12509000000E+03 0.  0.
         25    1    3    3    0    0 -0.35233155389E+02  0.85835355604E+02 -0.60894572991E+02  0.16722661460E+03  0.12509000000E+03 0.  0.
<mgrwt>
<rscale>  2 0.43825528E+03</rscale>
<asrwt>0</asrwt>
<pdfrwt beam="1">  1       21 0.18455321E-01 0.43825528E+03</pdfrwt>
<pdfrwt beam="2">  1       21 0.56267147E-01 0.43825528E+03</pdfrwt>
<totfact> 0.74064512E+04</totfact>
</mgrwt>
</event>
<event>
 7    0  0.4709932E-002  0.4509520E+03  0.7546771E-02  0.1027439E+00
         21   -1    0    0  502  501  0.00000000000E+00  0.00000000000E+00  0.80861139616E+03  0.80861139616E+03  0.00000000000E+00 0. -1.
         21   -1    0    0  501  502 -0.00000000000E+00 -0.00000000000E+00 -0.62872507856E+02  0.62872507856E+02  0.00000000000E+00 0. -1.
      99926    2    1    2    0    0  0.00000000000E+00  0.00000000000E+00  0.74573888831E+03  0.87148390402E+03  0.45095199903E+03 0.  0.
      99925    2    3    3    0    0 -0.39286278871E+02 -0.89279924126E+02  0.37567616410E+03  0.46885722270E+03  0.26302128897E+03 0.  0.
         25    1    3    3    0    0  0.39286278871E+02  0.89279924126E+02  0.37006272421E+03  0.40262668132E+03  0.12509000000E+03 0.  0.
         25    1    4    4    0    0 -0.40925063448E+02 -0.81471508181E+02  0.21983426143E+03  0.26886256352E+03  0.12509000000E+03 0.  0.
         25    1    4    4    0    0  0.16387845773E+01 -0.78084159451E+01  0.15584190266E+03  0.19999465918E+03  0.12509000000E+03 0.  0.
<mgrwt>
<rscale>  2 0.45095200E+03</rscale>
<asrwt>0</asrwt>
<pdfrwt beam="1">  1       21 0.11891343E+00 0.45095200E+03</pdfrwt>
<pdfrwt beam="2">  1       21 0.92459576E-02 0.45095200E+03</pdfrwt>
<totfact> 0.45928701E+04</totfact>
</mgrwt>
</event>
<event>
 7    0  0.4709932E-002  0.4532799E+03  0.7546771E-02  0.1026748E+00
         21   -1    0    0  502  501  0.00000000000E+00  0.00000000000E+00  0.12147652662E+03  0.12147652662E+03  0.00000000000E+00 0.  1.
         21   -1    0    0  501  502 -0.00000000000E+00 -0.00000000000E+00 -0.42284439082E+03  0.42284439082E+03  0.00000000000E+00 0.  1.
      99926    2    1    2    0    0  0.00000000000E+00 -0.71054273576E-14 -0.30136786420E+03  0.54432091744E+03  0.45327990424E+03 0.  0.
      99925    2    3    3    0    0 -0.10059825181E+03 -0.45627690859E+02 -0.17080263048E+03  0.33243254401E+03  0.26293718507E+03 0.  0.
         25    1    4    4    0    0 -0.51523614618E+02  0.17194749529E+02 -0.91573538367E+02  0.16426674436E+03  0.12509000000E+03 0.  0.
         25    1    4    4    0    0 -0.49074637190E+02 -0.62822440388E+02 -0.79229092117E+02  0.16816579964E+03  0.12509000000E+03 0.  0.
         25    1    3    3    0    0  0.10059825181E+03  0.45627690859E+02 -0.13056523372E+03  0.21188837343E+03  0.12509000000E+03 0.  0.
<mgrwt>
<rscale>  2 0.45327990E+03</rscale>
<asrwt>0</asrwt>
<pdfrwt beam="1">  1       21 0.17864195E-01 0.45327990E+03</pdfrwt>
<pdfrwt beam="2">  1       21 0.62182999E-01 0.45327990E+03</pdfrwt>
<totfact> 0.63097816E+04</totfact>
</mgrwt>
</event>
<event>
 7    0  0.4709932E-002  0.4515205E+03  0.7546771E-02  0.1027270E+00
         21   -1    0    0  502  501  0.00000000000E+00  0.00000000000E+00  0.71310267790E+03  0.71310267790E+03  0.00000000000E+00 0. -1.
         21   -1    0    0  501  502 -0.00000000000E+00 -0.00000000000E+00 -0.71473137192E+02  0.71473137192E+02  0.00000000000E+00 0. -1.
      99926    2    1    2    0    0  0.00000000000E+00  0.00000000000E+00  0.64162954071E+03  0.78457581509E+03  0.45152047807E+03 0.  0.
      99925    2    3    3    0    0  0.80467087771E+02 -0.70306911367E+02  0.44954309686E+03  0.53166728616E+03  0.26298877016E+03 0.  0.
         25    1    3    3    0    0 -0.80467087771E+02  0.70306911367E+02  0.19208644384E+03  0.25290852894E+03  0.12509000000E+03 0.  0.
         25    1    4    4    0    0  0.73063222728E+02 -0.30256610912E+02  0.28373259675E+03  0.32000842423E+03  0.12509000000E+03 0.  0.
         25    1    4    4    0    0  0.74038650424E+01 -0.40050300455E+02  0.16581050011E+03  0.21165886193E+03  0.12509000000E+03 0.  0.
<mgrwt>
<rscale>  2 0.45152048E+03</rscale>
<asrwt>0</asrwt>
<pdfrwt beam="1">  1       21 0.10486804E+00 0.45152048E+03</pdfrwt>
<pdfrwt beam="2">  1       21 0.10510756E-01 0.45152048E+03</pdfrwt>
<totfact> 0.49867970E+04</totfact>
</mgrwt>
</event>
<event>
 7    0  0.4709932E-002  0.4569890E+03  0.7546771E-02  0.1025658E+00
         21   -1    0    0  502  501  0.00000000000E+00  0.00000000000E+00  0.28844419816E+03  0.28844419816E+03  0.00000000000E+00 0.  1.
         21   -1    0    0  501  502 -0.00000000000E+00 -0.00000000000E+00 -0.18100464793E+03  0.18100464793E+03  0.00000000000E+00 0.  1.
      99926    2    1    2    0    0 -0.34694469520E-14  0.00000000000E+00  0.10743955023E+03  0.46944884609E+03  0.45698901753E+03 0.  0.
      99925    2    3    3    0    0 -0.19701240216E+00 -0.77888882696E+02  0.15419379980E+03  0.31485200002E+03  0.26322867845E+03 0.  0.
         25    1    3    3    0    0  0.19701240216E+00  0.77888882696E+02 -0.46754249567E+02  0.15459684607E+03  0.12509000000E+03 0.  0.
         25    1    4    4    0    0  0.34433944943E+02 -0.61817990466E+02  0.79618362781E+02  0.16429775501E+03  0.12509000000E+03 0.  0.
         25    1    4    4    0    0 -0.34630957345E+02 -0.16070892230E+02  0.74575437021E+02  0.15055424501E+03  0.12509000000E+03 0.  0.
<mgrwt>
<rscale>  2 0.45698902E+03</rscale>
<asrwt>0</asrwt>
<pdfrwt beam="1">  1       21 0.42418265E-01 0.45698902E+03</pdfrwt>
<pdfrwt beam="2">  1       21 0.26618331E-01 0.45698902E+03</pdfrwt>
<totfact> 0.66422680E+04</totfact>
</mgrwt>
</event>
<event>
 7    0  0.4709932E-002  0.4539448E+03  0.7546771E-02  0.1026552E+00
         21   -1    0    0  502  501  0.00000000000E+00  0.00000000000E+00  0.11744295922E+04  0.11744295922E+04  0.00000000000E+00 0.  1.
         21   -1    0    0  501  502 -0.00000000000E+00 -0.00000000000E+00 -0.43865093181E+02  0.43865093181E+02  0.00000000000E+00 0.  1.
      99926    2    1    2    0    0 -0.71054273576E-14  0.00000000000E+00  0.11305644990E+04  0.12182946854E+04  0.45394476975E+03 0.  0.
      99925    2    3    3    0    0 -0.32146144917E+02 -0.10719633469E+03  0.69062466622E+03  0.74742422189E+03  0.26297549139E+03 0.  0.
         25    1    4    4    0    0 -0.22123789030E+01 -0.88409088688E+02  0.32280538090E+03  0.35731202557E+03  0.12509000000E+03 0.  0.
         25    1    3    3    0    0  0.32146144917E+02  0.10719633469E+03  0.43993983278E+03  0.47087046347E+03  0.12509000000E+03 0.  0.
         25    1    4    4    0    0 -0.29933766014E+02 -0.18787246002E+02  0.36781928532E+03  0.39011219631E+03  0.12509000000E+03 0.  0.
<mgrwt>
<rscale>  2 0.45394477E+03</rscale>
<asrwt>0</asrwt>
<pdfrwt beam="1">  1       21 0.17271021E+00 0.45394477E+03</pdfrwt>
<pdfrwt beam="2">  1       21 0.64507497E-02 0.45394477E+03</pdfrwt>
<totfact> 0.31842318E+04</totfact>
</mgrwt>
</event>
<event>
 7    0  0.4709932E-002  0.4569785E+03  0.7546771E-02  0.1025661E+00
         21   -1    0    0  502  501  0.00000000000E+00  0.00000000000E+00  0.23321779331E+03  0.23321779331E+03  0.00000000000E+00 0. -1.
         21   -1    0    0  501  502 -0.00000000000E+00 -0.00000000000E+00 -0.22385659701E+03  0.22385659701E+03  0.00000000000E+00 0. -1.
      99926    2    1    2    0    0  0.00000000000E+00 -0.35527136788E-14  0.93611963027E+01  0.45707439032E+03  0.45697851841E+03 0.  0.
      99925    2    3    3    0    0 -0.70011629737E+02 -0.18427950039E+02 -0.83497067614E+02  0.28528561618E+03  0.26301122573E+03 0.  0.
         25    1    4    4    0    0 -0.65661561520E+02 -0.37134488629E+02 -0.49642034471E+02  0.15427978025E+03  0.12509000000E+03 0.  0.
         25    1    4    4    0    0 -0.43500682168E+01  0.18706538590E+02 -0.33855033143E+02  0.13100583593E+03  0.12509000000E+03 0.  0.
         25    1    3    3    0    0  0.70011629737E+02  0.18427950039E+02  0.92858263917E+02  0.17178877413E+03  0.12509000000E+03 0.  0.
<mgrwt>
<rscale>  2 0.45697852E+03</rscale>
<asrwt>0</asrwt>
<pdfrwt beam="1">  1       21 0.34296734E-01 0.45697852E+03</pdfrwt>
<pdfrwt beam="2">  1       21 0.32920088E-01 0.45697852E+03</pdfrwt>
<totfact> 0.67324976E+04</totfact>
</mgrwt>
</event>
<event>
 7    0  0.4709932E-002  0.4569679E+03  0.7546771E-02  0.1025664E+00
         21   -1    0    0  502  501  0.00000000000E+00  0.00000000000E+00  0.95677565239E+02  0.95677565239E+02  0.00000000000E+00 0. -1.
         21   -1    0    0  501  502 -0.00000000000E+00 -0.00000000000E+00 -0.54563372231E+03  0.54563372231E+03  0.00000000000E+00 0. -1.
      99926    2    1    2    0    0  0.00000000000E+00  0.00000000000E+00 -0.44995615707E+03  0.64131128755E+03  0.45696785910E+03 0.  0.
      99925    2    3    3    0    0 -0.89397030644E+02 -0.26746420561E+02 -0.37693917338E+03  0.46901448518E+03  0.26302898467E+03 0.  0.
         25    1    4    4    0    0 -0.28826676368E+02 -0.39996124406E+01 -0.11876845169E+03  0.17492977844E+03  0.12509000000E+03 0.  0.
         25    1    3    3    0    0  0.89397030644E+02  0.26746420561E+02 -0.73016983697E+02  0.17229680238E+03  0.12509000000E+03 0.  0.
         25    1    4    4    0    0 -0.60570354276E+02 -0.22746808120E+02 -0.25817072169E+03  0.29408470673E+03  0.12509000000E+03 0.  0.
<mgrwt>
<rscale>  2 0.45696786E+03</rscale>
<asrwt>0</asrwt>
<pdfrwt beam="1">  1       21 0.14070230E-01 0.45696786E+03</pdfrwt>
<pdfrwt beam="2">  1       21 0.80240253E-01 0.45696786E+03</pdfrwt>
<totfact> 0.55340437E+04</totfact>
</mgrwt>
</event>
<event>
 7    0  0.4709932E-002  0.4593133E+03  0.7546771E-02  0.1024981E+00
         21   -1    0    0  502  501  0.00000000000E+00  0.00000000000E+00  0.11888984808E+03  0.11888984808E+03  0.00000000000E+00 0.  1.
         21   -1    0    0  501  502 -0.00000000000E+00 -0.00000000000E+00 -0.44362225436E+03  0.44362225436E+03  0.00000000000E+00 0.  1.
      99926    2    1    2    0    0  0.00000000000E+00  0.00000000000E+00 -0.32473240628E+03  0.56251210245E+03  0.45931332412E+03 0.  0.
      99925    2    3    3    0    0  0.62712218324E+02  0.69961119743E+02 -0.28933261944E+03  0.40211249643E+03  0.26297093853E+03 0.  0.
         25    1    3    3    0    0 -0.62712218324E+02 -0.69961119743E+02 -0.35399786843E+02  0.16039960602E+03  0.12509000000E+03 0.  0.
         25    1    4    4    0    0  0.31156881488E+02 -0.19652920447E+01 -0.10761765737E+03  0.16793951862E+03  0.12509000000E+03 0.  0.
         25    1    4    4    0    0  0.31555336837E+02  0.71926411788E+02 -0.18171496207E+03  0.23417297781E+03  0.12509000000E+03 0.  0.
<mgrwt>
<rscale>  2 0.45931332E+03</rscale>
<asrwt>0</asrwt>
<pdfrwt beam="1">  1       21 0.17483802E-01 0.45931332E+03</pdfrwt>
<pdfrwt beam="2">  1       21 0.65238565E-01 0.45931332E+03</pdfrwt>
<totfact> 0.59008157E+04</totfact>
</mgrwt>
</event>
<event>
 7    0  0.4709932E-002  0.4538631E+03  0.7546771E-02  0.1026576E+00
         21   -1    0    0  502  501  0.00000000000E+00  0.00000000000E+00  0.53368534895E+03  0.53368534895E+03  0.00000000000E+00 0. -1.
         21   -1    0    0  501  502 -0.00000000000E+00 -0.00000000000E+00 -0.96494937041E+02  0.96494937041E+02  0.00000000000E+00 0. -1.
      99926    2    1    2    0    0  0.00000000000E+00  0.17763568394E-14  0.43719041191E+03  0.63018028599E+03  0.45386312539E+03 0.  0.
      99925    2    3    3    0    0  0.11037591106E+03  0.48058463300E+01  0.30170266174E+03  0.41521429694E+03  0.26300661282E+03 0.  0.
         25    1    3    3    0    0 -0.11037591106E+03 -0.48058463300E+01  0.13548775017E+03  0.21496598904E+03  0.12509000000E+03 0.  0.
         25    1    4    4    0    0  0.92842573589E+02  0.18722142298E+02  0.18617452076E+03  0.24347222093E+03  0.12509000000E+03 0.  0.
         25    1    4    4    0    0  0.17533337467E+02 -0.13916295968E+02  0.11552814098E+03  0.17174207601E+03  0.12509000000E+03 0.  0.
<mgrwt>
<rscale>  2 0.45386313E+03</rscale>
<asrwt>0</asrwt>
<pdfrwt beam="1">  1       21 0.78483138E-01 0.45386313E+03</pdfrwt>
<pdfrwt beam="2">  1       21 0.14190432E-01 0.45386313E+03</pdfrwt>
<totfact> 0.57371147E+04</totfact>
</mgrwt>
</event>
<event>
 7    0  0.4709932E-002  0.4655191E+03  0.7546771E-02  0.1023193E+00
         21   -1    0    0  502  501  0.00000000000E+00  0.00000000000E+00  0.12427240212E+03  0.12427240212E+03  0.00000000000E+00 0. -1.
         21   -1    0    0  501  502 -0.00000000000E+00 -0.00000000000E+00 -0.43595360749E+03  0.43595360749E+03  0.00000000000E+00 0. -1.
      99926    2    1    2    0    0  0.00000000000E+00  0.00000000000E+00 -0.31168120537E+03  0.56022600961E+03  0.46551907379E+03 0.  0.
      99925    2    3    3    0    0 -0.78032437007E+02  0.89823532486E+02 -0.15844452243E+03  0.32938771705E+03  0.26312406435E+03 0.  0.
         25    1    4    4    0    0 -0.38724413500E+02  0.87457079894E+02 -0.80861273722E+02  0.17701518215E+03  0.12509000000E+03 0.  0.
         25    1    4    4    0    0 -0.39308023507E+02  0.23664525915E+01 -0.77583248710E+02  0.15237253489E+03  0.12509000000E+03 0.  0.
         25    1    3    3    0    0  0.78032437007E+02 -0.89823532486E+02 -0.15323668294E+03  0.23083829256E+03  0.12509000000E+03 0.  0.
<mgrwt>
<rscale>  2 0.46551907E+03</rscale>
<asrwt>0</asrwt>
<pdfrwt beam="1">  1       21 0.18275353E-01 0.46551907E+03</pdfrwt>
<pdfrwt beam="2">  1       21 0.64110826E-01 0.46551907E+03</pdfrwt>
<totfact> 0.56357979E+04</totfact>
</mgrwt>
</event>
<event>
 7    0  0.4709932E-002  0.4548866E+03  0.7546771E-02  0.1026275E+00
         21   -1    0    0  502  501  0.00000000000E+00  0.00000000000E+00  0.17163588377E+03  0.17163588377E+03  0.00000000000E+00 0.  1.
         21   -1    0    0  501  502 -0.00000000000E+00 -0.00000000000E+00 -0.30139652681E+03  0.30139652681E+03  0.00000000000E+00 0.  1.
      99926    2    1    2    0    0 -0.71054273576E-14  0.00000000000E+00 -0.12976064303E+03  0.47303241058E+03  0.45488661992E+03 0.  0.
      99925    2    3    3    0    0 -0.54328411801E+02 -0.98525335511E+02 -0.93121406057E+02  0.30084425811E+03  0.26301492981E+03 0.  0.
         25    1    3    3    0    0  0.54328411801E+02  0.98525335511E+02 -0.36639236976E+02  0.17218815247E+03  0.12509000000E+03 0.  0.
         25    1    4    4    0    0  0.63850204927E+01 -0.26384928852E+02 -0.56825849058E+02  0.14004862791E+03  0.12509000000E+03 0.  0.
         25    1    4    4    0    0 -0.60713432293E+02 -0.72140406659E+02 -0.36295556999E+02  0.16079563020E+03  0.12509000000E+03 0.  0.
<mgrwt>
<rscale>  2 0.45488662E+03</rscale>
<asrwt>0</asrwt>
<pdfrwt beam="1">  1       21 0.25240571E-01 0.45488662E+03</pdfrwt>
<pdfrwt beam="2">  1       21 0.44323018E-01 0.45488662E+03</pdfrwt>
<totfact> 0.67271432E+04</totfact>
</mgrwt>
</event>
<event>
 7    0  0.4709932E-002  0.4558989E+03  0.7546771E-02  0.1025977E+00
         21   -1    0    0  502  501  0.00000000000E+00  0.00000000000E+00  0.76262540963E+02  0.76262540963E+02  0.00000000000E+00 0.  1.
         21   -1    0    0  501  502 -0.00000000000E+00 -0.00000000000E+00 -0.68134309021E+03  0.68134309021E+03  0.00000000000E+00 0.  1.
      99926    2    1    2    0    0  0.00000000000E+00  0.00000000000E+00 -0.60508054925E+03  0.75760563118E+03  0.45589891567E+03 0.  0.
      99925    2    3    3    0    0  0.79764595884E+02  0.72925908564E+02 -0.43972099728E+03  0.52378546860E+03  0.26327947656E+03 0.  0.
         25    1    4    4    0    0  0.80614407829E+02  0.42269502080E+02 -0.21686957471E+03  0.26639315699E+03  0.12509000000E+03 0.  0.
         25    1    3    3    0    0 -0.79764595884E+02 -0.72925908564E+02 -0.16535955197E+03  0.23382016257E+03  0.12509000000E+03 0.  0.
         25    1    4    4    0    0 -0.84981194534E+00  0.30656406484E+02 -0.22285142256E+03  0.25739231161E+03  0.12509000000E+03 0.  0.
<mgrwt>
<rscale>  2 0.45589892E+03</rscale>
<asrwt>0</asrwt>
<pdfrwt beam="1">  1       21 0.11215080E-01 0.45589892E+03</pdfrwt>
<pdfrwt beam="2">  1       21 0.10019751E+00 0.45589892E+03</pdfrwt>
<totfact> 0.49532578E+04</totfact>
</mgrwt>
</event>
<event>
 7    0  0.4709932E-002  0.4513592E+03  0.7546771E-02  0.1027318E+00
         21   -1    0    0  502  501  0.00000000000E+00  0.00000000000E+00  0.32580542901E+02  0.32580542901E+02  0.00000000000E+00 0.  1.
         21   -1    0    0  501  502 -0.00000000000E+00 -0.00000000000E+00 -0.15632420412E+04  0.15632420412E+04  0.00000000000E+00 0.  1.
      99926    2    1    2    0    0 -0.88817841970E-15  0.00000000000E+00 -0.15306614983E+04  0.15958225841E+04  0.45135916690E+03 0.  0.
      99925    2    3    3    0    0  0.61801911490E+00 -0.63301101425E+02 -0.12833331823E+04  0.13115230671E+04  0.26294730892E+03 0.  0.
         25    1    4    4    0    0 -0.26755363260E+02 -0.80805607281E+00 -0.59421765979E+03  0.60783109308E+03  0.12509000000E+03 0.  0.
         25    1    4    4    0    0  0.27373382374E+02 -0.62493045352E+02 -0.68911552251E+03  0.70369197398E+03  0.12509000000E+03 0.  0.
         25    1    3    3    0    0 -0.61801911490E+00  0.63301101425E+02 -0.24732831599E+03  0.28429951702E+03  0.12509000000E+03 0.  0.
<mgrwt>
<rscale>  2 0.45135917E+03</rscale>
<asrwt>0</asrwt>
<pdfrwt beam="1">  1       21 0.47912566E-02 0.45135917E+03</pdfrwt>
<pdfrwt beam="2">  1       21 0.22988852E+00 0.45135917E+03</pdfrwt>
<totfact> 0.22143794E+04</totfact>
</mgrwt>
</event>
<event>
 7    0  0.4709932E-002  0.4501769E+03  0.7546771E-02  0.1027669E+00
         21   -1    0    0  502  501  0.00000000000E+00  0.00000000000E+00  0.10371115737E+03  0.10371115737E+03  0.00000000000E+00 0.  1.
         21   -1    0    0  501  502 -0.00000000000E+00 -0.00000000000E+00 -0.48851835823E+03  0.48851835823E+03  0.00000000000E+00 0.  1.
      99926    2    1    2    0    0 -0.88817841970E-15 -0.35527136788E-14 -0.38480720086E+03  0.59222951560E+03  0.45017687336E+03 0.  0.
      99925    2    3    3    0    0  0.28755524597E+01  0.26577335820E+02 -0.10478870225E+03  0.28437810461E+03  0.26301256754E+03 0.  0.
         25    1    3    3    0    0 -0.28755524597E+01 -0.26577335820E+02 -0.28001849861E+03  0.30785141098E+03  0.12509000000E+03 0.  0.
         25    1    4    4    0    0 -0.31682605438E+02  0.33676063956E+02 -0.40489731492E+02  0.13937284968E+03  0.12509000000E+03 0.  0.
         25    1    4    4    0    0  0.34558157898E+02 -0.70987281363E+01 -0.64298970757E+02  0.14500525494E+03  0.12509000000E+03 0.  0.
<mgrwt>
<rscale>  2 0.45017687E+03</rscale>
<asrwt>0</asrwt>
<pdfrwt beam="1">  1       21 0.15251641E-01 0.45017687E+03</pdfrwt>
<pdfrwt beam="2">  1       21 0.71840935E-01 0.45017687E+03</pdfrwt>
<totfact> 0.61468810E+04</totfact>
</mgrwt>
</event>
<event>
 7    0  0.4709932E-002  0.4501629E+03  0.7546771E-02  0.1027673E+00
         21   -1    0    0  502  501  0.00000000000E+00  0.00000000000E+00  0.23531803499E+04  0.23531803499E+04  0.00000000000E+00 0. -1.
         21   -1    0    0  501  502 -0.00000000000E+00 -0.00000000000E+00 -0.21529013698E+02  0.21529013698E+02  0.00000000000E+00 0. -1.
      99926    2    1    2    0    0  0.00000000000E+00 -0.14210854715E-13  0.23316513362E+04  0.23747093636E+04  0.45016286825E+03 0.  0.
      99925    2    3    3    0    0  0.24746708011E+02  0.93785806822E+02  0.17319847754E+04  0.17545032129E+04  0.26287275391E+03 0.  0.
         25    1    3    3    0    0 -0.24746708011E+02 -0.93785806822E+02  0.59966656084E+03  0.62020615073E+03  0.12509000000E+03 0.  0.
         25    1    4    4    0    0  0.15232942644E+02  0.19967071177E+02  0.10070215392E+04  0.10150717290E+04  0.12509000000E+03 0.  0.
         25    1    4    4    0    0  0.95137653672E+01  0.73818735646E+02  0.72496323613E+03  0.73943148385E+03  0.12509000000E+03 0.  0.
<mgrwt>
<rscale>  2 0.45016287E+03</rscale>
<asrwt>0</asrwt>
<pdfrwt beam="1">  1       21 0.34605576E+00 0.45016287E+03</pdfrwt>
<pdfrwt beam="2">  1       21 0.31660330E-02 0.45016287E+03</pdfrwt>
<totfact> 0.88273152E+03</totfact>
</mgrwt>
</event>
<event>
 7    0  0.4709932E-002  0.4498168E+03  0.7546771E-02  0.1027777E+00
         21   -1    0    0  502  501  0.00000000000E+00  0.00000000000E+00  0.83815697863E+02  0.83815697863E+02  0.00000000000E+00 0. -1.
         21   -1    0    0  501  502 -0.00000000000E+00 -0.00000000000E+00 -0.60351200293E+03  0.60351200293E+03  0.00000000000E+00 0. -1.
      99926    2    1    2    0    0  0.00000000000E+00  0.00000000000E+00 -0.51969630506E+03  0.68732770079E+03  0.44981676133E+03 0.  0.
      99925    2    3    3    0    0 -0.39979469017E+02 -0.10057893879E+03 -0.32913823456E+03  0.43498989703E+03  0.26300143004E+03 0.  0.
         25    1    3    3    0    0  0.39979469017E+02  0.10057893879E+03 -0.19055807050E+03  0.25233780376E+03  0.12509000000E+03 0.  0.
         25    1    4    4    0    0 -0.15922634649E+02 -0.66004322679E+02 -0.22769602841E+03  0.26852018613E+03  0.12509000000E+03 0.  0.
         25    1    4    4    0    0 -0.24056834368E+02 -0.34574616109E+02 -0.10144220615E+03  0.16646971090E+03  0.12509000000E+03 0.  0.
<mgrwt>
<rscale>  2 0.44981676E+03</rscale>
<asrwt>0</asrwt>
<pdfrwt beam="1">  1       21 0.12325838E-01 0.44981676E+03</pdfrwt>
<pdfrwt beam="2">  1       21 0.88751763E-01 0.44981676E+03</pdfrwt>
<totfact> 0.55840466E+04</totfact>
</mgrwt>
</event>
<event>
 7    0  0.4709932E-002  0.4570998E+03  0.7546771E-02  0.1025626E+00
         21   -1    0    0  502  501  0.00000000000E+00  0.00000000000E+00  0.28814889262E+02  0.28814889262E+02  0.00000000000E+00 0. -1.
         21   -1    0    0  501  502 -0.00000000000E+00 -0.00000000000E+00 -0.18127803540E+04  0.18127803540E+04  0.00000000000E+00 0. -1.
      99926    2    1    2    0    0  0.00000000000E+00  0.00000000000E+00 -0.17839654647E+04  0.18415952433E+04  0.45709983661E+03 0.  0.
      99925    2    3    3    0    0  0.74191191500E+02  0.74854491041E+02 -0.13076080474E+04  0.13379371997E+04  0.26292511653E+03 0.  0.
         25    1    3    3    0    0 -0.74191191500E+02 -0.74854491041E+02 -0.47635741732E+03  0.50365804358E+03  0.12509000000E+03 0.  0.
         25    1    4    4    0    0  0.52237304991E+02  0.77356822803E+02 -0.69865901420E+03  0.71588039524E+03  0.12509000000E+03 0.  0.
         25    1    4    4    0    0  0.21953886509E+02 -0.25023317613E+01 -0.60894903322E+03  0.62205680444E+03  0.12509000000E+03 0.  0.
<mgrwt>
<rscale>  2 0.45709984E+03</rscale>
<asrwt>0</asrwt>
<pdfrwt beam="1">  1       21 0.42374829E-02 0.45709984E+03</pdfrwt>
<pdfrwt beam="2">  1       21 0.26658540E+00 0.45709984E+03</pdfrwt>
<totfact> 0.16207594E+04</totfact>
</mgrwt>
</event>
<event>
 7    0  0.4709932E-002  0.4624494E+03  0.7546771E-02  0.1024073E+00
         21   -1    0    0  502  501  0.00000000000E+00  0.00000000000E+00  0.44557622464E+02  0.44557622464E+02  0.00000000000E+00 0.  1.
         21   -1    0    0  501  502 -0.00000000000E+00 -0.00000000000E+00 -0.11999040247E+04  0.11999040247E+04  0.00000000000E+00 0.  1.
      99926    2    1    2    0    0  0.00000000000E+00  0.00000000000E+00 -0.11553464022E+04  0.12444616472E+04  0.46244943735E+03 0.  0.
      99925    2    3    3    0    0  0.93036145709E+02  0.29477902051E+02 -0.52770301524E+03  0.59707582677E+03  0.26173345123E+03 0.  0.
         25    1    4    4    0    0  0.62225682262E+02  0.24762166132E+01 -0.20049492054E+03  0.24438471402E+03  0.12509000000E+03 0.  0.
         25    1    4    4    0    0  0.30810463448E+02  0.27001685438E+02 -0.32720809470E+03  0.35269111275E+03  0.12509000000E+03 0.  0.
         25    1    3    3    0    0 -0.93036145709E+02 -0.29477902051E+02 -0.62764338700E+03  0.64738582041E+03  0.12509000000E+03 0.  0.
<mgrwt>
<rscale>  2 0.46244944E+03</rscale>
<asrwt>0</asrwt>
<pdfrwt beam="1">  1       21 0.65525925E-02 0.46244944E+03</pdfrwt>
<pdfrwt beam="2">  1       21 0.17645645E+00 0.46244944E+03</pdfrwt>
<totfact> 0.29049680E+04</totfact>
</mgrwt>
</event>
<event>
 7    0  0.4709932E-002  0.4550058E+03  0.7546771E-02  0.1026240E+00
         21   -1    0    0  502  501  0.00000000000E+00  0.00000000000E+00  0.26220847793E+03  0.26220847793E+03  0.00000000000E+00 0.  1.
         21   -1    0    0  501  502 -0.00000000000E+00 -0.00000000000E+00 -0.19739092970E+03  0.19739092970E+03  0.00000000000E+00 0.  1.
      99926    2    1    2    0    0  0.00000000000E+00  0.14210854715E-13  0.64817548227E+02  0.45959940763E+03  0.45500582516E+03 0.  0.
      99925    2    3    3    0    0 -0.20714605978E+02 -0.68278194958E+02  0.12937442011E+03  0.30178272722E+03  0.26314267434E+03 0.  0.
         25    1    4    4    0    0 -0.29029086740E+02 -0.34099361512E+02  0.10552238959E+03  0.16967008321E+03  0.12509000000E+03 0.  0.
         25    1    4    4    0    0  0.83144807620E+01 -0.34178833446E+02  0.23852030519E+02  0.13211264400E+03  0.12509000000E+03 0.  0.
         25    1    3    3    0    0  0.20714605978E+02  0.68278194958E+02 -0.64556871885E+02  0.15781668041E+03  0.12509000000E+03 0.  0.
<mgrwt>
<rscale>  2 0.45500583E+03</rscale>
<asrwt>0</asrwt>
<pdfrwt beam="1">  1       21 0.38560070E-01 0.45500583E+03</pdfrwt>
<pdfrwt beam="2">  1       21 0.29028078E-01 0.45500583E+03</pdfrwt>
<totfact> 0.68206611E+04</totfact>
</mgrwt>
</event>
<event>
 7    0  0.4709932E-002  0.4931055E+03  0.7546771E-02  0.1015594E+00
         21   -1    0    0  502  501  0.00000000000E+00  0.00000000000E+00  0.43536050922E+02  0.43536050922E+02  0.00000000000E+00 0.  1.
         21   -1    0    0  501  502 -0.00000000000E+00 -0.00000000000E+00 -0.13962742280E+04  0.13962742280E+04  0.00000000000E+00 0.  1.
      99926    2    1    2    0    0  0.00000000000E+00  0.00000000000E+00 -0.13527381771E+04  0.14398102789E+04  0.49310552984E+03 0.  0.
      99925    2    3    3    0    0  0.53032167241E+02 -0.12128286126E+03 -0.10055969377E+04  0.10477943463E+04  0.26291794914E+03 0.  0.
         25    1    4    4    0    0 -0.35526962270E+01 -0.55807763811E+02 -0.37927089425E+03  0.40326300039E+03  0.12509000000E+03 0.  0.
         25    1    3    3    0    0 -0.53032167241E+02  0.12128286126E+03 -0.34714123940E+03  0.39201593257E+03  0.12509000000E+03 0.  0.
         25    1    4    4    0    0  0.56584863468E+02 -0.65475097447E+02 -0.62632604340E+03  0.64453134594E+03  0.12509000000E+03 0.  0.
<mgrwt>
<rscale>  2 0.49310553E+03</rscale>
<asrwt>0</asrwt>
<pdfrwt beam="1">  1       21 0.64023606E-02 0.49310553E+03</pdfrwt>
<pdfrwt beam="2">  1       21 0.20533444E+00 0.49310553E+03</pdfrwt>
<totfact> 0.19007276E+04</totfact>
</mgrwt>
</event>
<event>
 7    0  0.4709932E-002  0.4404070E+03  0.7546771E-02  0.1030622E+00
         21   -1    0    0  502  501  0.00000000000E+00  0.00000000000E+00  0.90784041724E+02  0.90784041724E+02  0.00000000000E+00 0. -1.
         21   -1    0    0  501  502 -0.00000000000E+00 -0.00000000000E+00 -0.53412000930E+03  0.53412000930E+03  0.00000000000E+00 0. -1.
      99926    2    1    2    0    0  0.00000000000E+00 -0.13322676296E-14 -0.44333596758E+03  0.62490405103E+03  0.44040696275E+03 0.  0.
      99925    2    3    3    0    0 -0.95215837748E+02 -0.23635625858E+01 -0.32111495923E+03  0.42576308295E+03  0.26284547470E+03 0.  0.
         25    1    3    3    0    0  0.95215837748E+02  0.23635625858E+01 -0.12222100835E+03  0.19914096808E+03  0.12509000000E+03 0.  0.
         25    1    4    4    0    0 -0.61111917082E+02  0.58579748178E+01 -0.22302063875E+03  0.26297280408E+03  0.12509000000E+03 0.  0.
         25    1    4    4    0    0 -0.34103920666E+02 -0.82215374036E+01 -0.98094320478E+02  0.16279027886E+03  0.12509000000E+03 0.  0.
<mgrwt>
<rscale>  2 0.44040696E+03</rscale>
<asrwt>0</asrwt>
<pdfrwt beam="1">  1       21 0.13350594E-01 0.44040696E+03</pdfrwt>
<pdfrwt beam="2">  1       21 0.78547061E-01 0.44040696E+03</pdfrwt>
<totfact> 0.64260213E+04</totfact>
</mgrwt>
</event>
<event>
 7    0  0.4709932E-002  0.4555603E+03  0.7546771E-02  0.1026077E+00
         21   -1    0    0  502  501  0.00000000000E+00  0.00000000000E+00  0.81128590945E+03  0.81128590945E+03  0.00000000000E+00 0. -1.
         21   -1    0    0  501  502 -0.00000000000E+00 -0.00000000000E+00 -0.63952540727E+02  0.63952540727E+02  0.00000000000E+00 0. -1.
      99926    2    1    2    0    0  0.00000000000E+00 -0.71054273576E-14  0.74733336872E+03  0.87523845018E+03  0.45556029311E+03 0.  0.
      99925    2    3    3    0    0  0.17840327629E+02  0.37866553572E+02  0.26718150660E+03  0.37729721673E+03  0.26308758829E+03 0.  0.
         25    1    4    4    0    0 -0.13277075698E+02 -0.94906073094E+01  0.15587973648E+03  0.20053017905E+03  0.12509000000E+03 0.  0.
         25    1    4    4    0    0  0.31117403327E+02  0.47357160882E+02  0.11130177013E+03  0.17676703768E+03  0.12509000000E+03 0.  0.
         25    1    3    3    0    0 -0.17840327629E+02 -0.37866553572E+02  0.48015186212E+03  0.49794123345E+03  0.12509000000E+03 0.  0.
<mgrwt>
<rscale>  2 0.45556029E+03</rscale>
<asrwt>0</asrwt>
<pdfrwt beam="1">  1       21 0.11930675E+00 0.45556029E+03</pdfrwt>
<pdfrwt beam="2">  1       21 0.94047859E-02 0.45556029E+03</pdfrwt>
<totfact> 0.44127668E+04</totfact>
</mgrwt>
</event>
<event>
 7    0  0.4709932E-002  0.4574325E+03  0.7546771E-02  0.1025528E+00
         21   -1    0    0  502  501  0.00000000000E+00  0.00000000000E+00  0.53806701215E+02  0.53806701215E+02  0.00000000000E+00 0.  1.
         21   -1    0    0  501  502 -0.00000000000E+00 -0.00000000000E+00 -0.97220475945E+03  0.97220475945E+03  0.00000000000E+00 0.  1.
      99926    2    1    2    0    0  0.14210854715E-13  0.00000000000E+00 -0.91839805824E+03  0.10260114607E+04  0.45743253497E+03 0.  0.
      99925    2    3    3    0    0 -0.99306703128E+02  0.33530437927E+02 -0.68698085487E+03  0.74283741231E+03  0.26244735587E+03 0.  0.
         25    1    4    4    0    0 -0.73206734249E+02 -0.90573712819E+00 -0.43017763712E+03  0.45393871158E+03  0.12509000000E+03 0.  0.
         25    1    4    4    0    0 -0.26099968879E+02  0.34436175055E+02 -0.25680321776E+03  0.28889870072E+03  0.12509000000E+03 0.  0.
         25    1    3    3    0    0  0.99306703128E+02 -0.33530437927E+02 -0.23141720336E+03  0.28317404836E+03  0.12509000000E+03 0.  0.
<mgrwt>
<rscale>  2 0.45743253E+03</rscale>
<asrwt>0</asrwt>
<pdfrwt beam="1">  1       21 0.79127502E-02 0.45743253E+03</pdfrwt>
<pdfrwt beam="2">  1       21 0.14297129E+00 0.45743253E+03</pdfrwt>
<totfact> 0.37453726E+04</totfact>
</mgrwt>
</event>
<event>
 7    0  0.4709932E-002  0.4472761E+03  0.7546771E-02  0.1028537E+00
         21   -1    0    0  502  501  0.00000000000E+00  0.00000000000E+00  0.14408791291E+03  0.14408791291E+03  0.00000000000E+00 0.  1.
         21   -1    0    0  501  502 -0.00000000000E+00 -0.00000000000E+00 -0.34710730252E+03  0.34710730252E+03  0.00000000000E+00 0.  1.
      99926    2    1    2    0    0  0.53290705182E-14 -0.71054273576E-14 -0.20301938960E+03  0.49119521543E+03  0.44727605246E+03 0.  0.
      99925    2    3    3    0    0 -0.13305104461E+02  0.54666548058E+02 -0.22677263672E+03  0.35199326814E+03  0.26326407801E+03 0.  0.
         25    1    4    4    0    0 -0.38196413484E+02  0.54315162608E+02 -0.12251284883E+03  0.18725920303E+03  0.12509000000E+03 0.  0.
         25    1    3    3    0    0  0.13305104461E+02 -0.54666548058E+02  0.23753247112E+02  0.13920194729E+03  0.12509000000E+03 0.  0.
         25    1    4    4    0    0  0.24891309023E+02  0.35138545080E+00 -0.10425978789E+03  0.16473406511E+03  0.12509000000E+03 0.  0.
<mgrwt>
<rscale>  2 0.44727605E+03</rscale>
<asrwt>0</asrwt>
<pdfrwt beam="1">  1       21 0.21189399E-01 0.44727605E+03</pdfrwt>
<pdfrwt beam="2">  1       21 0.51045191E-01 0.44727605E+03</pdfrwt>
<totfact> 0.70094079E+04</totfact>
</mgrwt>
</event>
<event>
 7    0  0.4709932E-002  0.4559074E+03  0.7546771E-02  0.1025975E+00
         21   -1    0    0  502  501  0.00000000000E+00  0.00000000000E+00  0.13663628611E+03  0.13663628611E+03  0.00000000000E+00 0. -1.
         21   -1    0    0  501  502 -0.00000000000E+00 -0.00000000000E+00 -0.38030077208E+03  0.38030077208E+03  0.00000000000E+00 0. -1.
      99926    2    1    2    0    0  0.00000000000E+00  0.71054273576E-14 -0.24366448597E+03  0.51693705819E+03  0.45590738140E+03 0.  0.
      99925    2    3    3    0    0 -0.28607571326E+02 -0.59837897947E+02 -0.47854696096E+02  0.27530107354E+03  0.26287191175E+03 0.  0.
         25    1    3    3    0    0  0.28607571326E+02  0.59837897947E+02 -0.19580978988E+03  0.24163598465E+03  0.12509000000E+03 0.  0.
         25    1    4    4    0    0 -0.67626252268E+01  0.10688478468E+02 -0.17981673781E+02  0.12700718627E+03  0.12509000000E+03 0.  0.
         25    1    4    4    0    0 -0.21844946099E+02 -0.70526376415E+02 -0.29873022315E+02  0.14829388727E+03  0.12509000000E+03 0.  0.
<mgrwt>
<rscale>  2 0.45590738E+03</rscale>
<asrwt>0</asrwt>
<pdfrwt beam="1">  1       21 0.20093572E-01 0.45590738E+03</pdfrwt>
<pdfrwt beam="2">  1       21 0.55926583E-01 0.45590738E+03</pdfrwt>
<totfact> 0.63637024E+04</totfact>
</mgrwt>
</event>
<event>
 7    0  0.4709932E-002  0.4327803E+03  0.7546771E-02  0.1032985E+00
         21   -1    0    0  502  501  0.00000000000E+00  0.00000000000E+00  0.28514449997E+02  0.28514449997E+02  0.00000000000E+00 0.  1.
         21   -1    0    0  501  502 -0.00000000000E+00 -0.00000000000E+00 -0.16421393986E+04  0.16421393986E+04  0.00000000000E+00 0.  1.
      99926    2    1    2    0    0  0.00000000000E+00  0.00000000000E+00 -0.16136249486E+04  0.16706538486E+04  0.43278032195E+03 0.  0.
      99925    2    3    3    0    0 -0.14534238097E+02 -0.89481880539E+02 -0.10198064158E+04  0.10570691283E+04  0.26300525699E+03 0.  0.
         25    1    4    4    0    0 -0.31057954873E+02 -0.17878733113E+02 -0.40560406248E+03  0.42596526766E+03  0.12509000000E+03 0.  0.
         25    1    4    4    0    0  0.16523716775E+02 -0.71603147427E+02 -0.61420235331E+03  0.63110386059E+03  0.12509000000E+03 0.  0.
         25    1    3    3    0    0  0.14534238097E+02  0.89481880539E+02 -0.59381853278E+03  0.61358472030E+03  0.12509000000E+03 0.  0.
<mgrwt>
<rscale>  2 0.43278032E+03</rscale>
<asrwt>0</asrwt>
<pdfrwt beam="1">  1       21 0.41933012E-02 0.43278032E+03</pdfrwt>
<pdfrwt beam="2">  1       21 0.24149110E+00 0.43278032E+03</pdfrwt>
<totfact> 0.23714194E+04</totfact>
</mgrwt>
</event>
<event>
 7    0  0.4709932E-002  0.4484073E+03  0.7546771E-02  0.1028198E+00
         21   -1    0    0  502  501  0.00000000000E+00  0.00000000000E+00  0.31040378949E+03  0.31040378949E+03  0.00000000000E+00 0. -1.
         21   -1    0    0  501  502 -0.00000000000E+00 -0.00000000000E+00 -0.16194154360E+03  0.16194154360E+03  0.00000000000E+00 0. -1.
      99926    2    1    2    0    0 -0.14210854715E-13  0.00000000000E+00  0.14846224589E+03  0.47234533308E+03  0.44840726492E+03 0.  0.
      99925    2    3    3    0    0  0.92237898629E+02 -0.52902899471E+02  0.82666596984E+02  0.29547497878E+03  0.26299268072E+03 0.  0.
         25    1    4    4    0    0  0.78645975770E+02 -0.51668807099E+02  0.31683559782E+02  0.15970664104E+03  0.12509000000E+03 0.  0.
         25    1    3    3    0    0 -0.92237898629E+02  0.52902899471E+02  0.65795648906E+02  0.17687035430E+03  0.12509000000E+03 0.  0.
         25    1    4    4    0    0  0.13591922859E+02 -0.12340923718E+01  0.50983037202E+02  0.13576833774E+03  0.12509000000E+03 0.  0.
<mgrwt>
<rscale>  2 0.44840726E+03</rscale>
<asrwt>0</asrwt>
<pdfrwt beam="1">  1       21 0.45647616E-01 0.44840726E+03</pdfrwt>
<pdfrwt beam="2">  1       21 0.23814933E-01 0.44840726E+03</pdfrwt>
<totfact> 0.70899244E+04</totfact>
</mgrwt>
</event>
<event>
 7    0  0.4709932E-002  0.4616171E+03  0.7546771E-02  0.1024313E+00
         21   -1    0    0  502  501  0.00000000000E+00  0.00000000000E+00  0.18241245658E+04  0.18241245658E+04  0.00000000000E+00 0. -1.
         21   -1    0    0  501  502 -0.00000000000E+00 -0.00000000000E+00 -0.29204470039E+02  0.29204470039E+02  0.00000000000E+00 0. -1.
      99926    2    1    2    0    0  0.00000000000E+00  0.00000000000E+00  0.17949200958E+04  0.18533290358E+04  0.46161711939E+03 0.  0.
      99925    2    3    3    0    0 -0.10834224553E+03 -0.49857007850E+02  0.11130491917E+04  0.11498951716E+04  0.26297649936E+03 0.  0.
         25    1    3    3    0    0  0.10834224553E+03  0.49857007850E+02  0.68187090410E+03  0.70343386424E+03  0.12509000000E+03 0.  0.
         25    1    4    4    0    0 -0.53843198338E+02 -0.20485221486E+02  0.71350303419E+03  0.72667243116E+03  0.12509000000E+03 0.  0.
         25    1    4    4    0    0 -0.54499047191E+02 -0.29371786364E+02  0.39954615747E+03  0.42322274044E+03  0.12509000000E+03 0.  0.
<mgrwt>
<rscale>  2 0.46161712E+03</rscale>
<asrwt>0</asrwt>
<pdfrwt beam="1">  1       21 0.26825353E+00 0.46161712E+03</pdfrwt>
<pdfrwt beam="2">  1       21 0.42947763E-02 0.46161712E+03</pdfrwt>
<totfact> 0.15447204E+04</totfact>
</mgrwt>
</event>
<event>
 7    0  0.4709932E-002  0.4543421E+03  0.7546771E-02  0.1026435E+00
         21   -1    0    0  502  501  0.00000000000E+00  0.00000000000E+00  0.53719104833E+02  0.53719104833E+02  0.00000000000E+00 0. -1.
         21   -1    0    0  501  502 -0.00000000000E+00 -0.00000000000E+00 -0.96067637172E+03  0.96067637172E+03  0.00000000000E+00 0. -1.
      99926    2    1    2    0    0  0.00000000000E+00  0.00000000000E+00 -0.90695726689E+03  0.10143954766E+04  0.45434205054E+03 0.  0.
      99925    2    3    3    0    0  0.21993160485E+02  0.10841852515E+03 -0.61802756356E+03  0.68067979328E+03  0.26292325106E+03 0.  0.
         25    1    4    4    0    0 -0.27279489624E+02  0.38641397372E+02 -0.29558634705E+03  0.32443200337E+03  0.12509000000E+03 0.  0.
         25    1    3    3    0    0 -0.21993160485E+02 -0.10841852515E+03 -0.28892970332E+03  0.33371568328E+03  0.12509000000E+03 0.  0.
         25    1    4    4    0    0  0.49272650109E+02  0.69777127774E+02 -0.32244121651E+03  0.35624778991E+03  0.12509000000E+03 0.  0.
<mgrwt>
<rscale>  2 0.45434205E+03</rscale>
<asrwt>0</asrwt>
<pdfrwt beam="1">  1       21 0.78998686E-02 0.45434205E+03</pdfrwt>
<pdfrwt beam="2">  1       21 0.14127593E+00 0.45434205E+03</pdfrwt>
<totfact> 0.38810491E+04</totfact>
</mgrwt>
</event>
<event>
 7    0  0.4709932E-002  0.4528462E+03  0.7546771E-02  0.1026877E+00
         21   -1    0    0  502  501  0.00000000000E+00  0.00000000000E+00  0.73616511783E+02  0.73616511783E+02  0.00000000000E+00 0.  1.
         21   -1    0    0  501  502 -0.00000000000E+00 -0.00000000000E+00 -0.69641201679E+03  0.69641201679E+03  0.00000000000E+00 0.  1.
      99926    2    1    2    0    0  0.00000000000E+00  0.00000000000E+00 -0.62279550501E+03  0.77002852857E+03  0.45284621425E+03 0.  0.
      99925    2    3    3    0    0 -0.78656808244E+02  0.59360178345E+02 -0.48010523519E+03  0.55620957372E+03  0.26297819069E+03 0.  0.
         25    1    3    3    0    0  0.78656808244E+02 -0.59360178345E+02 -0.14269026982E+03  0.21381895486E+03  0.12509000000E+03 0.  0.
         25    1    4    4    0    0 -0.61571439858E+02  0.37578727261E+02 -0.32063749352E+03  0.35165197753E+03  0.12509000000E+03 0.  0.
         25    1    4    4    0    0 -0.17085368386E+02  0.21781451084E+02 -0.15946774167E+03  0.20455759618E+03  0.12509000000E+03 0.  0.
<mgrwt>
<rscale>  2 0.45284621E+03</rscale>
<asrwt>0</asrwt>
<pdfrwt beam="1">  1       21 0.10825958E-01 0.45284621E+03</pdfrwt>
<pdfrwt beam="2">  1       21 0.10241353E+00 0.45284621E+03</pdfrwt>
<totfact> 0.50090153E+04</totfact>
</mgrwt>
</event>
<event>
 7    0  0.4709932E-002  0.4530258E+03  0.7546771E-02  0.1026824E+00
         21   -1    0    0  502  501  0.00000000000E+00  0.00000000000E+00  0.82625807840E+02  0.82625807840E+02  0.00000000000E+00 0. -1.
         21   -1    0    0  501  502 -0.00000000000E+00 -0.00000000000E+00 -0.62096933775E+03  0.62096933775E+03  0.00000000000E+00 0. -1.
      99926    2    1    2    0    0  0.00000000000E+00  0.00000000000E+00 -0.53834352991E+03  0.70359514559E+03  0.45302579695E+03 0.  0.
      99925    2    3    3    0    0 -0.47779938911E+02 -0.84713668750E+02 -0.25527414981E+03  0.37919553048E+03  0.26299245338E+03 0.  0.
         25    1    4    4    0    0  0.38213128516E+01 -0.64096622155E+02 -0.10204790299E+03  0.17373618509E+03  0.12509000000E+03 0.  0.
         25    1    3    3    0    0  0.47779938911E+02  0.84713668750E+02 -0.28306938010E+03  0.32439961512E+03  0.12509000000E+03 0.  0.
         25    1    4    4    0    0 -0.51601251762E+02 -0.20617046594E+02 -0.15322624682E+03  0.20545934539E+03  0.12509000000E+03 0.  0.
<mgrwt>
<rscale>  2 0.45302580E+03</rscale>
<asrwt>0</asrwt>
<pdfrwt beam="1">  1       21 0.12150854E-01 0.45302580E+03</pdfrwt>
<pdfrwt beam="2">  1       21 0.91319018E-01 0.45302580E+03</pdfrwt>
<totfact> 0.53535025E+04</totfact>
</mgrwt>
</event>
<event>
 7    0  0.4709932E-002  0.4274626E+03  0.7546771E-02  0.1034665E+00
         21   -1    0    0  502  501  0.00000000000E+00  0.00000000000E+00  0.35492760318E+03  0.35492760318E+03  0.00000000000E+00 0.  1.
         21   -1    0    0  501  502 -0.00000000000E+00 -0.00000000000E+00 -0.12870532696E+03  0.12870532696E+03  0.00000000000E+00 0.  1.
      99926    2    1    2    0    0 -0.17763568394E-14  0.00000000000E+00  0.22622227622E+03  0.48363293014E+03  0.42746262159E+03 0.  0.
      99925    2    3    3    0    0 -0.98905152860E+01 -0.69039424128E+02  0.91870561823E+02  0.28726043808E+03  0.26308571755E+03 0.  0.
         25    1    4    4    0    0 -0.19248598307E+02 -0.43102588106E+02  0.75665592158E+01  0.13391453452E+03  0.12509000000E+03 0.  0.
         25    1    3    3    0    0  0.98905152860E+01  0.69039424128E+02  0.13435171440E+03  0.19637249206E+03  0.12509000000E+03 0.  0.
         25    1    4    4    0    0  0.93580830210E+01 -0.25936836022E+02  0.84304002607E+02  0.15334590355E+03  0.12509000000E+03 0.  0.
<mgrwt>
<rscale>  2 0.42746262E+03</rscale>
<asrwt>0</asrwt>
<pdfrwt beam="1">  1       21 0.52195235E-01 0.42746262E+03</pdfrwt>
<pdfrwt beam="2">  1       21 0.18927254E-01 0.42746262E+03</pdfrwt>
<totfact> 0.83186293E+04</totfact>
</mgrwt>
</event>
<event>
 7    0  0.4709932E-002  0.4511982E+03  0.7546771E-02  0.1027365E+00
         21   -1    0    0  502  501  0.00000000000E+00  0.00000000000E+00  0.19462453619E+03  0.19462453619E+03  0.00000000000E+00 0. -1.
         21   -1    0    0  501  502 -0.00000000000E+00 -0.00000000000E+00 -0.26150326749E+03  0.26150326749E+03  0.00000000000E+00 0. -1.
      99926    2    1    2    0    0  0.00000000000E+00  0.00000000000E+00 -0.66878731305E+02  0.45612780368E+03  0.45119819214E+03 0.  0.
      99925    2    3    3    0    0  0.61390196448E+02 -0.46065397421E+02 -0.12126097464E+03  0.29961673842E+03  0.26301176572E+03 0.  0.
         25    1    3    3    0    0 -0.61390196448E+02  0.46065397421E+02  0.54382243337E+02  0.15651106526E+03  0.12509000000E+03 0.  0.
         25    1    4    4    0    0  0.47360907197E+01 -0.36311017084E+01 -0.85095901158E+02  0.15140817662E+03  0.12509000000E+03 0.  0.
         25    1    4    4    0    0  0.56654105728E+02 -0.42434295712E+02 -0.36165073484E+02  0.14820856179E+03  0.12509000000E+03 0.  0.
<mgrwt>
<rscale>  2 0.45119819E+03</rscale>
<asrwt>0</asrwt>
<pdfrwt beam="1">  1       21 0.28621255E-01 0.45119819E+03</pdfrwt>
<pdfrwt beam="2">  1       21 0.38456363E-01 0.45119819E+03</pdfrwt>
<totfact> 0.70579377E+04</totfact>
</mgrwt>
</event>
<event>
 7    0  0.4709932E-002  0.4262433E+03  0.7546771E-02  0.1035053E+00
         21   -1    0    0  502  501  0.00000000000E+00  0.00000000000E+00  0.14082742346E+04  0.14082742346E+04  0.00000000000E+00 0. -1.
         21   -1    0    0  501  502 -0.00000000000E+00 -0.00000000000E+00 -0.32252828719E+02  0.32252828719E+02  0.00000000000E+00 0. -1.
      99926    2    1    2    0    0  0.00000000000E+00  0.00000000000E+00  0.13760214059E+04  0.14405270633E+04  0.42624325298E+03 0.  0.
      99925    2    3    3    0    0 -0.64359803767E+02 -0.53169680547E+02  0.91268538420E+03  0.95339568848E+03  0.26267761419E+03 0.  0.
         25    1    4    4    0    0 -0.32976303956E+02 -0.43746756622E+02  0.34227484158E+03  0.36851158817E+03  0.12509000000E+03 0.  0.
         25    1    3    3    0    0  0.64359803767E+02  0.53169680547E+02  0.46333602169E+03  0.48713137485E+03  0.12509000000E+03 0.  0.
         25    1    4    4    0    0 -0.31383499811E+02 -0.94229239250E+01  0.57041054262E+03  0.58488410031E+03  0.12509000000E+03 0.  0.
<mgrwt>
<rscale>  2 0.42624325E+03</rscale>
<asrwt>0</asrwt>
<pdfrwt beam="1">  1       21 0.20709911E+00 0.42624325E+03</pdfrwt>
<pdfrwt beam="2">  1       21 0.47430640E-02 0.42624325E+03</pdfrwt>
<totfact> 0.31807326E+04</totfact>
</mgrwt>
</event>
<event>
 7    0  0.4709932E-002  0.4481864E+03  0.7546771E-02  0.1028264E+00
         21   -1    0    0  502  501  0.00000000000E+00  0.00000000000E+00  0.60058390930E+02  0.60058390930E+02  0.00000000000E+00 0.  1.
         21   -1    0    0  501  502 -0.00000000000E+00 -0.00000000000E+00 -0.83614898226E+03  0.83614898226E+03  0.00000000000E+00 0.  1.
      99926    2    1    2    0    0  0.00000000000E+00 -0.22204460493E-14 -0.77609059133E+03  0.89620737319E+03  0.44818640074E+03 0.  0.
      99925    2    3    3    0    0  0.10541543857E+03  0.36257074757E+01 -0.52192103882E+03  0.59392401280E+03  0.26309428306E+03 0.  0.
         25    1    3    3    0    0 -0.10541543857E+03 -0.36257074757E+01 -0.25416955251E+03  0.30228336039E+03  0.12509000000E+03 0.  0.
         25    1    4    4    0    0  0.54037935247E+02 -0.26848484116E+02 -0.32170470165E+03  0.35040314312E+03  0.12509000000E+03 0.  0.
         25    1    4    4    0    0  0.51377503324E+02  0.30474191592E+02 -0.20021633716E+03  0.24352086968E+03  0.12509000000E+03 0.  0.
<mgrwt>
<rscale>  2 0.44818640E+03</rscale>
<asrwt>0</asrwt>
<pdfrwt beam="1">  1       21 0.88321171E-02 0.44818640E+03</pdfrwt>
<pdfrwt beam="2">  1       21 0.12296307E+00 0.44818640E+03</pdfrwt>
<totfact> 0.45792258E+04</totfact>
</mgrwt>
</event>
<event>
 7    0  0.4709932E-002  0.4496986E+03  0.7546771E-02  0.1027812E+00
         21   -1    0    0  502  501  0.00000000000E+00  0.00000000000E+00  0.12751921556E+03  0.12751921556E+03  0.00000000000E+00 0.  1.
         21   -1    0    0  501  502 -0.00000000000E+00 -0.00000000000E+00 -0.39646730990E+03  0.39646730990E+03  0.00000000000E+00 0.  1.
      99926    2    1    2    0    0  0.00000000000E+00  0.88817841970E-15 -0.26894809434E+03  0.52398652546E+03  0.44969856727E+03 0.  0.
      99925    2    3    3    0    0 -0.57815484916E+02  0.40897649344E+01 -0.63584140589E+02  0.27663815155E+03  0.26291893710E+03 0.  0.
         25    1    4    4    0    0 -0.26050986060E+02  0.42254148299E+02 -0.34897454051E+02  0.13903023888E+03  0.12509000000E+03 0.  0.
         25    1    4    4    0    0 -0.31764498857E+02 -0.38164383364E+02 -0.28686686538E+02  0.13760791267E+03  0.12509000000E+03 0.  0.
         25    1    3    3    0    0  0.57815484916E+02 -0.40897649344E+01 -0.20536395375E+03  0.24734837391E+03  0.12509000000E+03 0.  0.
<mgrwt>
<rscale>  2 0.44969857E+03</rscale>
<asrwt>0</asrwt>
<pdfrwt beam="1">  1       21 0.18752826E-01 0.44969857E+03</pdfrwt>
<pdfrwt beam="2">  1       21 0.58304016E-01 0.44969857E+03</pdfrwt>
<totfact> 0.66360569E+04</totfact>
</mgrwt>
</event>
<event>
 7    0  0.4709932E-002  0.4549745E+03  0.7546771E-02  0.1026249E+00
         21   -1    0    0  502  501  0.00000000000E+00  0.00000000000E+00  0.99917212751E+03  0.99917212751E+03  0.00000000000E+00 0. -1.
         21   -1    0    0  501  502 -0.00000000000E+00 -0.00000000000E+00 -0.51793331164E+02  0.51793331164E+02  0.00000000000E+00 0. -1.
      99926    2    1    2    0    0  0.14210854715E-13 -0.35527136788E-14  0.94737879635E+03  0.10509654587E+04  0.45497451749E+03 0.  0.
      99925    2    3    3    0    0 -0.10605931856E+03  0.31096777812E+02  0.54017789081E+03  0.61087947366E+03  0.26299427554E+03 0.  0.
         25    1    3    3    0    0  0.10605931856E+03 -0.31096777812E+02  0.40720090553E+03  0.44008598502E+03  0.12509000000E+03 0.  0.
         25    1    4    4    0    0 -0.16301637988E+02  0.34736319775E+02  0.23152801452E+03  0.26594188260E+03  0.12509000000E+03 0.  0.
         25    1    4    4    0    0 -0.89757680575E+02 -0.36395419628E+01  0.30864987629E+03  0.34493759106E+03  0.12509000000E+03 0.  0.
<mgrwt>
<rscale>  2 0.45497452E+03</rscale>
<asrwt>0</asrwt>
<pdfrwt beam="1">  1       21 0.14693707E+00 0.45497452E+03</pdfrwt>
<pdfrwt beam="2">  1       21 0.76166670E-02 0.45497452E+03</pdfrwt>
<totfact> 0.37249390E+04</totfact>
</mgrwt>
</event>
<event>
 7    0  0.4709932E-002  0.4682932E+03  0.7546771E-02  0.1022403E+00
         21   -1    0    0  502  501  0.00000000000E+00  0.00000000000E+00  0.14876547554E+03  0.14876547554E+03  0.00000000000E+00 0. -1.
         21   -1    0    0  501  502 -0.00000000000E+00 -0.00000000000E+00 -0.36853061558E+03  0.36853061558E+03  0.00000000000E+00 0. -1.
      99926    2    1    2    0    0  0.00000000000E+00  0.00000000000E+00 -0.21976514004E+03  0.51729609112E+03  0.46829320848E+03 0.  0.
      99925    2    3    3    0    0 -0.11213731445E+03  0.43017591544E+02 -0.97531382170E+02  0.30513131992E+03  0.26299707492E+03 0.  0.
         25    1    3    3    0    0  0.11213731445E+03 -0.43017591544E+02 -0.12223375787E+03  0.21216477120E+03  0.12509000000E+03 0.  0.
         25    1    4    4    0    0 -0.19312532896E+02  0.41272351515E+02 -0.39093061447E+02  0.13875214045E+03  0.12509000000E+03 0.  0.
         25    1    4    4    0    0 -0.92824781553E+02  0.17452400284E+01 -0.58438320723E+02  0.16637917947E+03  0.12509000000E+03 0.  0.
<mgrwt>
<rscale>  2 0.46829321E+03</rscale>
<asrwt>0</asrwt>
<pdfrwt beam="1">  1       21 0.21877276E-01 0.46829321E+03</pdfrwt>
<pdfrwt beam="2">  1       21 0.54195678E-01 0.46829321E+03</pdfrwt>
<totfact> 0.57736075E+04</totfact>
</mgrwt>
</event>
<event>
 7    0  0.4709932E-002  0.4508478E+03  0.7546771E-02  0.1027470E+00
         21   -1    0    0  502  501  0.00000000000E+00  0.00000000000E+00  0.81255680272E+02  0.81255680272E+02  0.00000000000E+00 0.  1.
         21   -1    0    0  501  502 -0.00000000000E+00 -0.00000000000E+00 -0.62538326050E+03  0.62538326050E+03  0.00000000000E+00 0.  1.
      99926    2    1    2    0    0  0.71054273576E-14 -0.71054273576E-14 -0.54412758023E+03  0.70663894078E+03  0.45084783359E+03 0.  0.
      99925    2    3    3    0    0  0.54476801972E+02 -0.30060845935E+02 -0.48432633299E+03  0.55466830650E+03  0.26308469548E+03 0.  0.
         25    1    4    4    0    0  0.56880073271E+02  0.78515445049E+01 -0.21487944455E+03  0.25518164761E+03  0.12509000000E+03 0.  0.
         25    1    4    4    0    0 -0.24032712999E+01 -0.37912390440E+02 -0.26944688844E+03  0.29948665889E+03  0.12509000000E+03 0.  0.
         25    1    3    3    0    0 -0.54476801972E+02  0.30060845935E+02 -0.59801247243E+02  0.15197063428E+03  0.12509000000E+03 0.  0.
<mgrwt>
<rscale>  2 0.45084783E+03</rscale>
<asrwt>0</asrwt>
<pdfrwt beam="1">  1       21 0.11949365E-01 0.45084783E+03</pdfrwt>
<pdfrwt beam="2">  1       21 0.91968124E-01 0.45084783E+03</pdfrwt>
<totfact> 0.54296250E+04</totfact>
</mgrwt>
</event>
<event>
 7    0  0.4709932E-002  0.4630922E+03  0.7546771E-02  0.1023888E+00
         21   -1    0    0  502  501  0.00000000000E+00  0.00000000000E+00  0.39821901363E+02  0.39821901363E+02  0.00000000000E+00 0. -1.
         21   -1    0    0  501  502 -0.00000000000E+00 -0.00000000000E+00 -0.13463345561E+04  0.13463345561E+04  0.00000000000E+00 0. -1.
      99926    2    1    2    0    0  0.00000000000E+00  0.00000000000E+00 -0.13065126548E+04  0.13861564575E+04  0.46309222363E+03 0.  0.
      99925    2    3    3    0    0 -0.80230845516E+02 -0.68778071701E+02 -0.64134460203E+03  0.70112838639E+03  0.26285110600E+03 0.  0.
         25    1    4    4    0    0 -0.51470539735E+02  0.46822899481E+01 -0.29906590487E+03  0.32826675716E+03  0.12509000000E+03 0.  0.
         25    1    4    4    0    0 -0.28760305781E+02 -0.73460361649E+02 -0.34227869716E+03  0.37286162923E+03  0.12509000000E+03 0.  0.
         25    1    3    3    0    0  0.80230845516E+02  0.68778071701E+02 -0.66516805275E+03  0.68502807111E+03  0.12509000000E+03 0.  0.
<mgrwt>
<rscale>  2 0.46309222E+03</rscale>
<asrwt>0</asrwt>
<pdfrwt beam="1">  1       21 0.58561628E-02 0.46309222E+03</pdfrwt>
<pdfrwt beam="2">  1       21 0.19799035E+00 0.46309222E+03</pdfrwt>
<totfact> 0.25087989E+04</totfact>
</mgrwt>
</event>
<event>
 7    0  0.4709932E-002  0.4555197E+03  0.7546771E-02  0.1026089E+00
         21   -1    0    0  502  501  0.00000000000E+00  0.00000000000E+00  0.10077380254E+03  0.10077380254E+03  0.00000000000E+00 0.  1.
         21   -1    0    0  501  502 -0.00000000000E+00 -0.00000000000E+00 -0.51476229519E+03  0.51476229519E+03  0.00000000000E+00 0.  1.
      99926    2    1    2    0    0  0.00000000000E+00  0.00000000000E+00 -0.41398849265E+03  0.61553609774E+03  0.45551972028E+03 0.  0.
      99925    2    3    3    0    0 -0.86773889085E+02 -0.36596440053E+02 -0.17432111011E+03  0.32925482065E+03  0.26296745092E+03 0.  0.
         25    1    4    4    0    0 -0.55643940883E+02  0.34106281418E+01 -0.12540636303E+03  0.18569368468E+03  0.12509000000E+03 0.  0.
         25    1    3    3    0    0  0.86773889085E+02  0.36596440053E+02 -0.23966738255E+03  0.28628127708E+03  0.12509000000E+03 0.  0.
         25    1    4    4    0    0 -0.31129948202E+02 -0.40007068195E+02 -0.48914747080E+02  0.14356113598E+03  0.12509000000E+03 0.  0.
<mgrwt>
<rscale>  2 0.45551972E+03</rscale>
<asrwt>0</asrwt>
<pdfrwt beam="1">  1       21 0.14819677E-01 0.45551972E+03</pdfrwt>
<pdfrwt beam="2">  1       21 0.75700338E-01 0.45551972E+03</pdfrwt>
<totfact> 0.57495672E+04</totfact>
</mgrwt>
</event>
<event>
 7    0  0.4709932E-002  0.4535830E+03  0.7546771E-02  0.1026659E+00
         21   -1    0    0  502  501  0.00000000000E+00  0.00000000000E+00  0.10284882034E+03  0.10284882034E+03  0.00000000000E+00 0.  1.
         21   -1    0    0  501  502 -0.00000000000E+00 -0.00000000000E+00 -0.50009688710E+03  0.50009688710E+03  0.00000000000E+00 0.  1.
      99926    2    1    2    0    0  0.00000000000E+00 -0.35527136788E-14 -0.39724806676E+03  0.60294570745E+03  0.45358295777E+03 0.  0.
      99925    2    3    3    0    0 -0.11007467130E+03  0.19521906641E+02 -0.24565787422E+03  0.37683813863E+03  0.26298603282E+03 0.  0.
         25    1    3    3    0    0  0.11007467130E+03 -0.19521906641E+02 -0.15159019254E+03  0.22610756882E+03  0.12509000000E+03 0.  0.
         25    1    4    4    0    0 -0.92094177114E+02 -0.86538744396E+01 -0.14720649538E+03  0.21418096877E+03  0.12509000000E+03 0.  0.
         25    1    4    4    0    0 -0.17980494190E+02  0.28175781081E+02 -0.98451378840E+02  0.16265716986E+03  0.12509000000E+03 0.  0.
<mgrwt>
<rscale>  2 0.45358296E+03</rscale>
<asrwt>0</asrwt>
<pdfrwt beam="1">  1       21 0.15124826E-01 0.45358296E+03</pdfrwt>
<pdfrwt beam="2">  1       21 0.73543661E-01 0.45358296E+03</pdfrwt>
<totfact> 0.59156823E+04</totfact>
</mgrwt>
</event>
<event>
 7    0  0.4709932E-002  0.4556338E+03  0.7546771E-02  0.1026055E+00
         21   -1    0    0  502  501  0.00000000000E+00  0.00000000000E+00  0.19193705739E+02  0.19193705739E+02  0.00000000000E+00 0. -1.
         21   -1    0    0  501  502 -0.00000000000E+00 -0.00000000000E+00 -0.27040399152E+04  0.27040399152E+04  0.00000000000E+00 0. -1.
      99926    2    1    2    0    0  0.00000000000E+00  0.00000000000E+00 -0.26848462095E+04  0.27232336209E+04  0.45563382859E+03 0.  0.
      99925    2    3    3    0    0  0.10203586836E+03  0.28711293984E+02 -0.19337657593E+04  0.19544651203E+04  0.26315059921E+03 0.  0.
         25    1    3    3    0    0 -0.10203586836E+03 -0.28711293984E+02 -0.75108045017E+03  0.76876850063E+03  0.12509000000E+03 0.  0.
         25    1    4    4    0    0  0.18565451076E+02 -0.21413247661E+01 -0.71926098665E+03  0.73029660842E+03  0.12509000000E+03 0.  0.
         25    1    4    4    0    0  0.83470417283E+02  0.30852618750E+02 -0.12145047726E+04  0.12241685119E+04  0.12509000000E+03 0.  0.
<mgrwt>
<rscale>  2 0.45563383E+03</rscale>
<asrwt>0</asrwt>
<pdfrwt beam="1">  1       21 0.28226055E-02 0.45563383E+03</pdfrwt>
<pdfrwt beam="2">  1       21 0.39765268E+00 0.45563383E+03</pdfrwt>
<totfact> 0.50818960E+03</totfact>
</mgrwt>
</event>
<event>
 7    0  0.4709932E-002  0.4469813E+03  0.7546771E-02  0.1028626E+00
         21   -1    0    0  502  501  0.00000000000E+00  0.00000000000E+00  0.32669744322E+03  0.32669744322E+03  0.00000000000E+00 0. -1.
         21   -1    0    0  501  502 -0.00000000000E+00 -0.00000000000E+00 -0.15288788027E+03  0.15288788027E+03  0.00000000000E+00 0. -1.
      99926    2    1    2    0    0  0.14210854715E-13 -0.71054273576E-14  0.17380956295E+03  0.47958532348E+03  0.44698134002E+03 0.  0.
      99925    2    3    3    0    0 -0.76110754439E+02  0.54047620584E+02  0.57634596703E+02  0.28501368343E+03  0.26305334207E+03 0.  0.
         25    1    4    4    0    0 -0.14894462535E+02 -0.66731632681E+01  0.13882505806E+02  0.12691181265E+03  0.12509000000E+03 0.  0.
         25    1    3    3    0    0  0.76110754439E+02 -0.54047620584E+02  0.11617496625E+03  0.19457164006E+03  0.12509000000E+03 0.  0.
         25    1    4    4    0    0 -0.61216291904E+02  0.60720783852E+02  0.43752090897E+02  0.15810187078E+03  0.12509000000E+03 0.  0.
<mgrwt>
<rscale>  2 0.44698134E+03</rscale>
<asrwt>0</asrwt>
<pdfrwt beam="1">  1       21 0.48043742E-01 0.44698134E+03</pdfrwt>
<pdfrwt beam="2">  1       21 0.22483512E-01 0.44698134E+03</pdfrwt>
<totfact> 0.71152718E+04</totfact>
</mgrwt>
</event>
<event>
 7    0  0.4709932E-002  0.4334450E+03  0.7546771E-02  0.1032777E+00
         21   -1    0    0  502  501  0.00000000000E+00  0.00000000000E+00  0.12740130385E+03  0.12740130385E+03  0.00000000000E+00 0.  1.
         21   -1    0    0  501  502 -0.00000000000E+00 -0.00000000000E+00 -0.36866696543E+03  0.36866696543E+03  0.00000000000E+00 0.  1.
      99926    2    1    2    0    0  0.00000000000E+00  0.00000000000E+00 -0.24126566158E+03  0.49606826927E+03  0.43344504649E+03 0.  0.
      99925    2    3    3    0    0 -0.45039149024E+02  0.60358199213E+02 -0.21445172254E+03  0.34761581027E+03  0.26301249608E+03 0.  0.
         25    1    4    4    0    0 -0.15931537802E+02  0.37424459534E+02 -0.15766473161E+03  0.20532919852E+03  0.12509000000E+03 0.  0.
         25    1    3    3    0    0  0.45039149024E+02 -0.60358199213E+02 -0.26813939035E+02  0.14845245900E+03  0.12509000000E+03 0.  0.
         25    1    4    4    0    0 -0.29107611221E+02  0.22933739678E+02 -0.56786990928E+02  0.14228661176E+03  0.12509000000E+03 0.  0.
<mgrwt>
<rscale>  2 0.43344505E+03</rscale>
<asrwt>0</asrwt>
<pdfrwt beam="1">  1       21 0.18735486E-01 0.43344505E+03</pdfrwt>
<pdfrwt beam="2">  1       21 0.54215730E-01 0.43344505E+03</pdfrwt>
<totfact> 0.78072897E+04</totfact>
</mgrwt>
</event>
<event>
 7    0  0.4709932E-002  0.4268963E+03  0.7546771E-02  0.1034845E+00
         21   -1    0    0  502  501  0.00000000000E+00  0.00000000000E+00  0.16952973418E+02  0.16952973418E+02  0.00000000000E+00 0. -1.
         21   -1    0    0  501  502 -0.00000000000E+00 -0.00000000000E+00 -0.26874412172E+04  0.26874412172E+04  0.00000000000E+00 0. -1.
      99926    2    1    2    0    0  0.00000000000E+00  0.71054273576E-14 -0.26704882438E+04  0.27043941906E+04  0.42689633176E+03 0.  0.
      99925    2    3    3    0    0 -0.71862517466E+02  0.32395319079E+02 -0.19134692618E+04  0.19330713495E+04  0.26303335934E+03 0.  0.
         25    1    4    4    0    0 -0.24028026290E+02 -0.22147316284E+02 -0.97228409263E+03  0.98084234949E+03  0.12509000000E+03 0.  0.
         25    1    3    3    0    0  0.71862517466E+02 -0.32395319079E+02 -0.75701898196E+03  0.77132284113E+03  0.12509000000E+03 0.  0.
         25    1    4    4    0    0 -0.47834491176E+02  0.54542635363E+02 -0.94118516918E+03  0.95222899998E+03  0.12509000000E+03 0.  0.
<mgrwt>
<rscale>  2 0.42689633E+03</rscale>
<asrwt>0</asrwt>
<pdfrwt beam="1">  1       21 0.24930858E-02 0.42689633E+03</pdfrwt>
<pdfrwt beam="2">  1       21 0.39521171E+00 0.42689633E+03</pdfrwt>
<totfact> 0.65841577E+03</totfact>
</mgrwt>
</event>
<event>
 7    0  0.4709932E-002  0.4261163E+03  0.7546771E-02  0.1035094E+00
         21   -1    0    0  502  501  0.00000000000E+00  0.00000000000E+00  0.43145996071E+02  0.43145996071E+02  0.00000000000E+00 0. -1.
         21   -1    0    0  501  502 -0.00000000000E+00 -0.00000000000E+00 -0.10520971695E+04  0.10520971695E+04  0.00000000000E+00 0. -1.
      99926    2    1    2    0    0  0.00000000000E+00 -0.35527136788E-14 -0.10089511734E+04  0.10952431656E+04  0.42611632375E+03 0.  0.
      99925    2    3    3    0    0  0.81051114214E+02 -0.16339172335E+02 -0.62638186678E+03  0.68433802547E+03  0.26292211472E+03 0.  0.
         25    1    3    3    0    0 -0.81051114214E+02  0.16339172335E+02 -0.38256930664E+03  0.41090514009E+03  0.12509000000E+03 0.  0.
         25    1    4    4    0    0  0.40825580714E+01 -0.17570623583E+01 -0.23903567077E+03  0.26982459960E+03  0.12509000000E+03 0.  0.
         25    1    4    4    0    0  0.76968556142E+02 -0.14582109976E+02 -0.38734619601E+03  0.41451342587E+03  0.12509000000E+03 0.  0.
<mgrwt>
<rscale>  2 0.42611632E+03</rscale>
<asrwt>0</asrwt>
<pdfrwt beam="1">  1       21 0.63449994E-02 0.42611632E+03</pdfrwt>
<pdfrwt beam="2">  1       21 0.15472017E+00 0.42611632E+03</pdfrwt>
<totfact> 0.44969826E+04</totfact>
</mgrwt>
</event>
<event>
 7    0  0.4709932E-002  0.4455629E+03  0.7546771E-02  0.1029054E+00
         21   -1    0    0  502  501  0.00000000000E+00  0.00000000000E+00  0.38628699616E+03  0.38628699616E+03  0.00000000000E+00 0.  1.
         21   -1    0    0  501  502 -0.00000000000E+00 -0.00000000000E+00 -0.12848366471E+03  0.12848366471E+03  0.00000000000E+00 0.  1.
      99926    2    1    2    0    0  0.00000000000E+00  0.71054273576E-14  0.25780333145E+03  0.51477066087E+03  0.44556287500E+03 0.  0.
      99925    2    3    3    0    0  0.84754076036E+02 -0.35188104668E+02  0.10714722214E+03  0.29851565517E+03  0.26307719980E+03 0.  0.
         25    1    4    4    0    0  0.67361389088E+02 -0.47322365304E+02  0.75733836898E+02  0.16780966941E+03  0.12509000000E+03 0.  0.
         25    1    3    3    0    0 -0.84754076036E+02  0.35188104668E+02  0.15065610931E+03  0.21625500569E+03  0.12509000000E+03 0.  0.
         25    1    4    4    0    0  0.17392686948E+02  0.12134260636E+02  0.31413385239E+02  0.13070598576E+03  0.12509000000E+03 0.  0.
<mgrwt>
<rscale>  2 0.44556288E+03</rscale>
<asrwt>0</asrwt>
<pdfrwt beam="1">  1       21 0.56806911E-01 0.44556288E+03</pdfrwt>
<pdfrwt beam="2">  1       21 0.18894657E-01 0.44556288E+03</pdfrwt>
<totfact> 0.69289142E+04</totfact>
</mgrwt>
</event>
<event>
 7    0  0.4709932E-002  0.4562917E+03  0.7546771E-02  0.1025862E+00
         21   -1    0    0  502  501  0.00000000000E+00  0.00000000000E+00  0.12059746786E+04  0.12059746786E+04  0.00000000000E+00 0. -1.
         21   -1    0    0  501  502 -0.00000000000E+00 -0.00000000000E+00 -0.43160544918E+02  0.43160544918E+02  0.00000000000E+00 0. -1.
      99926    2    1    2    0    0 -0.14210854715E-13  0.00000000000E+00  0.11628141337E+04  0.12491352235E+04  0.45629167989E+03 0.  0.
      99925    2    3    3    0    0  0.11098440714E+03  0.20291832081E+02  0.67914499463E+03  0.73697056128E+03  0.26297982314E+03 0.  0.
         25    1    4    4    0    0  0.70199310218E+02 -0.17190035053E+02  0.41629198887E+03  0.44064721554E+03  0.12509000000E+03 0.  0.
         25    1    3    3    0    0 -0.11098440714E+03 -0.20291832081E+02  0.48366913904E+03  0.51216466223E+03  0.12509000000E+03 0.  0.
         25    1    4    4    0    0  0.40785096924E+02  0.37481867134E+02  0.26285300576E+03  0.29632334574E+03  0.12509000000E+03 0.  0.
<mgrwt>
<rscale>  2 0.45629168E+03</rscale>
<asrwt>0</asrwt>
<pdfrwt beam="1">  1       21 0.17734919E+00 0.45629168E+03</pdfrwt>
<pdfrwt beam="2">  1       21 0.63471398E-02 0.45629168E+03</pdfrwt>
<totfact> 0.30322382E+04</totfact>
</mgrwt>
</event>
<event>
 7    0  0.4709932E-002  0.4673251E+03  0.7546771E-02  0.1022678E+00
         21   -1    0    0  502  501  0.00000000000E+00  0.00000000000E+00  0.74253077580E+03  0.74253077580E+03  0.00000000000E+00 0. -1.
         21   -1    0    0  501  502 -0.00000000000E+00 -0.00000000000E+00 -0.73529858537E+02  0.73529858537E+02  0.00000000000E+00 0. -1.
      99926    2    1    2    0    0  0.00000000000E+00  0.00000000000E+00  0.66900091726E+03  0.81606063434E+03  0.46732508130E+03 0.  0.
      99925    2    3    3    0    0 -0.99910525756E+02 -0.31599286783E+02  0.53338549481E+03  0.60388222123E+03  0.26304566707E+03 0.  0.
         25    1    4    4    0    0 -0.49268185937E+02  0.10464578964E+02  0.32715660055E+03  0.35385846174E+03  0.12509000000E+03 0.  0.
         25    1    3    3    0    0  0.99910525756E+02  0.31599286783E+02  0.13561542246E+03  0.21217841311E+03  0.12509000000E+03 0.  0.
         25    1    4    4    0    0 -0.50642339819E+02 -0.42063865747E+02  0.20622889425E+03  0.25002375949E+03  0.12509000000E+03 0.  0.
<mgrwt>
<rscale>  2 0.46732508E+03</rscale>
<asrwt>0</asrwt>
<pdfrwt beam="1">  1       21 0.10919570E+00 0.46732508E+03</pdfrwt>
<pdfrwt beam="2">  1       21 0.10813215E-01 0.46732508E+03</pdfrwt>
<totfact> 0.42714417E+04</totfact>
</mgrwt>
</event>
<event>
 7    0  0.4709932E-002  0.4576252E+03  0.7546771E-02  0.1025472E+00
         21   -1    0    0  502  501  0.00000000000E+00  0.00000000000E+00  0.33310862114E+03  0.33310862114E+03  0.00000000000E+00 0. -1.
         21   -1    0    0  501  502 -0.00000000000E+00 -0.00000000000E+00 -0.15717155053E+03  0.15717155053E+03  0.00000000000E+00 0. -1.
      99926    2    1    2    0    0  0.00000000000E+00  0.00000000000E+00  0.17593707061E+03  0.49028017168E+03  0.45762516749E+03 0.  0.
      99925    2    3    3    0    0 -0.62583339158E+02  0.68632178320E+02  0.36492457979E+02  0.28118842547E+03  0.26288434888E+03 0.  0.
         25    1    4    4    0    0 -0.60759403477E+02  0.34349199121E+02 -0.95023302670E+01  0.14355965649E+03  0.12509000000E+03 0.  0.
         25    1    4    4    0    0 -0.18239356808E+01  0.34282979200E+02  0.45994788246E+02  0.13762876898E+03  0.12509000000E+03 0.  0.
         25    1    3    3    0    0  0.62583339158E+02 -0.68632178320E+02  0.13944461263E+03  0.20909174621E+03  0.12509000000E+03 0.  0.
<mgrwt>
<rscale>  2 0.45762517E+03</rscale>
<asrwt>0</asrwt>
<pdfrwt beam="1">  1       21 0.48986562E-01 0.45762517E+03</pdfrwt>
<pdfrwt beam="2">  1       21 0.23113463E-01 0.45762517E+03</pdfrwt>
<totfact> 0.64602190E+04</totfact>
</mgrwt>
</event>
<event>
 7    0  0.4709932E-002  0.4551795E+03  0.7546771E-02  0.1026189E+00
         21   -1    0    0  502  501  0.00000000000E+00  0.00000000000E+00  0.12537951152E+03  0.12537951152E+03  0.00000000000E+00 0. -1.
         21   -1    0    0  501  502 -0.00000000000E+00 -0.00000000000E+00 -0.41312245961E+03  0.41312245961E+03  0.00000000000E+00 0. -1.
      99926    2    1    2    0    0  0.00000000000E+00  0.00000000000E+00 -0.28774294809E+03  0.53850197113E+03  0.45517949068E+03 0.  0.
      99925    2    3    3    0    0  0.87574096984E+02  0.71536591125E+02 -0.18909659728E+03  0.34314251535E+03  0.26306378772E+03 0.  0.
         25    1    4    4    0    0  0.49402345069E+02  0.11813265858E+02 -0.52603933315E+02  0.14489591729E+03  0.12509000000E+03 0.  0.
         25    1    4    4    0    0  0.38171751914E+02  0.59723325267E+02 -0.13649266396E+03  0.19824659806E+03  0.12509000000E+03 0.  0.
         25    1    3    3    0    0 -0.87574096984E+02 -0.71536591125E+02 -0.98646350811E+02  0.19535945577E+03  0.12509000000E+03 0.  0.
<mgrwt>
<rscale>  2 0.45517949E+03</rscale>
<asrwt>0</asrwt>
<pdfrwt beam="1">  1       21 0.18438163E-01 0.45517949E+03</pdfrwt>
<pdfrwt beam="2">  1       21 0.60753303E-01 0.45517949E+03</pdfrwt>
<totfact> 0.62543873E+04</totfact>
</mgrwt>
</event>
<event>
 7    0  0.4709932E-002  0.4570214E+03  0.7546771E-02  0.1025649E+00
         21   -1    0    0  502  501  0.00000000000E+00  0.00000000000E+00  0.14825755630E+03  0.14825755630E+03  0.00000000000E+00 0.  1.
         21   -1    0    0  501  502 -0.00000000000E+00 -0.00000000000E+00 -0.35220564650E+03  0.35220564650E+03  0.00000000000E+00 0.  1.
      99926    2    1    2    0    0  0.00000000000E+00  0.00000000000E+00 -0.20394809020E+03  0.50046320279E+03  0.45702143697E+03 0.  0.
      99925    2    3    3    0    0  0.68063907849E+02  0.76403186972E+02 -0.70574111297E+02  0.29092497507E+03  0.26303325531E+03 0.  0.
         25    1    4    4    0    0  0.81012053387E+01  0.20314352007E+02 -0.37265030365E+01  0.12704210857E+03  0.12509000000E+03 0.  0.
         25    1    3    3    0    0 -0.68063907849E+02 -0.76403186972E+02 -0.13337397890E+03  0.20953822773E+03  0.12509000000E+03 0.  0.
         25    1    4    4    0    0  0.59962702510E+02  0.56088834964E+02 -0.66847608261E+02  0.16388286649E+03  0.12509000000E+03 0.  0.
<mgrwt>
<rscale>  2 0.45702144E+03</rscale>
<asrwt>0</asrwt>
<pdfrwt beam="1">  1       21 0.21802582E-01 0.45702144E+03</pdfrwt>
<pdfrwt beam="2">  1       21 0.51794948E-01 0.45702144E+03</pdfrwt>
<totfact> 0.64201722E+04</totfact>
</mgrwt>
</event>
<event>
 7    0  0.4709932E-002  0.4512808E+03  0.7546771E-02  0.1027341E+00
         21   -1    0    0  502  501  0.00000000000E+00  0.00000000000E+00  0.39181234668E+03  0.39181234668E+03  0.00000000000E+00 0.  1.
         21   -1    0    0  501  502 -0.00000000000E+00 -0.00000000000E+00 -0.12994380124E+03  0.12994380124E+03  0.00000000000E+00 0.  1.
      99926    2    1    2    0    0  0.17763568394E-14  0.00000000000E+00  0.26186854544E+03  0.52175614791E+03  0.45128078044E+03 0.  0.
      99925    2    3    3    0    0  0.11133779902E+02 -0.87610308060E+02  0.24109327759E+03  0.36722897558E+03  0.26254832865E+03 0.  0.
         25    1    4    4    0    0  0.33939538654E+02 -0.72840812867E+02  0.12074808495E+03  0.19153402941E+03  0.12509000000E+03 0.  0.
         25    1    4    4    0    0 -0.22805758751E+02 -0.14769495193E+02  0.12034519263E+03  0.17569494617E+03  0.12509000000E+03 0.  0.
         25    1    3    3    0    0 -0.11133779902E+02  0.87610308060E+02  0.20775267853E+02  0.15452717233E+03  0.12509000000E+03 0.  0.
<mgrwt>
<rscale>  2 0.45128078E+03</rscale>
<asrwt>0</asrwt>
<pdfrwt beam="1">  1       21 0.57619463E-01 0.45128078E+03</pdfrwt>
<pdfrwt beam="2">  1       21 0.19109383E-01 0.45128078E+03</pdfrwt>
<totfact> 0.65683366E+04</totfact>
</mgrwt>
</event>
<event>
 7    0  0.4709932E-002  0.4578835E+03  0.7546771E-02  0.1025397E+00
         21   -1    0    0  502  501  0.00000000000E+00  0.00000000000E+00  0.11945795622E+03  0.11945795622E+03  0.00000000000E+00 0.  1.
         21   -1    0    0  501  502 -0.00000000000E+00 -0.00000000000E+00 -0.43876798188E+03  0.43876798188E+03  0.00000000000E+00 0.  1.
      99926    2    1    2    0    0  0.00000000000E+00  0.00000000000E+00 -0.31931002566E+03  0.55822593809E+03  0.45788350644E+03 0.  0.
      99925    2    3    3    0    0 -0.26952986908E+02  0.63321369670E+02 -0.31395599578E+03  0.41535455154E+03  0.26308739392E+03 0.  0.
         25    1    4    4    0    0  0.95467540686E+01  0.33048526238E+02 -0.10341672962E+03  0.16590923321E+03  0.12509000000E+03 0.  0.
         25    1    4    4    0    0 -0.36499740976E+02  0.30272843432E+02 -0.21053926616E+03  0.24944531833E+03  0.12509000000E+03 0.  0.
         25    1    3    3    0    0  0.26952986908E+02 -0.63321369670E+02 -0.53540298844E+01  0.14287138655E+03  0.12509000000E+03 0.  0.
<mgrwt>
<rscale>  2 0.45788351E+03</rscale>
<asrwt>0</asrwt>
<pdfrwt beam="1">  1       21 0.17567347E-01 0.45788351E+03</pdfrwt>
<pdfrwt beam="2">  1       21 0.64524703E-01 0.45788351E+03</pdfrwt>
<totfact> 0.59947084E+04</totfact>
</mgrwt>
</event>
<event>
 7    0  0.4709932E-002  0.4081024E+03  0.7546771E-02  0.1041010E+00
         21   -1    0    0  502  501  0.00000000000E+00  0.00000000000E+00  0.51561950341E+03  0.51561950341E+03  0.00000000000E+00 0. -1.
         21   -1    0    0  501  502 -0.00000000000E+00 -0.00000000000E+00 -0.80751189573E+02  0.80751189573E+02  0.00000000000E+00 0. -1.
      99926    2    1    2    0    0  0.00000000000E+00 -0.35527136788E-14  0.43486831384E+03  0.59637069299E+03  0.40810238062E+03 0.  0.
      99925    2    3    3    0    0 -0.50148579418E+02  0.28118274737E+02  0.30819159565E+03  0.40928777975E+03  0.26311387199E+03 0.  0.
         25    1    4    4    0    0 -0.62775530272E+02  0.92746162844E+01  0.13714930107E+03  0.19617396512E+03  0.12509000000E+03 0.  0.
         25    1    4    4    0    0  0.12626950853E+02  0.18843658453E+02  0.17104229458E+03  0.21311381463E+03  0.12509000000E+03 0.  0.
         25    1    3    3    0    0  0.50148579418E+02 -0.28118274737E+02  0.12667671819E+03  0.18708291323E+03  0.12509000000E+03 0.  0.
<mgrwt>
<rscale>  2 0.40810238E+03</rscale>
<asrwt>0</asrwt>
<pdfrwt beam="1">  1       21 0.75826396E-01 0.40810238E+03</pdfrwt>
<pdfrwt beam="2">  1       21 0.11875175E-01 0.40810238E+03</pdfrwt>
<totfact> 0.86884909E+04</totfact>
</mgrwt>
</event>
<event>
 7    0  0.4709932E-002  0.4524385E+03  0.7546771E-02  0.1026997E+00
         21   -1    0    0  502  501  0.00000000000E+00  0.00000000000E+00  0.67244279377E+03  0.67244279377E+03  0.00000000000E+00 0.  1.
         21   -1    0    0  501  502 -0.00000000000E+00 -0.00000000000E+00 -0.76103359105E+02  0.76103359105E+02  0.00000000000E+00 0.  1.
      99926    2    1    2    0    0  0.17763568394E-14  0.00000000000E+00  0.59633943466E+03  0.74854615287E+03  0.45243852803E+03 0.  0.
      99925    2    3    3    0    0 -0.83936952209E+01 -0.87276537670E+02  0.26430869661E+03  0.38306076704E+03  0.26303767029E+03 0.  0.
         25    1    3    3    0    0  0.83936952209E+01  0.87276537670E+02  0.33203073805E+03  0.36548538583E+03  0.12509000000E+03 0.  0.
         25    1    4    4    0    0  0.11140461740E+02 -0.53199346991E+02  0.18495620882E+03  0.22980554321E+03  0.12509000000E+03 0.  0.
         25    1    4    4    0    0 -0.19534156960E+02 -0.34077190679E+02  0.79352487791E+02  0.15325522383E+03  0.12509000000E+03 0.  0.
<mgrwt>
<rscale>  2 0.45243853E+03</rscale>
<asrwt>0</asrwt>
<pdfrwt beam="1">  1       21 0.98888643E-01 0.45243853E+03</pdfrwt>
<pdfrwt beam="2">  1       21 0.11191671E-01 0.45243853E+03</pdfrwt>
<totfact> 0.51371653E+04</totfact>
</mgrwt>
</event>
<event>
 7    0  0.4709932E-002  0.4536301E+03  0.7546771E-02  0.1026645E+00
         21   -1    0    0  502  501  0.00000000000E+00  0.00000000000E+00  0.35145108765E+03  0.35145108765E+03  0.00000000000E+00 0.  1.
         21   -1    0    0  501  502 -0.00000000000E+00 -0.00000000000E+00 -0.14637899878E+03  0.14637899878E+03  0.00000000000E+00 0.  1.
      99926    2    1    2    0    0  0.00000000000E+00  0.00000000000E+00  0.20507208886E+03  0.49783008643E+03  0.45363006219E+03 0.  0.
      99925    2    3    3    0    0 -0.53408168561E+02  0.95269756051E+02  0.15572841401E+03  0.32459306603E+03  0.26302197760E+03 0.  0.
         25    1    3    3    0    0  0.53408168561E+02 -0.95269756051E+02  0.49343674856E+02  0.17323702039E+03  0.12509000000E+03 0.  0.
         25    1    4    4    0    0 -0.46371594968E+02  0.58106589052E+02  0.42267514920E+02  0.15152805492E+03  0.12509000000E+03 0.  0.
         25    1    4    4    0    0 -0.70365735929E+01  0.37163166999E+02  0.11346089909E+03  0.17306501111E+03  0.12509000000E+03 0.  0.
<mgrwt>
<rscale>  2 0.45363006E+03</rscale>
<asrwt>0</asrwt>
<pdfrwt beam="1">  1       21 0.51683983E-01 0.45363006E+03</pdfrwt>
<pdfrwt beam="2">  1       21 0.21526323E-01 0.45363006E+03</pdfrwt>
<totfact> 0.66139712E+04</totfact>
</mgrwt>
</event>
<event>
 7    0  0.4709932E-002  0.4328923E+03  0.7546771E-02  0.1032950E+00
         21   -1    0    0  502  501  0.00000000000E+00  0.00000000000E+00  0.59049220391E+02  0.59049220391E+02  0.00000000000E+00 0.  1.
         21   -1    0    0  501  502 -0.00000000000E+00 -0.00000000000E+00 -0.79338803584E+03  0.79338803584E+03  0.00000000000E+00 0.  1.
      99926    2    1    2    0    0  0.00000000000E+00  0.00000000000E+00 -0.73433881545E+03  0.85243725624E+03  0.43289234220E+03 0.  0.
      99925    2    3    3    0    0  0.52066325520E+02 -0.41294084347E+02 -0.59396139594E+03  0.65301451013E+03  0.26310018418E+03 0.  0.
         25    1    4    4    0    0  0.26093134627E+02 -0.49843292428E+02 -0.37586385754E+03  0.40010792666E+03  0.12509000000E+03 0.  0.
         25    1    3    3    0    0 -0.52066325520E+02  0.41294084347E+02 -0.14037741951E+03  0.19942274611E+03  0.12509000000E+03 0.  0.
         25    1    4    4    0    0  0.25973190893E+02  0.85492080805E+01 -0.21809753840E+03  0.25290658347E+03  0.12509000000E+03 0.  0.
<mgrwt>
<rscale>  2 0.43289234E+03</rscale>
<asrwt>0</asrwt>
<pdfrwt beam="1">  1       21 0.86837091E-02 0.43289234E+03</pdfrwt>
<pdfrwt beam="2">  1       21 0.11667471E+00 0.43289234E+03</pdfrwt>
<totfact> 0.54121756E+04</totfact>
</mgrwt>
</event>
<event>
 7    0  0.4709932E-002  0.4454123E+03  0.7546771E-02  0.1029099E+00
         21   -1    0    0  502  501  0.00000000000E+00  0.00000000000E+00  0.74066115820E+02  0.74066115820E+02  0.00000000000E+00 0. -1.
         21   -1    0    0  501  502 -0.00000000000E+00 -0.00000000000E+00 -0.66964528289E+03  0.66964528289E+03  0.00000000000E+00 0. -1.
      99926    2    1    2    0    0  0.00000000000E+00  0.00000000000E+00 -0.59557916707E+03  0.74371139871E+03  0.44541228129E+03 0.  0.
      99925    2    3    3    0    0  0.36723067371E+02 -0.55998160106E+02 -0.51228658186E+03  0.57918316264E+03  0.26178467550E+03 0.  0.
         25    1    3    3    0    0 -0.36723067371E+02  0.55998160106E+02 -0.83292585215E+02  0.16452823607E+03  0.12509000000E+03 0.  0.
         25    1    4    4    0    0 -0.13258066101E+02 -0.27282642104E+02 -0.29587034066E+03  0.32265598625E+03  0.12509000000E+03 0.  0.
         25    1    4    4    0    0  0.49981133472E+02 -0.28715518002E+02 -0.21641624120E+03  0.25652717640E+03  0.12509000000E+03 0.  0.
<mgrwt>
<rscale>  2 0.44541228E+03</rscale>
<asrwt>0</asrwt>
<pdfrwt beam="1">  1       21 0.10892076E-01 0.44541228E+03</pdfrwt>
<pdfrwt beam="2">  1       21 0.98477243E-01 0.44541228E+03</pdfrwt>
<totfact> 0.54592674E+04</totfact>
</mgrwt>
</event>
<event>
 7    0  0.4709932E-002  0.4480063E+03  0.7546771E-02  0.1028318E+00
         21   -1    0    0  502  501  0.00000000000E+00  0.00000000000E+00  0.66908977635E+02  0.66908977635E+02  0.00000000000E+00 0. -1.
         21   -1    0    0  501  502 -0.00000000000E+00 -0.00000000000E+00 -0.74993531695E+03  0.74993531695E+03  0.00000000000E+00 0. -1.
      99926    2    1    2    0    0  0.00000000000E+00  0.00000000000E+00 -0.68302633932E+03  0.81684429459E+03  0.44800627384E+03 0.  0.
      99925    2    3    3    0    0  0.29936686129E+02  0.10077754719E+03 -0.40183577148E+03  0.49162442629E+03  0.26300241461E+03 0.  0.
         25    1    3    3    0    0 -0.29936686129E+02 -0.10077754719E+03 -0.28119056783E+03  0.32521986829E+03  0.12509000000E+03 0.  0.
         25    1    4    4    0    0 -0.23041527192E+02  0.39929459130E+02 -0.16862309516E+03  0.21495704222E+03  0.12509000000E+03 0.  0.
         25    1    4    4    0    0  0.52978213321E+02  0.60848088064E+02 -0.23321267633E+03  0.27666738407E+03  0.12509000000E+03 0.  0.
<mgrwt>
<rscale>  2 0.44800627E+03</rscale>
<asrwt>0</asrwt>
<pdfrwt beam="1">  1       21 0.98395559E-02 0.44800627E+03</pdfrwt>
<pdfrwt beam="2">  1       21 0.11028460E+00 0.44800627E+03</pdfrwt>
<totfact> 0.49628874E+04</totfact>
</mgrwt>
</event>
<event>
 7    0  0.4709932E-002  0.4578862E+03  0.7546771E-02  0.1025396E+00
         21   -1    0    0  502  501  0.00000000000E+00  0.00000000000E+00  0.26109749361E+03  0.26109749361E+03  0.00000000000E+00 0. -1.
         21   -1    0    0  501  502 -0.00000000000E+00 -0.00000000000E+00 -0.20074850747E+03  0.20074850747E+03  0.00000000000E+00 0. -1.
      99926    2    1    2    0    0  0.00000000000E+00  0.00000000000E+00  0.60348986146E+02  0.46184600108E+03  0.45788615243E+03 0.  0.
      99925    2    3    3    0    0  0.66728928858E+02 -0.46922763537E+02 -0.45054240880E+02  0.27905693124E+03  0.26303686162E+03 0.  0.
         25    1    4    4    0    0  0.39673525312E+02  0.63812187125E+01  0.54669795064E+01  0.13149944687E+03  0.12509000000E+03 0.  0.
         25    1    4    4    0    0  0.27055403546E+02 -0.53303982249E+02 -0.50521220386E+02  0.14755748437E+03  0.12509000000E+03 0.  0.
         25    1    3    3    0    0 -0.66728928858E+02  0.46922763537E+02  0.10540322703E+03  0.18278906984E+03  0.12509000000E+03 0.  0.
<mgrwt>
<rscale>  2 0.45788615E+03</rscale>
<asrwt>0</asrwt>
<pdfrwt beam="1">  1       21 0.38396690E-01 0.45788615E+03</pdfrwt>
<pdfrwt beam="2">  1       21 0.29521839E-01 0.45788615E+03</pdfrwt>
<totfact> 0.66502348E+04</totfact>
</mgrwt>
</event>
<event>
 7    0  0.4709932E-002  0.4566415E+03  0.7546771E-02  0.1025760E+00
         21   -1    0    0  502  501  0.00000000000E+00  0.00000000000E+00  0.10780614967E+03  0.10780614967E+03  0.00000000000E+00 0. -1.
         21   -1    0    0  501  502 -0.00000000000E+00 -0.00000000000E+00 -0.48355650927E+03  0.48355650927E+03  0.00000000000E+00 0. -1.
      99926    2    1    2    0    0  0.14210854715E-13  0.00000000000E+00 -0.37575035960E+03  0.59136265895E+03  0.45664150233E+03 0.  0.
      99925    2    3    3    0    0 -0.10639047290E+03  0.26629776928E+02 -0.28001579154E+03  0.39942336290E+03  0.26287278592E+03 0.  0.
         25    1    4    4    0    0 -0.35907199815E+02  0.46454609712E+02 -0.15852863037E+03  0.21030024372E+03  0.12509000000E+03 0.  0.
         25    1    4    4    0    0 -0.70483273085E+02 -0.19824832784E+02 -0.12148716117E+03  0.18912311918E+03  0.12509000000E+03 0.  0.
         25    1    3    3    0    0  0.10639047290E+03 -0.26629776928E+02 -0.95734568061E+02  0.19193929604E+03  0.12509000000E+03 0.  0.
<mgrwt>
<rscale>  2 0.45664150E+03</rscale>
<asrwt>0</asrwt>
<pdfrwt beam="1">  1       21 0.15853845E-01 0.45664150E+03</pdfrwt>
<pdfrwt beam="2">  1       21 0.71111254E-01 0.45664150E+03</pdfrwt>
<totfact> 0.58451091E+04</totfact>
</mgrwt>
</event>
<event>
 7    0  0.4709932E-002  0.4540230E+03  0.7546771E-02  0.1026529E+00
         21   -1    0    0  502  501  0.00000000000E+00  0.00000000000E+00  0.10837578464E+03  0.10837578464E+03  0.00000000000E+00 0. -1.
         21   -1    0    0  501  502 -0.00000000000E+00 -0.00000000000E+00 -0.47551420317E+03  0.47551420317E+03  0.00000000000E+00 0. -1.
      99926    2    1    2    0    0  0.00000000000E+00  0.00000000000E+00 -0.36713841853E+03  0.58388998782E+03  0.45402301650E+03 0.  0.
      99925    2    3    3    0    0 -0.58672924215E+01 -0.85637557701E+02 -0.13821595354E+03  0.30926074777E+03  0.26300255492E+03 0.  0.
         25    1    4    4    0    0 -0.15538467340E+01 -0.62227379623E+02 -0.31755628705E+02  0.14328499317E+03  0.12509000000E+03 0.  0.
         25    1    3    3    0    0  0.58672924215E+01  0.85637557701E+02 -0.22892246499E+03  0.27462924004E+03  0.12509000000E+03 0.  0.
         25    1    4    4    0    0 -0.43134456874E+01 -0.23410178078E+02 -0.10646032483E+03  0.16597575460E+03  0.12509000000E+03 0.  0.
<mgrwt>
<rscale>  2 0.45402302E+03</rscale>
<asrwt>0</asrwt>
<pdfrwt beam="1">  1       21 0.15937615E-01 0.45402302E+03</pdfrwt>
<pdfrwt beam="2">  1       21 0.69928559E-01 0.45402302E+03</pdfrwt>
<totfact> 0.60144143E+04</totfact>
</mgrwt>
</event>
<event>
 6    0  0.4709932E-002  0.4488781E+03  0.7546771E-02  0.1028057E+00
         21   -1    0    0  502  501  0.00000000000E+00  0.00000000000E+00  0.96578058631E+02  0.96578058631E+02  0.00000000000E+00 0.  1.
         21   -1    0    0  501  502 -0.00000000000E+00 -0.00000000000E+00 -0.52157687324E+03  0.52157687324E+03  0.00000000000E+00 0.  1.
      99926    2    1    2    0    0  0.00000000000E+00 -0.35527136788E-14 -0.42499881460E+03  0.61815493187E+03  0.44887807629E+03 0.  0.
         25    1    3    3    0    0 -0.18889338382E+02 -0.17681706152E+02 -0.11073340475E+03  0.16905278721E+03  0.12509000000E+03 0.  0.
         25    1    3    3    0    0 -0.53128810106E+02  0.45794672392E+02 -0.60173187459E+02  0.15552537758E+03  0.12509000000E+03 0.  0.
         25    1    3    3    0    0  0.72018148489E+02 -0.28112966240E+02 -0.25409222239E+03  0.29357676707E+03  0.12509000000E+03 0.  0.
<mgrwt>
<rscale>  2 0.44887808E+03</rscale>
<asrwt>0</asrwt>
<pdfrwt beam="1">  1       21 0.14202656E-01 0.44887808E+03</pdfrwt>
<pdfrwt beam="2">  1       21 0.76702481E-01 0.44887808E+03</pdfrwt>
<totfact> 0.60443934E+04</totfact>
</mgrwt>
</event>
<event>
 7    0  0.4709932E-002  0.4553815E+03  0.7546771E-02  0.1026129E+00
         21   -1    0    0  502  501  0.00000000000E+00  0.00000000000E+00  0.57659242372E+02  0.57659242372E+02  0.00000000000E+00 0.  1.
         21   -1    0    0  501  502 -0.00000000000E+00 -0.00000000000E+00 -0.89912846950E+03  0.89912846950E+03  0.00000000000E+00 0.  1.
      99926    2    1    2    0    0  0.71054273576E-14  0.14210854715E-13 -0.84146922713E+03  0.95678771188E+03  0.45538145042E+03 0.  0.
      99925    2    3    3    0    0 -0.40460305869E+02 -0.10224858227E+03 -0.46979489057E+03  0.54950264035E+03  0.26297167836E+03 0.  0.
         25    1    4    4    0    0 -0.39120980994E+02 -0.13872280878E+02 -0.22355034007E+03  0.25950944872E+03  0.12509000000E+03 0.  0.
         25    1    3    3    0    0  0.40460305869E+02  0.10224858227E+03 -0.37167433657E+03  0.40728507153E+03  0.12509000000E+03 0.  0.
         25    1    4    4    0    0 -0.13393248742E+01 -0.88376301396E+02 -0.24624455049E+03  0.28999319162E+03  0.12509000000E+03 0.  0.
<mgrwt>
<rscale>  2 0.45538145E+03</rscale>
<asrwt>0</asrwt>
<pdfrwt beam="1">  1       21 0.84793003E-02 0.45538145E+03</pdfrwt>
<pdfrwt beam="2">  1       21 0.13222478E+00 0.45538145E+03</pdfrwt>
<totfact> 0.40745522E+04</totfact>
</mgrwt>
</event>
<event>
 7    0  0.4709932E-002  0.4569061E+03  0.7546771E-02  0.1025682E+00
         21   -1    0    0  502  501  0.00000000000E+00  0.00000000000E+00  0.76383709688E+03  0.76383709688E+03  0.00000000000E+00 0. -1.
         21   -1    0    0  501  502 -0.00000000000E+00 -0.00000000000E+00 -0.68327124272E+02  0.68327124272E+02  0.00000000000E+00 0. -1.
      99926    2    1    2    0    0  0.00000000000E+00  0.00000000000E+00  0.69550997261E+03  0.83216422115E+03  0.45690608331E+03 0.  0.
      99925    2    3    3    0    0  0.35944959812E+02 -0.10915992735E+03  0.44400626054E+03  0.52866866079E+03  0.26294688366E+03 0.  0.
         25    1    3    3    0    0 -0.35944959812E+02  0.10915992735E+03  0.25150371206E+03  0.30349556036E+03  0.12509000000E+03 0.  0.
         25    1    4    4    0    0  0.33858053184E+02 -0.81686599795E+02  0.18886493669E+03  0.24318005831E+03  0.12509000000E+03 0.  0.
         25    1    4    4    0    0  0.20869066278E+01 -0.27473327559E+02  0.25514132385E+03  0.28548860248E+03  0.12509000000E+03 0.  0.
<mgrwt>
<rscale>  2 0.45690608E+03</rscale>
<asrwt>0</asrwt>
<pdfrwt beam="1">  1       21 0.11232898E+00 0.45690608E+03</pdfrwt>
<pdfrwt beam="2">  1       21 0.10048107E-01 0.45690608E+03</pdfrwt>
<totfact> 0.45562856E+04</totfact>
</mgrwt>
</event>
<event>
 7    0  0.4709932E-002  0.4666511E+03  0.7546771E-02  0.1022870E+00
         21   -1    0    0  502  501  0.00000000000E+00  0.00000000000E+00  0.24588624379E+03  0.24588624379E+03  0.00000000000E+00 0.  1.
         21   -1    0    0  501  502 -0.00000000000E+00 -0.00000000000E+00 -0.22140647606E+03  0.22140647606E+03  0.00000000000E+00 0.  1.
      99926    2    1    2    0    0  0.00000000000E+00  0.35527136788E-14  0.24479767730E+02  0.46729271984E+03  0.46665107628E+03 0.  0.
      99925    2    3    3    0    0 -0.50028659365E+02 -0.24608257736E+02 -0.95728192992E+02  0.28506787239E+03  0.26266208678E+03 0.  0.
         25    1    4    4    0    0 -0.48143764642E+02 -0.41375100102E+02 -0.32941991976E+02  0.14409165110E+03  0.12509000000E+03 0.  0.
         25    1    3    3    0    0  0.50028659365E+02  0.24608257736E+02  0.12020796072E+03  0.18222484745E+03  0.12509000000E+03 0.  0.
         25    1    4    4    0    0 -0.18848947229E+01  0.16766842366E+02 -0.62786201017E+02  0.14097622129E+03  0.12509000000E+03 0.  0.
<mgrwt>
<rscale>  2 0.46665108E+03</rscale>
<asrwt>0</asrwt>
<pdfrwt beam="1">  1       21 0.36159742E-01 0.46665108E+03</pdfrwt>
<pdfrwt beam="2">  1       21 0.32559776E-01 0.46665108E+03</pdfrwt>
<totfact> 0.61714703E+04</totfact>
</mgrwt>
</event>
<event>
 7    0  0.4709932E-002  0.4562218E+03  0.7546771E-02  0.1025883E+00
         21   -1    0    0  502  501  0.00000000000E+00  0.00000000000E+00  0.45142990798E+02  0.45142990798E+02  0.00000000000E+00 0.  1.
         21   -1    0    0  501  502 -0.00000000000E+00 -0.00000000000E+00 -0.11526614627E+04  0.11526614627E+04  0.00000000000E+00 0.  1.
      99926    2    1    2    0    0  0.00000000000E+00 -0.66613381478E-15 -0.11075184719E+04  0.11978044535E+04  0.45622181360E+03 0.  0.
      99925    2    3    3    0    0 -0.85204890734E+02  0.18932166896E+01 -0.49548824789E+03  0.56733481832E+03  0.26286257742E+03 0.  0.
         25    1    4    4    0    0 -0.26468827790E+02  0.12814184202E+02 -0.31154242482E+03  0.33700295655E+03  0.12509000000E+03 0.  0.
         25    1    3    3    0    0  0.85204890734E+02 -0.18932166896E+01 -0.61203022397E+03  0.63046963513E+03  0.12509000000E+03 0.  0.
         25    1    4    4    0    0 -0.58736062944E+02 -0.10920967512E+02 -0.18394582307E+03  0.23033186177E+03  0.12509000000E+03 0.  0.
<mgrwt>
<rscale>  2 0.45622181E+03</rscale>
<asrwt>0</asrwt>
<pdfrwt beam="1">  1       21 0.66386753E-02 0.45622181E+03</pdfrwt>
<pdfrwt beam="2">  1       21 0.16950903E+00 0.45622181E+03</pdfrwt>
<totfact> 0.31920701E+04</totfact>
</mgrwt>
</event>
<event>
 7    0  0.4709932E-002  0.4570350E+03  0.7546771E-02  0.1025645E+00
         21   -1    0    0  502  501  0.00000000000E+00  0.00000000000E+00  0.34879841570E+03  0.34879841570E+03  0.00000000000E+00 0. -1.
         21   -1    0    0  501  502 -0.00000000000E+00 -0.00000000000E+00 -0.14971470485E+03  0.14971470485E+03  0.00000000000E+00 0. -1.
      99926    2    1    2    0    0  0.00000000000E+00  0.00000000000E+00  0.19908371086E+03  0.49851312055E+03  0.45703501773E+03 0.  0.
      99925    2    3    3    0    0  0.38093853259E+02  0.79845974555E+02  0.45895250131E+02  0.28185501683E+03  0.26364626912E+03 0.  0.
         25    1    4    4    0    0 -0.13086596288E+02  0.61315051270E+02  0.39023623458E+02  0.14526233442E+03  0.12509000000E+03 0.  0.
         25    1    4    4    0    0  0.51180449547E+02  0.18530923285E+02  0.68716266727E+01  0.13659268241E+03  0.12509000000E+03 0.  0.
         25    1    3    3    0    0 -0.38093853259E+02 -0.79845974555E+02  0.15318846072E+03  0.21665810372E+03  0.12509000000E+03 0.  0.
<mgrwt>
<rscale>  2 0.45703502E+03</rscale>
<asrwt>0</asrwt>
<pdfrwt beam="1">  1       21 0.51293885E-01 0.45703502E+03</pdfrwt>
<pdfrwt beam="2">  1       21 0.22016868E-01 0.45703502E+03</pdfrwt>
<totfact> 0.64329721E+04</totfact>
</mgrwt>
</event>
<event>
 7    0  0.4709932E-002  0.4593154E+03  0.7546771E-02  0.1024980E+00
         21   -1    0    0  502  501  0.00000000000E+00  0.00000000000E+00  0.20313649413E+03  0.20313649413E+03  0.00000000000E+00 0.  1.
         21   -1    0    0  501  502 -0.00000000000E+00 -0.00000000000E+00 -0.25964142901E+03  0.25964142901E+03  0.00000000000E+00 0.  1.
      99926    2    1    2    0    0  0.71054273576E-14  0.00000000000E+00 -0.56504934874E+02  0.46277792314E+03  0.45931535842E+03 0.  0.
      99925    2    3    3    0    0  0.41263098536E+02 -0.80574906998E+02 -0.11035063173E+03  0.29924864102E+03  0.26301621298E+03 0.  0.
         25    1    3    3    0    0 -0.41263098536E+02  0.80574906998E+02  0.53845696858E+02  0.16352928211E+03  0.12509000000E+03 0.  0.
         25    1    4    4    0    0  0.24026971712E+01 -0.17161123408E+02 -0.83143698419E+02  0.15119741994E+03  0.12509000000E+03 0.  0.
         25    1    4    4    0    0  0.38860401365E+02 -0.63413783590E+02 -0.27206933313E+02  0.14805122108E+03  0.12509000000E+03 0.  0.
<mgrwt>
<rscale>  2 0.45931536E+03</rscale>
<asrwt>0</asrwt>
<pdfrwt beam="1">  1       21 0.29873014E-01 0.45931536E+03</pdfrwt>
<pdfrwt beam="2">  1       21 0.38182563E-01 0.45931536E+03</pdfrwt>
<totfact> 0.65688628E+04</totfact>
</mgrwt>
</event>
<event>
 7    0  0.4709932E-002  0.4344549E+03  0.7546771E-02  0.1032462E+00
         21   -1    0    0  502  501  0.00000000000E+00  0.00000000000E+00  0.69885152754E+03  0.69885152754E+03  0.00000000000E+00 0.  1.
         21   -1    0    0  501  502 -0.00000000000E+00 -0.00000000000E+00 -0.67521862687E+02  0.67521862687E+02  0.00000000000E+00 0.  1.
      99926    2    1    2    0    0  0.00000000000E+00  0.00000000000E+00  0.63132966485E+03  0.76637339022E+03  0.43445486247E+03 0.  0.
      99925    2    3    3    0    0  0.83765497966E+02 -0.30891728878E+02  0.44793789088E+03  0.52710156067E+03  0.26309075165E+03 0.  0.
         25    1    3    3    0    0 -0.83765497966E+02  0.30891728878E+02  0.18339177396E+03  0.23927182956E+03  0.12509000000E+03 0.  0.
         25    1    4    4    0    0  0.14156394249E+02 -0.42217345104E+02  0.24213387361E+03  0.27615037312E+03  0.12509000000E+03 0.  0.
         25    1    4    4    0    0  0.69609103717E+02  0.11325616226E+02  0.20580401728E+03  0.25095118754E+03  0.12509000000E+03 0.  0.
<mgrwt>
<rscale>  2 0.43445486E+03</rscale>
<asrwt>0</asrwt>
<pdfrwt beam="1">  1       21 0.10277228E+00 0.43445486E+03</pdfrwt>
<pdfrwt beam="2">  1       21 0.99296861E-02 0.43445486E+03</pdfrwt>
<totfact> 0.58281400E+04</totfact>
</mgrwt>
</event>
<event>
 7    0  0.4709932E-002  0.4552285E+03  0.7546771E-02  0.1026174E+00
         21   -1    0    0  502  501  0.00000000000E+00  0.00000000000E+00  0.13110867736E+03  0.13110867736E+03  0.00000000000E+00 0.  1.
         21   -1    0    0  501  502 -0.00000000000E+00 -0.00000000000E+00 -0.39515497716E+03  0.39515497716E+03  0.00000000000E+00 0.  1.
      99926    2    1    2    0    0  0.00000000000E+00  0.00000000000E+00 -0.26404629980E+03  0.52626365452E+03  0.45522849826E+03 0.  0.
      99925    2    3    3    0    0 -0.89349840488E+02 -0.32761032664E+02 -0.23738184799E+03  0.36684226214E+03  0.26299510316E+03 0.  0.
         25    1    4    4    0    0 -0.29527027054E+02  0.22259988856E+02 -0.10675018966E+03  0.16855403740E+03  0.12509000000E+03 0.  0.
         25    1    3    3    0    0  0.89349840488E+02  0.32761032664E+02 -0.26664451810E+02  0.15942139237E+03  0.12509000000E+03 0.  0.
         25    1    4    4    0    0 -0.59822813433E+02 -0.55021021520E+02 -0.13063165833E+03  0.19828822475E+03  0.12509000000E+03 0.  0.
<mgrwt>
<rscale>  2 0.45522850E+03</rscale>
<asrwt>0</asrwt>
<pdfrwt beam="1">  1       21 0.19280688E-01 0.45522850E+03</pdfrwt>
<pdfrwt beam="2">  1       21 0.58111027E-01 0.45522850E+03</pdfrwt>
<totfact> 0.63345352E+04</totfact>
</mgrwt>
</event>
<event>
 7    0  0.4709932E-002  0.4553916E+03  0.7546771E-02  0.1026126E+00
         21   -1    0    0  502  501  0.00000000000E+00  0.00000000000E+00  0.98744171771E+02  0.98744171771E+02  0.00000000000E+00 0. -1.
         21   -1    0    0  501  502 -0.00000000000E+00 -0.00000000000E+00 -0.52504737205E+03  0.52504737205E+03  0.00000000000E+00 0. -1.
      99926    2    1    2    0    0  0.00000000000E+00  0.00000000000E+00 -0.42630320027E+03  0.62379154382E+03  0.45539155852E+03 0.  0.
      99925    2    3    3    0    0  0.79685872254E+02  0.69160053265E+02 -0.32624269717E+03  0.43197766636E+03  0.26274979652E+03 0.  0.
         25    1    4    4    0    0  0.62476998318E+02  0.48349223700E+02 -0.12597764455E+03  0.19431648869E+03  0.12509000000E+03 0.  0.
         25    1    3    3    0    0 -0.79685872254E+02 -0.69160053265E+02 -0.10006050311E+03  0.19181387746E+03  0.12509000000E+03 0.  0.
         25    1    4    4    0    0  0.17208873936E+02  0.20810829565E+02 -0.20026505261E+03  0.23766117766E+03  0.12509000000E+03 0.  0.
<mgrwt>
<rscale>  2 0.45539156E+03</rscale>
<asrwt>0</asrwt>
<pdfrwt beam="1">  1       21 0.14521202E-01 0.45539156E+03</pdfrwt>
<pdfrwt beam="2">  1       21 0.77212849E-01 0.45539156E+03</pdfrwt>
<totfact> 0.57060610E+04</totfact>
</mgrwt>
</event>
<event>
 7    0  0.4709932E-002  0.4421368E+03  0.7546771E-02  0.1030093E+00
         21   -1    0    0  502  501  0.00000000000E+00  0.00000000000E+00  0.73458315335E+03  0.73458315335E+03  0.00000000000E+00 0. -1.
         21   -1    0    0  501  502 -0.00000000000E+00 -0.00000000000E+00 -0.66529200285E+02  0.66529200285E+02  0.00000000000E+00 0. -1.
      99926    2    1    2    0    0  0.71054273576E-14  0.00000000000E+00  0.66805395307E+03  0.80111235364E+03  0.44213676497E+03 0.  0.
      99925    2    3    3    0    0 -0.36917619832E+02  0.93692103818E+02  0.43045079725E+03  0.51433040036E+03  0.26288162908E+03 0.  0.
         25    1    4    4    0    0 -0.33399857861E+02  0.35931864826E+02  0.27827865387E+03  0.30901968661E+03  0.12509000000E+03 0.  0.
         25    1    4    4    0    0 -0.35177619709E+01  0.57760238992E+02  0.15217214338E+03  0.20531071375E+03  0.12509000000E+03 0.  0.
         25    1    3    3    0    0  0.36917619832E+02 -0.93692103818E+02  0.23760315582E+03  0.28678195328E+03  0.12509000000E+03 0.  0.
<mgrwt>
<rscale>  2 0.44213676E+03</rscale>
<asrwt>0</asrwt>
<pdfrwt beam="1">  1       21 0.10802693E+00 0.44213676E+03</pdfrwt>
<pdfrwt beam="2">  1       21 0.97837063E-02 0.44213676E+03</pdfrwt>
<totfact> 0.52847356E+04</totfact>
</mgrwt>
</event>
<event>
 7    0  0.4709932E-002  0.4638571E+03  0.7546771E-02  0.1023668E+00
         21   -1    0    0  502  501  0.00000000000E+00  0.00000000000E+00  0.32353382152E+03  0.32353382152E+03  0.00000000000E+00 0. -1.
         21   -1    0    0  501  502 -0.00000000000E+00 -0.00000000000E+00 -0.16626033277E+03  0.16626033277E+03  0.00000000000E+00 0. -1.
      99926    2    1    2    0    0  0.17763568394E-14 -0.21094237468E-14  0.15727348875E+03  0.48979415429E+03  0.46385705051E+03 0.  0.
      99925    2    3    3    0    0 -0.65187120431E+01  0.29440298813E+00  0.22606962752E+03  0.34688510247E+03  0.26301942429E+03 0.  0.
         25    1    4    4    0    0 -0.19902123224E+02  0.31159134509E+02  0.86762262261E+02  0.15665945367E+03  0.12509000000E+03 0.  0.
         25    1    4    4    0    0  0.13383411181E+02 -0.30864731521E+02  0.13930736526E+03  0.19022564880E+03  0.12509000000E+03 0.  0.
         25    1    3    3    0    0  0.65187120431E+01 -0.29440298813E+00 -0.68796138775E+02  0.14290905181E+03  0.12509000000E+03 0.  0.
<mgrwt>
<rscale>  2 0.46385705E+03</rscale>
<asrwt>0</asrwt>
<pdfrwt beam="1">  1       21 0.47578503E-01 0.46385705E+03</pdfrwt>
<pdfrwt beam="2">  1       21 0.24450049E-01 0.46385705E+03</pdfrwt>
<totfact> 0.61550977E+04</totfact>
</mgrwt>
</event>
<event>
 7    0  0.4709932E-002  0.4538263E+03  0.7546771E-02  0.1026587E+00
         21   -1    0    0  502  501  0.00000000000E+00  0.00000000000E+00  0.87699561595E+02  0.87699561595E+02  0.00000000000E+00 0. -1.
         21   -1    0    0  501  502 -0.00000000000E+00 -0.00000000000E+00 -0.58711339461E+03  0.58711339461E+03  0.00000000000E+00 0. -1.
      99926    2    1    2    0    0  0.00000000000E+00  0.71054273576E-14 -0.49941383301E+03  0.67481295620E+03  0.45382634262E+03 0.  0.
      99925    2    3    3    0    0  0.58073349551E+02 -0.49243360400E+02 -0.19145358304E+03  0.33380790326E+03  0.26263247961E+03 0.  0.
         25    1    3    3    0    0 -0.58073349551E+02  0.49243360400E+02 -0.30796024997E+03  0.34100505294E+03  0.12509000000E+03 0.  0.
         25    1    4    4    0    0  0.13363556576E+01 -0.34434100616E+02 -0.12627192169E+03  0.18105137237E+03  0.12509000000E+03 0.  0.
         25    1    4    4    0    0  0.56736993893E+02 -0.14809259784E+02 -0.65181661357E+02  0.15275653089E+03  0.12509000000E+03 0.  0.
<mgrwt>
<rscale>  2 0.45382634E+03</rscale>
<asrwt>0</asrwt>
<pdfrwt beam="1">  1       21 0.12896995E-01 0.45382634E+03</pdfrwt>
<pdfrwt beam="2">  1       21 0.86340202E-01 0.45382634E+03</pdfrwt>
<totfact> 0.54797339E+04</totfact>
</mgrwt>
</event>
<event>
 7    0  0.4709932E-002  0.4567948E+03  0.7546771E-02  0.1025715E+00
         21   -1    0    0  502  501  0.00000000000E+00  0.00000000000E+00  0.17508794797E+03  0.17508794797E+03  0.00000000000E+00 0. -1.
         21   -1    0    0  501  502 -0.00000000000E+00 -0.00000000000E+00 -0.29793805150E+03  0.29793805150E+03  0.00000000000E+00 0. -1.
      99926    2    1    2    0    0  0.00000000000E+00  0.00000000000E+00 -0.12285010353E+03  0.47302599947E+03  0.45679475504E+03 0.  0.
      99925    2    3    3    0    0 -0.92337673679E+02  0.47641169302E+02 -0.12804237801E+03  0.31032875054E+03  0.26289381099E+03 0.  0.
         25    1    4    4    0    0 -0.35808474734E+02 -0.11303806237E+02 -0.81102118290E+02  0.15373706316E+03  0.12509000000E+03 0.  0.
         25    1    3    3    0    0  0.92337673679E+02 -0.47641169302E+02  0.51922744800E+01  0.16269724892E+03  0.12509000000E+03 0.  0.
         25    1    4    4    0    0 -0.56529198945E+02  0.58944975539E+02 -0.46940259718E+02  0.15659168738E+03  0.12509000000E+03 0.  0.
<mgrwt>
<rscale>  2 0.45679476E+03</rscale>
<asrwt>0</asrwt>
<pdfrwt beam="1">  1       21 0.25748228E-01 0.45679476E+03</pdfrwt>
<pdfrwt beam="2">  1       21 0.43814419E-01 0.45679476E+03</pdfrwt>
<totfact> 0.66262792E+04</totfact>
</mgrwt>
</event>
<event>
 7    0  0.4709932E-002  0.4574843E+03  0.7546771E-02  0.1025513E+00
         21   -1    0    0  502  501  0.00000000000E+00  0.00000000000E+00  0.10832850994E+04  0.10832850994E+04  0.00000000000E+00 0. -1.
         21   -1    0    0  501  502 -0.00000000000E+00 -0.00000000000E+00 -0.48300273382E+02  0.48300273382E+02  0.00000000000E+00 0. -1.
      99926    2    1    2    0    0  0.14210854715E-13  0.00000000000E+00  0.10349848260E+04  0.11315853728E+04  0.45748427930E+03 0.  0.
      99925    2    3    3    0    0  0.93538518340E+02  0.65825842867E+02  0.68751343776E+03  0.74497656564E+03  0.26312137931E+03 0.  0.
         25    1    4    4    0    0  0.52298446622E+02  0.74348820094E+02  0.35421008336E+03  0.38649083536E+03  0.12509000000E+03 0.  0.
         25    1    3    3    0    0 -0.93538518340E+02 -0.65825842867E+02  0.34747138828E+03  0.38660880717E+03  0.12509000000E+03 0.  0.
         25    1    4    4    0    0  0.41240071718E+02 -0.85229772262E+01  0.33330335440E+03  0.35848573028E+03  0.12509000000E+03 0.  0.
<mgrwt>
<rscale>  2 0.45748428E+03</rscale>
<asrwt>0</asrwt>
<pdfrwt beam="1">  1       21 0.15930662E+00 0.45748428E+03</pdfrwt>
<pdfrwt beam="2">  1       21 0.71029820E-02 0.45748428E+03</pdfrwt>
<totfact> 0.33744944E+04</totfact>
</mgrwt>
</event>
<event>
 7    0  0.4709932E-002  0.4728972E+03  0.7546771E-02  0.1021106E+00
         21   -1    0    0  502  501  0.00000000000E+00  0.00000000000E+00  0.13464236519E+03  0.13464236519E+03  0.00000000000E+00 0. -1.
         21   -1    0    0  501  502 -0.00000000000E+00 -0.00000000000E+00 -0.41523281801E+03  0.41523281801E+03  0.00000000000E+00 0. -1.
      99926    2    1    2    0    0  0.00000000000E+00  0.00000000000E+00 -0.28059045281E+03  0.54987518320E+03  0.47289715043E+03 0.  0.
      99925    2    3    3    0    0  0.43927408771E+02  0.12139931743E+03 -0.17126866962E+03  0.33947990784E+03  0.26314680145E+03 0.  0.
         25    1    3    3    0    0 -0.43927408771E+02 -0.12139931743E+03 -0.10932178319E+03  0.21039527536E+03  0.12509000000E+03 0.  0.
         25    1    4    4    0    0 -0.19254978485E+01  0.41148934972E+02 -0.45093734393E+02  0.13920450917E+03  0.12509000000E+03 0.  0.
         25    1    4    4    0    0  0.45852906619E+02  0.80250382462E+02 -0.12617493523E+03  0.20027539867E+03  0.12509000000E+03 0.  0.
<mgrwt>
<rscale>  2 0.47289715E+03</rscale>
<asrwt>0</asrwt>
<pdfrwt beam="1">  1       21 0.19800348E-01 0.47289715E+03</pdfrwt>
<pdfrwt beam="2">  1       21 0.61063649E-01 0.47289715E+03</pdfrwt>
<totfact> 0.53831586E+04</totfact>
</mgrwt>
</event>
<event>
 7    0  0.4709932E-002  0.4542896E+03  0.7546771E-02  0.1026451E+00
         21   -1    0    0  502  501  0.00000000000E+00  0.00000000000E+00  0.36840392981E+03  0.36840392981E+03  0.00000000000E+00 0.  1.
         21   -1    0    0  501  502 -0.00000000000E+00 -0.00000000000E+00 -0.14004943625E+03  0.14004943625E+03  0.00000000000E+00 0.  1.
      99926    2    1    2    0    0  0.00000000000E+00  0.00000000000E+00  0.22835449356E+03  0.50845336605E+03  0.45428961106E+03 0.  0.
      99925    2    3    3    0    0  0.72036278990E+02  0.60864510600E+02  0.75551384260E+02  0.28961549809E+03  0.26320222440E+03 0.  0.
         25    1    4    4    0    0  0.55431038353E+02  0.30139590089E+02  0.76727653966E+02  0.15973614458E+03  0.12509000000E+03 0.  0.
         25    1    3    3    0    0 -0.72036278990E+02 -0.60864510600E+02  0.15280310930E+03  0.21883786796E+03  0.12509000000E+03 0.  0.
         25    1    4    4    0    0  0.16605240636E+02  0.30724920511E+02 -0.11762697061E+01  0.12987935351E+03  0.12509000000E+03 0.  0.
<mgrwt>
<rscale>  2 0.45428961E+03</rscale>
<asrwt>0</asrwt>
<pdfrwt beam="1">  1       21 0.54177048E-01 0.45428961E+03</pdfrwt>
<pdfrwt beam="2">  1       21 0.20595505E-01 0.45428961E+03</pdfrwt>
<totfact> 0.65046736E+04</totfact>
</mgrwt>
</event>
<event>
 7    0  0.4709932E-002  0.4527184E+03  0.7546771E-02  0.1026914E+00
         21   -1    0    0  502  501  0.00000000000E+00  0.00000000000E+00  0.44138661988E+03  0.44138661988E+03  0.00000000000E+00 0.  1.
         21   -1    0    0  501  502 -0.00000000000E+00 -0.00000000000E+00 -0.11608527653E+03  0.11608527653E+03  0.00000000000E+00 0.  1.
      99926    2    1    2    0    0  0.00000000000E+00 -0.35527136788E-14  0.32530134335E+03  0.55747189641E+03  0.45271840177E+03 0.  0.
      99925    2    3    3    0    0 -0.10048337157E+03  0.23598755435E+02  0.15448860694E+03  0.32193355932E+03  0.26290811650E+03 0.  0.
         25    1    3    3    0    0  0.10048337157E+03 -0.23598755435E+02  0.17081273641E+03  0.23553833709E+03  0.12509000000E+03 0.  0.
         25    1    4    4    0    0 -0.79229932562E+02 -0.10090615183E+02  0.59515692273E+02  0.15990255925E+03  0.12509000000E+03 0.  0.
         25    1    4    4    0    0 -0.21253439006E+02  0.33689370618E+02  0.94972914669E+02  0.16203100007E+03  0.12509000000E+03 0.  0.
<mgrwt>
<rscale>  2 0.45271840E+03</rscale>
<asrwt>0</asrwt>
<pdfrwt beam="1">  1       21 0.64909796E-01 0.45271840E+03</pdfrwt>
<pdfrwt beam="2">  1       21 0.17071364E-01 0.45271840E+03</pdfrwt>
<totfact> 0.62495773E+04</totfact>
</mgrwt>
</event>
<event>
 7    0  0.4709932E-002  0.4589198E+03  0.7546771E-02  0.1025095E+00
         21   -1    0    0  502  501  0.00000000000E+00  0.00000000000E+00  0.96630788660E+02  0.96630788660E+02  0.00000000000E+00 0. -1.
         21   -1    0    0  501  502 -0.00000000000E+00 -0.00000000000E+00 -0.54487638790E+03  0.54487638790E+03  0.00000000000E+00 0. -1.
      99926    2    1    2    0    0  0.14210854715E-13  0.00000000000E+00 -0.44824559923E+03  0.64150717656E+03  0.45891975370E+03 0.  0.
      99925    2    3    3    0    0  0.10261837478E+03 -0.55096089704E+02 -0.29393674979E+03  0.41123594722E+03  0.26296403074E+03 0.  0.
         25    1    4    4    0    0  0.29195492687E+02 -0.54015868854E+02 -0.11347250070E+03  0.17970422198E+03  0.12509000000E+03 0.  0.
         25    1    3    3    0    0 -0.10261837478E+03  0.55096089704E+02 -0.15430884944E+03  0.23027122934E+03  0.12509000000E+03 0.  0.
         25    1    4    4    0    0  0.73422882098E+02 -0.10802208495E+01 -0.18046424909E+03  0.23153172524E+03  0.12509000000E+03 0.  0.
<mgrwt>
<rscale>  2 0.45891975E+03</rscale>
<asrwt>0</asrwt>
<pdfrwt beam="1">  1       21 0.14210410E-01 0.45891975E+03</pdfrwt>
<pdfrwt beam="2">  1       21 0.80128880E-01 0.45891975E+03</pdfrwt>
<totfact> 0.54488316E+04</totfact>
</mgrwt>
</event>
<event>
 7    0  0.4709932E-002  0.4674373E+03  0.7546771E-02  0.1022646E+00
         21   -1    0    0  502  501  0.00000000000E+00  0.00000000000E+00  0.72170035393E+03  0.72170035393E+03  0.00000000000E+00 0.  1.
         21   -1    0    0  501  502 -0.00000000000E+00 -0.00000000000E+00 -0.75688471198E+02  0.75688471198E+02  0.00000000000E+00 0.  1.
      99926    2    1    2    0    0  0.17763568394E-14  0.14210854715E-13  0.64601188274E+03  0.79738882513E+03  0.46743725334E+03 0.  0.
      99925    2    3    3    0    0  0.14008062510E+02 -0.81354730582E+02  0.56110917793E+03  0.62513669775E+03  0.26294022765E+03 0.  0.
         25    1    3    3    0    0 -0.14008062510E+02  0.81354730582E+02  0.84902704807E+02  0.17225212738E+03  0.12509000000E+03 0.  0.
         25    1    4    4    0    0  0.42216663434E+02 -0.31742799213E+02  0.31926887072E+03  0.34694375897E+03  0.12509000000E+03 0.  0.
         25    1    4    4    0    0 -0.28208600924E+02 -0.49611931368E+02  0.24184030720E+03  0.27819293878E+03  0.12509000000E+03 0.  0.
<mgrwt>
<rscale>  2 0.46743725E+03</rscale>
<asrwt>0</asrwt>
<pdfrwt beam="1">  1       21 0.10613240E+00 0.46743725E+03</pdfrwt>
<pdfrwt beam="2">  1       21 0.11130658E-01 0.46743725E+03</pdfrwt>
<totfact> 0.43488676E+04</totfact>
</mgrwt>
</event>
<event>
 7    0  0.4709932E-002  0.4613588E+03  0.7546771E-02  0.1024388E+00
         21   -1    0    0  502  501  0.00000000000E+00  0.00000000000E+00  0.41802963991E+03  0.41802963991E+03  0.00000000000E+00 0. -1.
         21   -1    0    0  501  502 -0.00000000000E+00 -0.00000000000E+00 -0.12729476958E+03  0.12729476958E+03  0.00000000000E+00 0. -1.
      99926    2    1    2    0    0  0.00000000000E+00 -0.14210854715E-13  0.29073487033E+03  0.54532440950E+03  0.46135880480E+03 0.  0.
      99925    2    3    3    0    0  0.36049415815E+02 -0.11347907527E+03  0.17741786453E+03  0.33876857489E+03  0.26288778552E+03 0.  0.
         25    1    4    4    0    0 -0.33304909377E+01 -0.21757675058E+02  0.61204692118E+02  0.14098940042E+03  0.12509000000E+03 0.  0.
         25    1    4    4    0    0  0.39379906753E+02 -0.91721400215E+02  0.11621317241E+03  0.19777917447E+03  0.12509000000E+03 0.  0.
         25    1    3    3    0    0 -0.36049415815E+02  0.11347907527E+03  0.11331700581E+03  0.20655583461E+03  0.12509000000E+03 0.  0.
<mgrwt>
<rscale>  2 0.46135880E+03</rscale>
<asrwt>0</asrwt>
<pdfrwt beam="1">  1       21 0.61474947E-01 0.46135880E+03</pdfrwt>
<pdfrwt beam="2">  1       21 0.18719819E-01 0.46135880E+03</pdfrwt>
<totfact> 0.59143930E+04</totfact>
</mgrwt>
</event>
<event>
 7    0  0.4709932E-002  0.4525395E+03  0.7546771E-02  0.1026967E+00
         21   -1    0    0  502  501  0.00000000000E+00  0.00000000000E+00  0.33723884997E+03  0.33723884997E+03  0.00000000000E+00 0.  1.
         21   -1    0    0  501  502 -0.00000000000E+00 -0.00000000000E+00 -0.15181522932E+03  0.15181522932E+03  0.00000000000E+00 0.  1.
      99926    2    1    2    0    0  0.14210854715E-13 -0.35527136788E-14  0.18542362064E+03  0.48905407929E+03  0.45253947163E+03 0.  0.
      99925    2    3    3    0    0  0.87478407585E+02 -0.23440975456E+02  0.50941275243E+02  0.28427380571E+03  0.26460278148E+03 0.  0.
         25    1    4    4    0    0  0.25474754324E+02  0.69328288940E+01  0.59758279318E+02  0.14112259660E+03  0.12509000000E+03 0.  0.
         25    1    3    3    0    0 -0.87478407585E+02  0.23440975456E+02  0.13448234540E+03  0.20478027358E+03  0.12509000000E+03 0.  0.
         25    1    4    4    0    0  0.62003653261E+02 -0.30373804350E+02 -0.88170040748E+01  0.14315120911E+03  0.12509000000E+03 0.  0.
<mgrwt>
<rscale>  2 0.45253947E+03</rscale>
<asrwt>0</asrwt>
<pdfrwt beam="1">  1       21 0.49593949E-01 0.45253947E+03</pdfrwt>
<pdfrwt beam="2">  1       21 0.22325769E-01 0.45253947E+03</pdfrwt>
<totfact> 0.67352742E+04</totfact>
</mgrwt>
</event>
<event>
 7    0  0.4709932E-002  0.4511423E+03  0.7546771E-02  0.1027382E+00
         21   -1    0    0  502  501  0.00000000000E+00  0.00000000000E+00  0.76336540849E+02  0.76336540849E+02  0.00000000000E+00 0. -1.
         21   -1    0    0  501  502 -0.00000000000E+00 -0.00000000000E+00 -0.66655292094E+03  0.66655292094E+03  0.00000000000E+00 0. -1.
      99926    2    1    2    0    0  0.00000000000E+00  0.00000000000E+00 -0.59021638009E+03  0.74288946179E+03  0.45114230250E+03 0.  0.
      99925    2    3    3    0    0  0.29160497580E+02  0.10279111619E+03 -0.33333196867E+03  0.43784281434E+03  0.26302049454E+03 0.  0.
         25    1    4    4    0    0  0.54434562079E+01  0.65588733560E+02 -0.11430187794E+03  0.18177992350E+03  0.12509000000E+03 0.  0.
         25    1    3    3    0    0 -0.29160497580E+02 -0.10279111619E+03 -0.25688441142E+03  0.30504664745E+03  0.12509000000E+03 0.  0.
         25    1    4    4    0    0  0.23717041372E+02  0.37202382628E+02 -0.21903009072E+03  0.25606289084E+03  0.12509000000E+03 0.  0.
<mgrwt>
<rscale>  2 0.45114230E+03</rscale>
<asrwt>0</asrwt>
<pdfrwt beam="1">  1       21 0.11225962E-01 0.45114230E+03</pdfrwt>
<pdfrwt beam="2">  1       21 0.98022485E-01 0.45114230E+03</pdfrwt>
<totfact> 0.52200474E+04</totfact>
</mgrwt>
</event>
<event>
 7    0  0.4709932E-002  0.4499871E+03  0.7546771E-02  0.1027726E+00
         21   -1    0    0  502  501  0.00000000000E+00  0.00000000000E+00  0.45647835753E+02  0.45647835753E+02  0.00000000000E+00 0. -1.
         21   -1    0    0  501  502 -0.00000000000E+00 -0.00000000000E+00 -0.11089703649E+04  0.11089703649E+04  0.00000000000E+00 0. -1.
      99926    2    1    2    0    0 -0.17763568394E-14  0.17763568394E-14 -0.10633225292E+04  0.11546182007E+04  0.44998709791E+03 0.  0.
      99925    2    3    3    0    0 -0.11265761830E+02 -0.46563922716E+01 -0.39596583794E+03  0.47552979641E+03  0.26304190366E+03 0.  0.
         25    1    4    4    0    0 -0.18050391105E+02 -0.11985139203E+02 -0.26668755461E+03  0.29536286169E+03  0.12509000000E+03 0.  0.
         25    1    4    4    0    0  0.67846292746E+01  0.73287469311E+01 -0.12927828333E+03  0.18016693472E+03  0.12509000000E+03 0.  0.
         25    1    3    3    0    0  0.11265761830E+02  0.46563922716E+01 -0.66735669122E+03  0.67908840425E+03  0.12509000000E+03 0.  0.
<mgrwt>
<rscale>  2 0.44998710E+03</rscale>
<asrwt>0</asrwt>
<pdfrwt beam="1">  1       21 0.67129178E-02 0.44998710E+03</pdfrwt>
<pdfrwt beam="2">  1       21 0.16308386E+00 0.44998710E+03</pdfrwt>
<totfact> 0.34975076E+04</totfact>
</mgrwt>
</event>
<event>
 7    0  0.4709932E-002  0.4487655E+03  0.7546771E-02  0.1028091E+00
         21   -1    0    0  502  501  0.00000000000E+00  0.00000000000E+00  0.18905526765E+04  0.18905526765E+04  0.00000000000E+00 0. -1.
         21   -1    0    0  501  502 -0.00000000000E+00 -0.00000000000E+00 -0.26631168929E+02  0.26631168929E+02  0.00000000000E+00 0. -1.
      99926    2    1    2    0    0  0.00000000000E+00 -0.88817841970E-15  0.18639215076E+04  0.19171838455E+04  0.44876554100E+03 0.  0.
      99925    2    3    3    0    0  0.20432012201E+02 -0.18601674121E+01  0.16292682828E+04  0.16504806933E+04  0.26296473978E+03 0.  0.
         25    1    4    4    0    0  0.27193867560E+02  0.26241816182E+02  0.97672887405E+03  0.98543134761E+03  0.12509000000E+03 0.  0.
         25    1    3    3    0    0 -0.20432012201E+02  0.18601674121E+01  0.23465322478E+03  0.26670315211E+03  0.12509000000E+03 0.  0.
         25    1    4    4    0    0 -0.67618553590E+01 -0.28101983595E+02  0.65253940877E+03  0.66504934574E+03  0.12509000000E+03 0.  0.
<mgrwt>
<rscale>  2 0.44876554E+03</rscale>
<asrwt>0</asrwt>
<pdfrwt beam="1">  1       21 0.27802236E+00 0.44876554E+03</pdfrwt>
<pdfrwt beam="2">  1       21 0.39163497E-02 0.44876554E+03</pdfrwt>
<totfact> 0.15863112E+04</totfact>
</mgrwt>
</event>
<event>
 7    0  0.4709932E-002  0.4557621E+03  0.7546771E-02  0.1026018E+00
         21   -1    0    0  502  501  0.00000000000E+00  0.00000000000E+00  0.21891836959E+03  0.21891836959E+03  0.00000000000E+00 0.  1.
         21   -1    0    0  501  502 -0.00000000000E+00 -0.00000000000E+00 -0.23721066795E+03  0.23721066795E+03  0.00000000000E+00 0.  1.
      99926    2    1    2    0    0  0.00000000000E+00 -0.14210854715E-13 -0.18292298362E+02  0.45612903755E+03  0.45576209881E+03 0.  0.
      99925    2    3    3    0    0 -0.37960135239E+02 -0.70257788596E+02  0.69746027877E+02  0.28357358642E+03  0.26300635313E+03 0.  0.
         25    1    4    4    0    0 -0.21349473391E+02 -0.73302394842E+02  0.54832160401E+02  0.15647081203E+03  0.12509000000E+03 0.  0.
         25    1    3    3    0    0  0.37960135239E+02  0.70257788596E+02 -0.88038326239E+02  0.17255545112E+03  0.12509000000E+03 0.  0.
         25    1    4    4    0    0 -0.16610661848E+02  0.30446062455E+01  0.14913867477E+02  0.12710277439E+03  0.12509000000E+03 0.  0.
<mgrwt>
<rscale>  2 0.45576210E+03</rscale>
<asrwt>0</asrwt>
<pdfrwt beam="1">  1       21 0.32193878E-01 0.45576210E+03</pdfrwt>
<pdfrwt beam="2">  1       21 0.34883922E-01 0.45576210E+03</pdfrwt>
<totfact> 0.68048453E+04</totfact>
</mgrwt>
</event>
<event>
 7    0  0.4709932E-002  0.4512776E+03  0.7546771E-02  0.1027342E+00
         21   -1    0    0  502  501  0.00000000000E+00  0.00000000000E+00  0.49770701922E+03  0.49770701922E+03  0.00000000000E+00 0. -1.
         21   -1    0    0  501  502 -0.00000000000E+00 -0.00000000000E+00 -0.10229486243E+03  0.10229486243E+03  0.00000000000E+00 0. -1.
      99926    2    1    2    0    0  0.00000000000E+00 -0.71054273576E-14  0.39541215679E+03  0.60000188165E+03  0.45127761328E+03 0.  0.
      99925    2    3    3    0    0  0.13451108753E+02  0.54583518706E+02  0.12447269171E+03  0.29633101595E+03  0.26297970870E+03 0.  0.
         25    1    4    4    0    0  0.25661354572E+02  0.18422789794E+02  0.23581103008E+02  0.13115441594E+03  0.12509000000E+03 0.  0.
         25    1    4    4    0    0 -0.12210245818E+02  0.36160728912E+02  0.10089158870E+03  0.16517660000E+03  0.12509000000E+03 0.  0.
         25    1    3    3    0    0 -0.13451108753E+02 -0.54583518706E+02  0.27093946508E+03  0.30367086571E+03  0.12509000000E+03 0.  0.
<mgrwt>
<rscale>  2 0.45127761E+03</rscale>
<asrwt>0</asrwt>
<pdfrwt beam="1">  1       21 0.73192208E-01 0.45127761E+03</pdfrwt>
<pdfrwt beam="2">  1       21 0.15043362E-01 0.45127761E+03</pdfrwt>
<totfact> 0.60436122E+04</totfact>
</mgrwt>
</event>
<event>
 7    0  0.4709932E-002  0.4539057E+03  0.7546771E-02  0.1026564E+00
         21   -1    0    0  502  501  0.00000000000E+00  0.00000000000E+00  0.12928605917E+03  0.12928605917E+03  0.00000000000E+00 0. -1.
         21   -1    0    0  501  502 -0.00000000000E+00 -0.00000000000E+00 -0.39840021536E+03  0.39840021536E+03  0.00000000000E+00 0. -1.
      99926    2    1    2    0    0  0.00000000000E+00  0.00000000000E+00 -0.26911415619E+03  0.52768627453E+03  0.45390568983E+03 0.  0.
      99925    2    3    3    0    0 -0.22627986590E+02  0.50416404896E+02 -0.28297921116E+03  0.39023232766E+03  0.26296424842E+03 0.  0.
         25    1    4    4    0    0  0.43089977779E+01  0.58605105291E+02 -0.12133561581E+03  0.18391021068E+03  0.12509000000E+03 0.  0.
         25    1    3    3    0    0  0.22627986590E+02 -0.50416404896E+02  0.13865054961E+02  0.13745394687E+03  0.12509000000E+03 0.  0.
         25    1    4    4    0    0 -0.26936984368E+02 -0.81887003945E+01 -0.16164359535E+03  0.20632211699E+03  0.12509000000E+03 0.  0.
<mgrwt>
<rscale>  2 0.45390569E+03</rscale>
<asrwt>0</asrwt>
<pdfrwt beam="1">  1       21 0.19012656E-01 0.45390569E+03</pdfrwt>
<pdfrwt beam="2">  1       21 0.58588267E-01 0.45390569E+03</pdfrwt>
<totfact> 0.63916044E+04</totfact>
</mgrwt>
</event>
<event>
 7    0  0.4709932E-002  0.4581934E+03  0.7546771E-02  0.1025306E+00
         21   -1    0    0  502  501  0.00000000000E+00  0.00000000000E+00  0.26214918666E+03  0.26214918666E+03  0.00000000000E+00 0.  1.
         21   -1    0    0  501  502 -0.00000000000E+00 -0.00000000000E+00 -0.20021155084E+03  0.20021155084E+03  0.00000000000E+00 0.  1.
      99926    2    1    2    0    0  0.00000000000E+00  0.00000000000E+00  0.61937635816E+02  0.46236073750E+03  0.45819338804E+03 0.  0.
      99925    2    3    3    0    0 -0.89934868891E+02 -0.66828764461E+02  0.83194318877E+01  0.28607465099E+03  0.26308768233E+03 0.  0.
         25    1    4    4    0    0 -0.82993464318E+02 -0.47458130064E+02 -0.11067920174E+02  0.15782964292E+03  0.12509000000E+03 0.  0.
         25    1    4    4    0    0 -0.69414045732E+01 -0.19370634398E+02  0.19387352061E+02  0.12824500807E+03  0.12509000000E+03 0.  0.
         25    1    3    3    0    0  0.89934868891E+02  0.66828764461E+02  0.53618203928E+02  0.17628608650E+03  0.12509000000E+03 0.  0.
<mgrwt>
<rscale>  2 0.45819339E+03</rscale>
<asrwt>0</asrwt>
<pdfrwt beam="1">  1       21 0.38551351E-01 0.45819339E+03</pdfrwt>
<pdfrwt beam="2">  1       21 0.29442875E-01 0.45819339E+03</pdfrwt>
<totfact> 0.66304163E+04</totfact>
</mgrwt>
</event>
<event>
 7    0  0.4709932E-002  0.4548832E+03  0.7546771E-02  0.1026276E+00
         21   -1    0    0  502  501  0.00000000000E+00  0.00000000000E+00  0.17314468441E+04  0.17314468441E+04  0.00000000000E+00 0. -1.
         21   -1    0    0  501  502 -0.00000000000E+00 -0.00000000000E+00 -0.29876568177E+02  0.29876568177E+02  0.00000000000E+00 0. -1.
      99926    2    1    2    0    0  0.00000000000E+00  0.00000000000E+00  0.17015702759E+04  0.17613234122E+04  0.45488323637E+03 0.  0.
      99925    2    3    3    0    0 -0.33623352484E+02  0.40853162579E+02  0.14578571282E+04  0.14823196181E+04  0.26291544845E+03 0.  0.
         25    1    3    3    0    0  0.33623352484E+02 -0.40853162579E+02  0.24371314765E+03  0.27900379417E+03  0.12509000000E+03 0.  0.
         25    1    4    4    0    0 -0.36698228068E+01  0.22527637193E+02  0.93278018145E+03  0.94140710484E+03  0.12509000000E+03 0.  0.
         25    1    4    4    0    0 -0.29953529677E+02  0.18325525386E+02  0.52507694679E+03  0.54091251323E+03  0.12509000000E+03 0.  0.
<mgrwt>
<rscale>  2 0.45488324E+03</rscale>
<asrwt>0</asrwt>
<pdfrwt beam="1">  1       21 0.25462447E+00 0.45488324E+03</pdfrwt>
<pdfrwt beam="2">  1       21 0.43936141E-02 0.45488324E+03</pdfrwt>
<totfact> 0.18030940E+04</totfact>
</mgrwt>
</event>
<event>
 7    0  0.4709932E-002  0.4533017E+03  0.7546771E-02  0.1026742E+00
         21   -1    0    0  502  501  0.00000000000E+00  0.00000000000E+00  0.21350125817E+03  0.21350125817E+03  0.00000000000E+00 0. -1.
         21   -1    0    0  501  502 -0.00000000000E+00 -0.00000000000E+00 -0.24061037737E+03  0.24061037737E+03  0.00000000000E+00 0. -1.
      99926    2    1    2    0    0  0.14210854715E-13 -0.17763568394E-14 -0.27109119197E+02  0.45411163554E+03  0.45330174629E+03 0.  0.
      99925    2    3    3    0    0 -0.10982876825E+03  0.90573653174E+01 -0.46562625210E-01  0.28522029689E+03  0.26307075358E+03 0.  0.
         25    1    4    4    0    0 -0.97696492604E+02  0.30398120804E+01 -0.95840672619E+01  0.15903838395E+03  0.12509000000E+03 0.  0.
         25    1    3    3    0    0  0.10982876825E+03 -0.90573653174E+01 -0.27062556571E+02  0.16889133865E+03  0.12509000000E+03 0.  0.
         25    1    4    4    0    0 -0.12132275645E+02  0.60175532370E+01  0.95375046367E+01  0.12618191294E+03  0.12509000000E+03 0.  0.
<mgrwt>
<rscale>  2 0.45330175E+03</rscale>
<asrwt>0</asrwt>
<pdfrwt beam="1">  1       21 0.31397244E-01 0.45330175E+03</pdfrwt>
<pdfrwt beam="2">  1       21 0.35383879E-01 0.45330175E+03</pdfrwt>
<totfact> 0.69548576E+04</totfact>
</mgrwt>
</event>
<event>
 7    0  0.4709932E-002  0.4586374E+03  0.7546771E-02  0.1025177E+00
         21   -1    0    0  502  501  0.00000000000E+00  0.00000000000E+00  0.17025718246E+03  0.17025718246E+03  0.00000000000E+00 0. -1.
         21   -1    0    0  501  502 -0.00000000000E+00 -0.00000000000E+00 -0.30886837374E+03  0.30886837374E+03  0.00000000000E+00 0. -1.
      99926    2    1    2    0    0  0.00000000000E+00  0.00000000000E+00 -0.13861119128E+03  0.47912555620E+03  0.45863736901E+03 0.  0.
      99925    2    3    3    0    0 -0.78703050923E+02 -0.23807738300E+02 -0.17321244300E+03  0.32548398191E+03  0.26301386550E+03 0.  0.
         25    1    4    4    0    0 -0.58880398288E+01  0.54738301664E+01 -0.10165956683E+03  0.16139023346E+03  0.12509000000E+03 0.  0.
         25    1    4    4    0    0 -0.72815011095E+02 -0.29281568467E+02 -0.71552876172E+02  0.16409374845E+03  0.12509000000E+03 0.  0.
         25    1    3    3    0    0  0.78703050923E+02  0.23807738300E+02  0.34601251714E+02  0.15364157428E+03  0.12509000000E+03 0.  0.
<mgrwt>
<rscale>  2 0.45863737E+03</rscale>
<asrwt>0</asrwt>
<pdfrwt beam="1">  1       21 0.25037821E-01 0.45863737E+03</pdfrwt>
<pdfrwt beam="2">  1       21 0.45421819E-01 0.45863737E+03</pdfrwt>
<totfact> 0.64870780E+04</totfact>
</mgrwt>
</event>
<event>
 7    0  0.4709932E-002  0.4625695E+03  0.7546771E-02  0.1024039E+00
         21   -1    0    0  502  501  0.00000000000E+00  0.00000000000E+00  0.23810313214E+02  0.23810313214E+02  0.00000000000E+00 0. -1.
         21   -1    0    0  501  502 -0.00000000000E+00 -0.00000000000E+00 -0.22466157247E+04  0.22466157247E+04  0.00000000000E+00 0. -1.
      99926    2    1    2    0    0  0.00000000000E+00  0.00000000000E+00 -0.22228054115E+04  0.22704260379E+04  0.46256945025E+03 0.  0.
      99925    2    3    3    0    0  0.88416719617E+02 -0.16545955593E+02 -0.17803712375E+04  0.18019318636E+04  0.26295515356E+03 0.  0.
         25    1    4    4    0    0  0.63218159382E+02  0.25893192396E+02 -0.98875186709E+03  0.99897184939E+03  0.12509000000E+03 0.  0.
         25    1    4    4    0    0  0.25198560235E+02 -0.42439147989E+02 -0.79161937042E+03  0.80296001423E+03  0.12509000000E+03 0.  0.
         25    1    3    3    0    0 -0.88416719617E+02  0.16545955593E+02 -0.44243417394E+03  0.46849417427E+03  0.12509000000E+03 0.  0.
<mgrwt>
<rscale>  2 0.46256945E+03</rscale>
<asrwt>0</asrwt>
<pdfrwt beam="1">  1       21 0.35015156E-02 0.46256945E+03</pdfrwt>
<pdfrwt beam="2">  1       21 0.33038476E+00 0.46256945E+03</pdfrwt>
<totfact> 0.92213530E+03</totfact>
</mgrwt>
</event>
<event>
 7    0  0.4709932E-002  0.4568809E+03  0.7546771E-02  0.1025690E+00
         21   -1    0    0  502  501  0.00000000000E+00  0.00000000000E+00  0.26872144688E+03  0.26872144688E+03  0.00000000000E+00 0. -1.
         21   -1    0    0  501  502 -0.00000000000E+00 -0.00000000000E+00 -0.19419754512E+03  0.19419754512E+03  0.00000000000E+00 0. -1.
      99926    2    1    2    0    0  0.14210854715E-13  0.00000000000E+00  0.74523901759E+02  0.46291899201E+03  0.45688092675E+03 0.  0.
      99925    2    3    3    0    0  0.66389337027E+02  0.92922841225E+02  0.60922044815E+02  0.29299336973E+03  0.26285246940E+03 0.  0.
         25    1    3    3    0    0 -0.66389337027E+02 -0.92922841225E+02  0.13601856944E+02  0.16992562227E+03  0.12509000000E+03 0.  0.
         25    1    4    4    0    0  0.44610448836E+02  0.74422254357E+02  0.62762773137E+02  0.16466765888E+03  0.12509000000E+03 0.  0.
         25    1    4    4    0    0  0.21778888191E+02  0.18500586868E+02 -0.18407283220E+01  0.12832571085E+03  0.12509000000E+03 0.  0.
<mgrwt>
<rscale>  2 0.45688093E+03</rscale>
<asrwt>0</asrwt>
<pdfrwt beam="1">  1       21 0.39517860E-01 0.45688093E+03</pdfrwt>
<pdfrwt beam="2">  1       21 0.28558462E-01 0.45688093E+03</pdfrwt>
<totfact> 0.66958048E+04</totfact>
</mgrwt>
</event>
<event>
 7    0  0.4709932E-002  0.4508485E+03  0.7546771E-02  0.1027469E+00
         21   -1    0    0  502  501  0.00000000000E+00  0.00000000000E+00  0.10008772670E+03  0.10008772670E+03  0.00000000000E+00 0. -1.
         21   -1    0    0  501  502 -0.00000000000E+00 -0.00000000000E+00 -0.50771555253E+03  0.50771555253E+03  0.00000000000E+00 0. -1.
      99926    2    1    2    0    0 -0.71054273576E-14 -0.14210854715E-13 -0.40762782583E+03  0.60780327924E+03  0.45084851320E+03 0.  0.
      99925    2    3    3    0    0 -0.31065750813E+02 -0.75199723402E+02 -0.35572919722E+03  0.44981259905E+03  0.26299816205E+03 0.  0.
         25    1    3    3    0    0  0.31065750813E+02  0.75199723402E+02 -0.51898628617E+02  0.15799068019E+03  0.12509000000E+03 0.  0.
         25    1    4    4    0    0 -0.15698989884E+01 -0.25983363785E+02 -0.11198080175E+03  0.16989646211E+03  0.12509000000E+03 0.  0.
         25    1    4    4    0    0 -0.29495851824E+02 -0.49216359617E+02 -0.24374839546E+03  0.27991613694E+03  0.12509000000E+03 0.  0.
<mgrwt>
<rscale>  2 0.45084851E+03</rscale>
<asrwt>0</asrwt>
<pdfrwt beam="1">  1       21 0.14718783E-01 0.45084851E+03</pdfrwt>
<pdfrwt beam="2">  1       21 0.74664052E-01 0.45084851E+03</pdfrwt>
<totfact> 0.60148878E+04</totfact>
</mgrwt>
</event>
<event>
 7    0  0.4709932E-002  0.4550491E+03  0.7546771E-02  0.1026227E+00
         21   -1    0    0  502  501  0.00000000000E+00  0.00000000000E+00  0.14856317737E+03  0.14856317737E+03  0.00000000000E+00 0.  1.
         21   -1    0    0  501  502 -0.00000000000E+00 -0.00000000000E+00 -0.34845387677E+03  0.34845387677E+03  0.00000000000E+00 0.  1.
      99926    2    1    2    0    0  0.00000000000E+00  0.00000000000E+00 -0.19989069941E+03  0.49701705414E+03  0.45504907471E+03 0.  0.
      99925    2    3    3    0    0  0.45430624871E+02 -0.88570523567E+02 -0.18454176305E+03  0.33641886838E+03  0.26308423247E+03 0.  0.
         25    1    4    4    0    0  0.30076982698E+02 -0.26366210306E+01 -0.88080210290E+02  0.15593975825E+03  0.12509000000E+03 0.  0.
         25    1    4    4    0    0  0.15353642173E+02 -0.85933902536E+02 -0.96461552764E+02  0.18047911013E+03  0.12509000000E+03 0.  0.
         25    1    3    3    0    0 -0.45430624871E+02  0.88570523567E+02 -0.15348936352E+02  0.16059818576E+03  0.12509000000E+03 0.  0.
<mgrwt>
<rscale>  2 0.45504907E+03</rscale>
<asrwt>0</asrwt>
<pdfrwt beam="1">  1       21 0.21847527E-01 0.45504907E+03</pdfrwt>
<pdfrwt beam="2">  1       21 0.51243216E-01 0.45504907E+03</pdfrwt>
<totfact> 0.65455228E+04</totfact>
</mgrwt>
</event>
<event>
 7    0  0.4709932E-002  0.4418601E+03  0.7546771E-02  0.1030178E+00
         21   -1    0    0  502  501  0.00000000000E+00  0.00000000000E+00  0.40880126492E+03  0.40880126492E+03  0.00000000000E+00 0.  1.
         21   -1    0    0  501  502 -0.00000000000E+00 -0.00000000000E+00 -0.11939809552E+03  0.11939809552E+03  0.00000000000E+00 0.  1.
      99926    2    1    2    0    0 -0.14210854715E-13  0.44408920985E-15  0.28940316939E+03  0.52819936044E+03  0.44186012483E+03 0.  0.
      99925    2    3    3    0    0  0.92061732319E+02 -0.31383775331E+01  0.23176813318E+03  0.36250531266E+03  0.26307493642E+03 0.  0.
         25    1    4    4    0    0  0.88907287698E+02 -0.57319072741E+01  0.12656777907E+03  0.19900821934E+03  0.12509000000E+03 0.  0.
         25    1    4    4    0    0  0.31544446212E+01  0.25935297410E+01  0.10520035411E+03  0.16349709332E+03  0.12509000000E+03 0.  0.
         25    1    3    3    0    0 -0.92061732319E+02  0.31383775331E+01  0.57635036212E+02  0.16569404778E+03  0.12509000000E+03 0.  0.
<mgrwt>
<rscale>  2 0.44186012E+03</rscale>
<asrwt>0</asrwt>
<pdfrwt beam="1">  1       21 0.60117833E-01 0.44186012E+03</pdfrwt>
<pdfrwt beam="2">  1       21 0.17558544E-01 0.44186012E+03</pdfrwt>
<totfact> 0.70369458E+04</totfact>
</mgrwt>
</event>
<event>
 7    0  0.4709932E-002  0.4568152E+03  0.7546771E-02  0.1025709E+00
         21   -1    0    0  502  501  0.00000000000E+00  0.00000000000E+00  0.44702373073E+03  0.44702373073E+03  0.00000000000E+00 0. -1.
         21   -1    0    0  501  502 -0.00000000000E+00 -0.00000000000E+00 -0.11670527238E+03  0.11670527238E+03  0.00000000000E+00 0. -1.
      99926    2    1    2    0    0  0.14210854715E-13  0.66613381478E-15  0.33031845835E+03  0.56372900311E+03  0.45681517599E+03 0.  0.
      99925    2    3    3    0    0  0.80191281534E+02  0.18297886298E+01  0.30964963994E+03  0.41370001286E+03  0.26235626801E+03 0.  0.
         25    1    4    4    0    0  0.67177587934E+02 -0.73843243701E+01  0.20687003774E+03  0.25101808138E+03  0.12509000000E+03 0.  0.
         25    1    3    3    0    0 -0.80191281534E+02 -0.18297886298E+01  0.20668818408E+02  0.15002899025E+03  0.12509000000E+03 0.  0.
         25    1    4    4    0    0  0.13013693600E+02  0.92141129999E+01  0.10277960220E+03  0.16268193147E+03  0.12509000000E+03 0.  0.
<mgrwt>
<rscale>  2 0.45681518E+03</rscale>
<asrwt>0</asrwt>
<pdfrwt beam="1">  1       21 0.65738783E-01 0.45681518E+03</pdfrwt>
<pdfrwt beam="2">  1       21 0.17162540E-01 0.45681518E+03</pdfrwt>
<totfact> 0.60100806E+04</totfact>
</mgrwt>
</event>
<event>
 7    0  0.4709932E-002  0.4540210E+03  0.7546771E-02  0.1026530E+00
         21   -1    0    0  502  501  0.00000000000E+00  0.00000000000E+00  0.40491383838E+03  0.40491383838E+03  0.00000000000E+00 0.  1.
         21   -1    0    0  501  502 -0.00000000000E+00 -0.00000000000E+00 -0.12727094301E+03  0.12727094301E+03  0.00000000000E+00 0.  1.
      99926    2    1    2    0    0  0.00000000000E+00  0.00000000000E+00  0.27764289537E+03  0.53218478138E+03  0.45402099531E+03 0.  0.
      99925    2    3    3    0    0  0.20041710072E+02 -0.68735845444E+02  0.27622699300E+03  0.38804665502E+03  0.26296875902E+03 0.  0.
         25    1    4    4    0    0  0.84971631632E+01 -0.73704984210E+02  0.12857838977E+03  0.19412505478E+03  0.12509000000E+03 0.  0.
         25    1    4    4    0    0  0.11544546909E+02  0.49691387651E+01  0.14764860323E+03  0.19392160024E+03  0.12509000000E+03 0.  0.
         25    1    3    3    0    0 -0.20041710072E+02  0.68735845444E+02  0.14159023718E+01  0.14413812636E+03  0.12509000000E+03 0.  0.
<mgrwt>
<rscale>  2 0.45402100E+03</rscale>
<asrwt>0</asrwt>
<pdfrwt beam="1">  1       21 0.59546153E-01 0.45402100E+03</pdfrwt>
<pdfrwt beam="2">  1       21 0.18716315E-01 0.45402100E+03</pdfrwt>
<totfact> 0.63550367E+04</totfact>
</mgrwt>
</event>
<event>
 7    0  0.4709932E-002  0.4542194E+03  0.7546771E-02  0.1026471E+00
         21   -1    0    0  502  501  0.00000000000E+00  0.00000000000E+00  0.10925322333E+03  0.10925322333E+03  0.00000000000E+00 0. -1.
         21   -1    0    0  501  502 -0.00000000000E+00 -0.00000000000E+00 -0.47210336532E+03  0.47210336532E+03  0.00000000000E+00 0. -1.
      99926    2    1    2    0    0 -0.35527136788E-14  0.00000000000E+00 -0.36285014199E+03  0.58135658865E+03  0.45421939372E+03 0.  0.
      99925    2    3    3    0    0 -0.24676176884E+02 -0.72330620930E+02 -0.12306197010E+03  0.30031120458E+03  0.26306261362E+03 0.  0.
         25    1    4    4    0    0 -0.28329628957E+02 -0.67889067966E+02 -0.41742956243E+02  0.15100157589E+03  0.12509000000E+03 0.  0.
         25    1    4    4    0    0  0.36534520722E+01 -0.44415529645E+01 -0.81319013862E+02  0.14930962869E+03  0.12509000000E+03 0.  0.
         25    1    3    3    0    0  0.24676176884E+02  0.72330620930E+02 -0.23978817188E+03  0.28104538407E+03  0.12509000000E+03 0.  0.
<mgrwt>
<rscale>  2 0.45421939E+03</rscale>
<asrwt>0</asrwt>
<pdfrwt beam="1">  1       21 0.16066651E-01 0.45421939E+03</pdfrwt>
<pdfrwt beam="2">  1       21 0.69426965E-01 0.45421939E+03</pdfrwt>
<totfact> 0.60211452E+04</totfact>
</mgrwt>
</event>
<event>
 7    0  0.4709932E-002  0.4485345E+03  0.7546771E-02  0.1028160E+00
         21   -1    0    0  502  501  0.00000000000E+00  0.00000000000E+00  0.79267985986E+03  0.79267985986E+03  0.00000000000E+00 0.  1.
         21   -1    0    0  501  502 -0.00000000000E+00 -0.00000000000E+00 -0.63450340895E+02  0.63450340895E+02  0.00000000000E+00 0.  1.
      99926    2    1    2    0    0  0.00000000000E+00  0.00000000000E+00  0.72922951896E+03  0.85613020075E+03  0.44853453525E+03 0.  0.
      99925    2    3    3    0    0  0.91515683462E+02 -0.55556921619E+02  0.46470208919E+03  0.54454720850E+03  0.26291051468E+03 0.  0.
         25    1    3    3    0    0 -0.91515683462E+02  0.55556921619E+02  0.26452742977E+03  0.31158299225E+03  0.12509000000E+03 0.  0.
         25    1    4    4    0    0  0.47254025720E+02 -0.68442277912E+02  0.25951917382E+03  0.29985829659E+03  0.12509000000E+03 0.  0.
         25    1    4    4    0    0  0.44261657741E+02  0.12885356293E+02  0.20518291537E+03  0.24468891191E+03  0.12509000000E+03 0.  0.
<mgrwt>
<rscale>  2 0.44853454E+03</rscale>
<asrwt>0</asrwt>
<pdfrwt beam="1">  1       21 0.11657056E+00 0.44853454E+03</pdfrwt>
<pdfrwt beam="2">  1       21 0.93309329E-02 0.44853454E+03</pdfrwt>
<totfact> 0.47531411E+04</totfact>
</mgrwt>
</event>
<event>
 7    0  0.4709932E-002  0.4618487E+03  0.7546771E-02  0.1024246E+00
         21   -1    0    0  502  501  0.00000000000E+00  0.00000000000E+00  0.21380585102E+03  0.21380585102E+03  0.00000000000E+00 0. -1.
         21   -1    0    0  501  502 -0.00000000000E+00 -0.00000000000E+00 -0.24941341665E+03  0.24941341665E+03  0.00000000000E+00 0. -1.
      99926    2    1    2    0    0  0.00000000000E+00  0.00000000000E+00 -0.35607565637E+02  0.46321926767E+03  0.46184866700E+03 0.  0.
      99925    2    3    3    0    0  0.79032084548E+02  0.32112529136E+02 -0.10640019056E+03  0.29607744538E+03  0.26279948286E+03 0.  0.
         25    1    4    4    0    0  0.67523275044E+02  0.35950790083E+02 -0.82186419218E+02  0.16808916558E+03  0.12509000000E+03 0.  0.
         25    1    3    3    0    0 -0.79032084548E+02 -0.32112529136E+02  0.70792624925E+02  0.16714182229E+03  0.12509000000E+03 0.  0.
         25    1    4    4    0    0  0.11508809504E+02 -0.38382609475E+01 -0.24213771345E+02  0.12798827980E+03  0.12509000000E+03 0.  0.
<mgrwt>
<rscale>  2 0.46184867E+03</rscale>
<asrwt>0</asrwt>
<pdfrwt beam="1">  1       21 0.31442037E-01 0.46184867E+03</pdfrwt>
<pdfrwt beam="2">  1       21 0.36678443E-01 0.46184867E+03</pdfrwt>
<totfact> 0.64358499E+04</totfact>
</mgrwt>
</event>
<event>
 7    0  0.4709932E-002  0.4564609E+03  0.7546771E-02  0.1025813E+00
         21   -1    0    0  502  501  0.00000000000E+00  0.00000000000E+00  0.15535464369E+03  0.15535464369E+03  0.00000000000E+00 0. -1.
         21   -1    0    0  501  502 -0.00000000000E+00 -0.00000000000E+00 -0.33529174535E+03  0.33529174535E+03  0.00000000000E+00 0. -1.
      99926    2    1    2    0    0  0.00000000000E+00 -0.14210854715E-13 -0.17993710166E+03  0.49064638904E+03  0.45646086198E+03 0.  0.
      99925    2    3    3    0    0  0.17270889444E+01 -0.80885478055E+02 -0.20023943629E+03  0.34029634319E+03  0.26298350888E+03 0.  0.
         25    1    4    4    0    0 -0.84058472819E+01 -0.41574992208E+02 -0.51542039436E+02  0.14178585323E+03  0.12509000000E+03 0.  0.
         25    1    3    3    0    0 -0.17270889444E+01  0.80885478055E+02  0.20302334628E+02  0.15035004585E+03  0.12509000000E+03 0.  0.
         25    1    4    4    0    0  0.10132936226E+02 -0.39310485847E+02 -0.14869739685E+03  0.19851048996E+03  0.12509000000E+03 0.  0.
<mgrwt>
<rscale>  2 0.45646086E+03</rscale>
<asrwt>0</asrwt>
<pdfrwt beam="1">  1       21 0.22846272E-01 0.45646086E+03</pdfrwt>
<pdfrwt beam="2">  1       21 0.49307609E-01 0.45646086E+03</pdfrwt>
<totfact> 0.65173779E+04</totfact>
</mgrwt>
</event>
<event>
 7    0  0.4709932E-002  0.4530170E+03  0.7546771E-02  0.1026826E+00
         21   -1    0    0  502  501  0.00000000000E+00  0.00000000000E+00  0.45513180948E+02  0.45513180948E+02  0.00000000000E+00 0. -1.
         21   -1    0    0  501  502 -0.00000000000E+00 -0.00000000000E+00 -0.11272801061E+04  0.11272801061E+04  0.00000000000E+00 0. -1.
      99926    2    1    2    0    0  0.00000000000E+00  0.00000000000E+00 -0.10817669251E+04  0.11727932870E+04  0.45301701269E+03 0.  0.
      99925    2    3    3    0    0  0.90747182878E+02 -0.48577138986E+02 -0.79146673132E+03  0.84035306644E+03  0.26301882036E+03 0.  0.
         25    1    4    4    0    0  0.52904919951E+02 -0.43960297289E+02 -0.30734212120E+03  0.33887774470E+03  0.12509000000E+03 0.  0.
         25    1    3    3    0    0 -0.90747182878E+02  0.48577138986E+02 -0.29030019380E+03  0.33244022057E+03  0.12509000000E+03 0.  0.
         25    1    4    4    0    0  0.37842262927E+02 -0.46168416972E+01 -0.48412461012E+03  0.50147532174E+03  0.12509000000E+03 0.  0.
<mgrwt>
<rscale>  2 0.45301701E+03</rscale>
<asrwt>0</asrwt>
<pdfrwt beam="1">  1       21 0.66931149E-02 0.45301701E+03</pdfrwt>
<pdfrwt beam="2">  1       21 0.16577648E+00 0.45301701E+03</pdfrwt>
<totfact> 0.33545732E+04</totfact>
</mgrwt>
</event>
<event>
 7    0  0.4709932E-002  0.4686517E+03  0.7546771E-02  0.1022301E+00
         21   -1    0    0  502  501  0.00000000000E+00  0.00000000000E+00  0.98449845655E+02  0.98449845655E+02  0.00000000000E+00 0.  1.
         21   -1    0    0  501  502 -0.00000000000E+00 -0.00000000000E+00 -0.55773183804E+03  0.55773183804E+03  0.00000000000E+00 0.  1.
      99926    2    1    2    0    0  0.00000000000E+00 -0.14210854715E-13 -0.45928199238E+03  0.65618168369E+03  0.46865174009E+03 0.  0.
      99925    2    3    3    0    0  0.38769060852E+02 -0.10767575075E+03 -0.21358593321E+03  0.35766674442E+03  0.26307687435E+03 0.  0.
         25    1    3    3    0    0 -0.38769060852E+02  0.10767575075E+03 -0.24569605917E+03  0.29851493927E+03  0.12509000000E+03 0.  0.
         25    1    4    4    0    0  0.54575038716E+02 -0.37351164243E+02 -0.90625608886E+02  0.16802991819E+03  0.12509000000E+03 0.  0.
         25    1    4    4    0    0 -0.15805977864E+02 -0.70324586504E+02 -0.12296032433E+03  0.18963682623E+03  0.12509000000E+03 0.  0.
<mgrwt>
<rscale>  2 0.46865174E+03</rscale>
<asrwt>0</asrwt>
<pdfrwt beam="1">  1       21 0.14477919E-01 0.46865174E+03</pdfrwt>
<pdfrwt beam="2">  1       21 0.82019388E-01 0.46865174E+03</pdfrwt>
<totfact> 0.49766939E+04</totfact>
</mgrwt>
</event>
<event>
 7    0  0.4709932E-002  0.4534057E+03  0.7546771E-02  0.1026711E+00
         21   -1    0    0  502  501  0.00000000000E+00  0.00000000000E+00  0.62351477465E+02  0.62351477465E+02  0.00000000000E+00 0.  1.
         21   -1    0    0  501  502 -0.00000000000E+00 -0.00000000000E+00 -0.82426578359E+03  0.82426578359E+03  0.00000000000E+00 0.  1.
      99926    2    1    2    0    0  0.14210854715E-13  0.00000000000E+00 -0.76191430612E+03  0.88661726105E+03  0.45340573190E+03 0.  0.
      99925    2    3    3    0    0 -0.78616106461E+02 -0.78180369373E+02 -0.45572376713E+03  0.53777228601E+03  0.26310115415E+03 0.  0.
         25    1    3    3    0    0  0.78616106461E+02  0.78180369373E+02 -0.30619053899E+03  0.34884497505E+03  0.12509000000E+03 0.  0.
         25    1    4    4    0    0  0.26044103374E+00 -0.47817432113E+02 -0.19655972976E+03  0.23784408781E+03  0.12509000000E+03 0.  0.
         25    1    4    4    0    0 -0.78876547495E+02 -0.30362937261E+02 -0.25916403737E+03  0.29992819819E+03  0.12509000000E+03 0.  0.
<mgrwt>
<rscale>  2 0.45340573E+03</rscale>
<asrwt>0</asrwt>
<pdfrwt beam="1">  1       21 0.91693346E-02 0.45340573E+03</pdfrwt>
<pdfrwt beam="2">  1       21 0.12121556E+00 0.45340573E+03</pdfrwt>
<totfact> 0.44368725E+04</totfact>
</mgrwt>
</event>
<event>
 6    0  0.4709932E-002  0.4456365E+03  0.7546771E-02  0.1029031E+00
         21   -1    0    0  502  501  0.00000000000E+00  0.00000000000E+00  0.98500110884E+03  0.98500110884E+03  0.00000000000E+00 0. -1.
         21   -1    0    0  501  502 -0.00000000000E+00 -0.00000000000E+00 -0.50403966387E+02  0.50403966387E+02  0.00000000000E+00 0. -1.
      99926    2    1    2    0    0  0.00000000000E+00  0.00000000000E+00  0.93459714245E+03  0.10354050752E+04  0.44563645623E+03 0.  0.
         25    1    3    3    0    0  0.67883497315E+02  0.52847298565E+02  0.21226425842E+03  0.26096863734E+03  0.12509000000E+03 0.  0.
         25    1    3    3    0    0 -0.61209099330E+01 -0.14661259436E+02  0.24316401743E+03  0.27391360963E+03  0.12509000000E+03 0.  0.
         25    1    3    3    0    0 -0.61762587382E+02 -0.38186039128E+02  0.47916886660E+03  0.50052282826E+03  0.12509000000E+03 0.  0.
<mgrwt>
<rscale>  2 0.44563646E+03</rscale>
<asrwt>0</asrwt>
<pdfrwt beam="1">  1       21 0.14485309E+00 0.44563646E+03</pdfrwt>
<pdfrwt beam="2">  1       21 0.74123486E-02 0.44563646E+03</pdfrwt>
<totfact> 0.40713050E+04</totfact>
</mgrwt>
</event>
<event>
 7    0  0.4709932E-002  0.4547971E+03  0.7546771E-02  0.1026301E+00
         21   -1    0    0  502  501  0.00000000000E+00  0.00000000000E+00  0.10053532793E+04  0.10053532793E+04  0.00000000000E+00 0. -1.
         21   -1    0    0  501  502 -0.00000000000E+00 -0.00000000000E+00 -0.51434746424E+02  0.51434746424E+02  0.00000000000E+00 0. -1.
      99926    2    1    2    0    0  0.00000000000E+00  0.00000000000E+00  0.95391853292E+03  0.10567880258E+04  0.45479705799E+03 0.  0.
      99925    2    3    3    0    0  0.53413231745E+02 -0.34499781885E+02  0.38424893137E+03  0.47009034271E+03  0.26323844851E+03 0.  0.
         25    1    3    3    0    0 -0.53413231745E+02  0.34499781885E+02  0.56966960154E+03  0.58669768305E+03  0.12509000000E+03 0.  0.
         25    1    4    4    0    0  0.23047773541E+02 -0.15521182586E+02  0.12004994609E+03  0.17558930671E+03  0.12509000000E+03 0.  0.
         25    1    4    4    0    0  0.30365458204E+02 -0.18978599298E+02  0.26419898528E+03  0.29450103600E+03  0.12509000000E+03 0.  0.
<mgrwt>
<rscale>  2 0.45479706E+03</rscale>
<asrwt>0</asrwt>
<pdfrwt beam="1">  1       21 0.14784606E+00 0.45479706E+03</pdfrwt>
<pdfrwt beam="2">  1       21 0.75639339E-02 0.45479706E+03</pdfrwt>
<totfact> 0.37088007E+04</totfact>
</mgrwt>
</event>
<event>
 7    0  0.4709932E-002  0.4712764E+03  0.7546771E-02  0.1021561E+00
         21   -1    0    0  502  501  0.00000000000E+00  0.00000000000E+00  0.28944825707E+02  0.28944825707E+02  0.00000000000E+00 0. -1.
         21   -1    0    0  501  502 -0.00000000000E+00 -0.00000000000E+00 -0.19183171301E+04  0.19183171301E+04  0.00000000000E+00 0. -1.
      99926    2    1    2    0    0 -0.71054273576E-14  0.00000000000E+00 -0.18893723044E+04  0.19472619558E+04  0.47127637319E+03 0.  0.
      99925    2    3    3    0    0  0.40503259889E+02  0.15158456769E+02 -0.67461935984E+03  0.72531984700E+03  0.26288268659E+03 0.  0.
         25    1    4    4    0    0  0.19742039025E+02 -0.32742961307E+02 -0.32322548938E+03  0.34868908028E+03  0.12509000000E+03 0.  0.
         25    1    4    4    0    0  0.20761220864E+02  0.47901418077E+02 -0.35139387046E+03  0.37663076672E+03  0.12509000000E+03 0.  0.
         25    1    3    3    0    0 -0.40503259889E+02 -0.15158456769E+02 -0.12147529445E+04  0.12219421088E+04  0.12509000000E+03 0.  0.
<mgrwt>
<rscale>  2 0.47127637E+03</rscale>
<asrwt>0</asrwt>
<pdfrwt beam="1">  1       21 0.42565931E-02 0.47127637E+03</pdfrwt>
<pdfrwt beam="2">  1       21 0.28210539E+00 0.47127637E+03</pdfrwt>
<totfact> 0.12884137E+04</totfact>
</mgrwt>
</event>
<event>
 7    0  0.4709932E-002  0.4525066E+03  0.7546771E-02  0.1026977E+00
         21   -1    0    0  502  501  0.00000000000E+00  0.00000000000E+00  0.23271995090E+03  0.23271995090E+03  0.00000000000E+00 0. -1.
         21   -1    0    0  501  502 -0.00000000000E+00 -0.00000000000E+00 -0.21996632251E+03  0.21996632251E+03  0.00000000000E+00 0. -1.
      99926    2    1    2    0    0  0.00000000000E+00  0.14210854715E-13  0.12753628394E+02  0.45268627341E+03  0.45250658238E+03 0.  0.
      99925    2    3    3    0    0  0.27723496612E+01  0.87520537471E+02 -0.59871188844E+02  0.28360226299E+03  0.26301740231E+03 0.  0.
         25    1    3    3    0    0 -0.27723496612E+01 -0.87520537471E+02  0.72624817238E+02  0.16908401042E+03  0.12509000000E+03 0.  0.
         25    1    4    4    0    0  0.10388912505E+01  0.82678844461E+02 -0.49803587429E+02  0.15800245580E+03  0.12509000000E+03 0.  0.
         25    1    4    4    0    0  0.17334584107E+01  0.48416930093E+01 -0.10067601414E+02  0.12559980720E+03  0.12509000000E+03 0.  0.
<mgrwt>
<rscale>  2 0.45250658E+03</rscale>
<asrwt>0</asrwt>
<pdfrwt beam="1">  1       21 0.34223522E-01 0.45250658E+03</pdfrwt>
<pdfrwt beam="2">  1       21 0.32347989E-01 0.45250658E+03</pdfrwt>
<totfact> 0.70099914E+04</totfact>
</mgrwt>
</event>
<event>
 7    0  0.4709932E-002  0.4499217E+03  0.7546771E-02  0.1027745E+00
         21   -1    0    0  502  501  0.00000000000E+00  0.00000000000E+00  0.60249849886E+02  0.60249849886E+02  0.00000000000E+00 0.  1.
         21   -1    0    0  501  502 -0.00000000000E+00 -0.00000000000E+00 -0.83995849154E+03  0.83995849154E+03  0.00000000000E+00 0.  1.
      99926    2    1    2    0    0  0.00000000000E+00  0.00000000000E+00 -0.77970864166E+03  0.90020834143E+03  0.44992165107E+03 0.  0.
      99925    2    3    3    0    0 -0.95080111495E+02  0.48862378878E+02 -0.45659197556E+03  0.53760711738E+03  0.26290192248E+03 0.  0.
         25    1    4    4    0    0 -0.50184927597E+02  0.32237319562E+02 -0.30691486619E+03  0.33675215651E+03  0.12509000000E+03 0.  0.
         25    1    3    3    0    0  0.95080111495E+02 -0.48862378878E+02 -0.32311666610E+03  0.36260122405E+03  0.12509000000E+03 0.  0.
         25    1    4    4    0    0 -0.44895183898E+02  0.16625059316E+02 -0.14967710937E+03  0.20085496086E+03  0.12509000000E+03 0.  0.
<mgrwt>
<rscale>  2 0.44992165E+03</rscale>
<asrwt>0</asrwt>
<pdfrwt beam="1">  1       21 0.88602718E-02 0.44992165E+03</pdfrwt>
<pdfrwt beam="2">  1       21 0.12352331E+00 0.44992165E+03</pdfrwt>
<totfact> 0.44986659E+04</totfact>
</mgrwt>
</event>
<event>
 7    0  0.4709932E-002  0.4507435E+03  0.7546771E-02  0.1027501E+00
         21   -1    0    0  502  501  0.00000000000E+00  0.00000000000E+00  0.10167658215E+04  0.10167658215E+04  0.00000000000E+00 0.  1.
         21   -1    0    0  501  502 -0.00000000000E+00 -0.00000000000E+00 -0.49954894522E+02  0.49954894522E+02  0.00000000000E+00 0.  1.
      99926    2    1    2    0    0  0.00000000000E+00  0.00000000000E+00  0.96681092702E+03  0.10667207161E+04  0.45074351629E+03 0.  0.
      99925    2    3    3    0    0  0.21195255511E+02  0.22712042249E+02  0.85834941858E+03  0.89826751000E+03  0.26297475056E+03 0.  0.
         25    1    3    3    0    0 -0.21195255511E+02 -0.22712042249E+02  0.10846150845E+03  0.16845320606E+03  0.12509000000E+03 0.  0.
         25    1    4    4    0    0 -0.91278265464E+01 -0.96098591519E+00  0.53352548769E+03  0.54807042871E+03  0.12509000000E+03 0.  0.
         25    1    4    4    0    0  0.30323082057E+02  0.23673028164E+02  0.32482393089E+03  0.35019708129E+03  0.12509000000E+03 0.  0.
<mgrwt>
<rscale>  2 0.45074352E+03</rscale>
<asrwt>0</asrwt>
<pdfrwt beam="1">  1       21 0.14952437E+00 0.45074352E+03</pdfrwt>
<pdfrwt beam="2">  1       21 0.73463087E-02 0.45074352E+03</pdfrwt>
<totfact> 0.37913584E+04</totfact>
</mgrwt>
</event>
<event>
 7    0  0.4709932E-002  0.4545079E+03  0.7546771E-02  0.1026386E+00
         21   -1    0    0  502  501  0.00000000000E+00  0.00000000000E+00  0.94117240724E+02  0.94117240724E+02  0.00000000000E+00 0.  1.
         21   -1    0    0  501  502 -0.00000000000E+00 -0.00000000000E+00 -0.54872378734E+03  0.54872378734E+03  0.00000000000E+00 0.  1.
      99926    2    1    2    0    0  0.00000000000E+00 -0.14210854715E-13 -0.45460654662E+03  0.64284102807E+03  0.45450794838E+03 0.  0.
      99925    2    3    3    0    0  0.83474851954E+02  0.73402180730E+02 -0.26286932744E+03  0.38834819837E+03  0.26335927709E+03 0.  0.
         25    1    4    4    0    0  0.66747780419E+02  0.45872233079E+02 -0.95759604587E+02  0.17713536612E+03  0.12509000000E+03 0.  0.
         25    1    4    4    0    0  0.16727071536E+02  0.27529947651E+02 -0.16710972285E+03  0.21121283226E+03  0.12509000000E+03 0.  0.
         25    1    3    3    0    0 -0.83474851954E+02 -0.73402180730E+02 -0.19173721919E+03  0.25449282969E+03  0.12509000000E+03 0.  0.
<mgrwt>
<rscale>  2 0.45450795E+03</rscale>
<asrwt>0</asrwt>
<pdfrwt beam="1">  1       21 0.13840770E-01 0.45450795E+03</pdfrwt>
<pdfrwt beam="2">  1       21 0.80694677E-01 0.45450795E+03</pdfrwt>
<totfact> 0.56334219E+04</totfact>
</mgrwt>
</event>
<event>
 7    0  0.4709932E-002  0.4464644E+03  0.7546771E-02  0.1028782E+00
         21   -1    0    0  502  501  0.00000000000E+00  0.00000000000E+00  0.40935651260E+03  0.40935651260E+03  0.00000000000E+00 0.  1.
         21   -1    0    0  501  502 -0.00000000000E+00 -0.00000000000E+00 -0.12173399669E+03  0.12173399669E+03  0.00000000000E+00 0.  1.
      99926    2    1    2    0    0  0.00000000000E+00  0.00000000000E+00  0.28762251591E+03  0.53109050928E+03  0.44646435176E+03 0.  0.
      99925    2    3    3    0    0  0.92981114369E+02 -0.48647759767E+02  0.18384912284E+03  0.33762599737E+03  0.26301848219E+03 0.  0.
         25    1    4    4    0    0  0.85513601039E+02 -0.39507128409E+02  0.88255977795E+02  0.17974986752E+03  0.12509000000E+03 0.  0.
         25    1    4    4    0    0  0.74675133298E+01 -0.91406313578E+01  0.95593145045E+02  0.15787612985E+03  0.12509000000E+03 0.  0.
         25    1    3    3    0    0 -0.92981114369E+02  0.48647759767E+02  0.10377339307E+03  0.19346451191E+03  0.12509000000E+03 0.  0.
<mgrwt>
<rscale>  2 0.44646435E+03</rscale>
<asrwt>0</asrwt>
<pdfrwt beam="1">  1       21 0.60199487E-01 0.44646435E+03</pdfrwt>
<pdfrwt beam="2">  1       21 0.17902058E-01 0.44646435E+03</pdfrwt>
<totfact> 0.67585588E+04</totfact>
</mgrwt>
</event>
<event>
 7    0  0.4709932E-002  0.4437350E+03  0.7546771E-02  0.1029607E+00
         21   -1    0    0  502  501  0.00000000000E+00  0.00000000000E+00  0.64105404709E+03  0.64105404709E+03  0.00000000000E+00 0.  1.
         21   -1    0    0  501  502 -0.00000000000E+00 -0.00000000000E+00 -0.76787880518E+02  0.76787880518E+02  0.00000000000E+00 0.  1.
      99926    2    1    2    0    0  0.00000000000E+00  0.00000000000E+00  0.56426616658E+03  0.71784192761E+03  0.44373497304E+03 0.  0.
      99925    2    3    3    0    0  0.15223467490E+02  0.18746824704E+02  0.19779934315E+03  0.32986172429E+03  0.26287065185E+03 0.  0.
         25    1    3    3    0    0 -0.15223467490E+02 -0.18746824704E+02  0.36646682342E+03  0.38798020332E+03  0.12509000000E+03 0.  0.
         25    1    4    4    0    0  0.21371540574E+02  0.43112633519E+02  0.79279847315E+02  0.15571847741E+03  0.12509000000E+03 0.  0.
         25    1    4    4    0    0 -0.61480730836E+01 -0.24365808815E+02  0.11851949584E+03  0.17414324688E+03  0.12509000000E+03 0.  0.
<mgrwt>
<rscale>  2 0.44373497E+03</rscale>
<asrwt>0</asrwt>
<pdfrwt beam="1">  1       21 0.94272651E-01 0.44373497E+03</pdfrwt>
<pdfrwt beam="2">  1       21 0.11292336E-01 0.44373497E+03</pdfrwt>
<totfact> 0.56814386E+04</totfact>
</mgrwt>
</event>
<event>
 7    0  0.4709932E-002  0.4573514E+03  0.7546771E-02  0.1025552E+00
         21   -1    0    0  502  501  0.00000000000E+00  0.00000000000E+00  0.16839275390E+04  0.16839275390E+04  0.00000000000E+00 0. -1.
         21   -1    0    0  501  502 -0.00000000000E+00 -0.00000000000E+00 -0.31053939864E+02  0.31053939864E+02  0.00000000000E+00 0. -1.
      99926    2    1    2    0    0 -0.71054273576E-14  0.35527136788E-14  0.16528735991E+04  0.17149814788E+04  0.45735143831E+03 0.  0.
      99925    2    3    3    0    0  0.57658819219E+02 -0.11287721808E+02  0.66563693473E+03  0.71811855361E+03  0.26300147541E+03 0.  0.
         25    1    4    4    0    0  0.12968807555E+02 -0.40580757250E+02  0.29264670440E+03  0.32109903382E+03  0.12509000000E+03 0.  0.
         25    1    3    3    0    0 -0.57658819219E+02  0.11287721808E+02  0.98723666439E+03  0.99686292524E+03  0.12509000000E+03 0.  0.
         25    1    4    4    0    0  0.44690011664E+02  0.29293035442E+02  0.37299023033E+03  0.39701951978E+03  0.12509000000E+03 0.  0.
<mgrwt>
<rscale>  2 0.45735144E+03</rscale>
<asrwt>0</asrwt>
<pdfrwt beam="1">  1       21 0.24763634E+00 0.45735144E+03</pdfrwt>
<pdfrwt beam="2">  1       21 0.45667570E-02 0.45735144E+03</pdfrwt>
<totfact> 0.18609655E+04</totfact>
</mgrwt>
</event>
<event>
 7    0  0.4709932E-002  0.4547511E+03  0.7546771E-02  0.1026315E+00
         21   -1    0    0  502  501  0.00000000000E+00  0.00000000000E+00  0.72753997128E+02  0.72753997128E+02  0.00000000000E+00 0.  1.
         21   -1    0    0  501  502 -0.00000000000E+00 -0.00000000000E+00 -0.71060883289E+03  0.71060883289E+03  0.00000000000E+00 0.  1.
      99926    2    1    2    0    0  0.00000000000E+00  0.00000000000E+00 -0.63785483576E+03  0.78336283002E+03  0.45475106591E+03 0.  0.
      99925    2    3    3    0    0  0.34538092609E+02 -0.60007501531E+02 -0.55533215146E+03  0.61828320800E+03  0.26284319807E+03 0.  0.
         25    1    4    4    0    0  0.21452832242E+02  0.74975768460E+01 -0.22513758723E+03  0.25855536923E+03  0.12509000000E+03 0.  0.
         25    1    3    3    0    0 -0.34538092609E+02  0.60007501531E+02 -0.82522684301E+02  0.16507962202E+03  0.12509000000E+03 0.  0.
         25    1    4    4    0    0  0.13085260367E+02 -0.67505078378E+02 -0.33019456423E+03  0.35972783878E+03  0.12509000000E+03 0.  0.
<mgrwt>
<rscale>  2 0.45475107E+03</rscale>
<asrwt>0</asrwt>
<pdfrwt beam="1">  1       21 0.10699117E-01 0.45475107E+03</pdfrwt>
<pdfrwt beam="2">  1       21 0.10450130E+00 0.45475107E+03</pdfrwt>
<totfact> 0.48675128E+04</totfact>
</mgrwt>
</event>
<event>
 7    0  0.4709932E-002  0.4464825E+03  0.7546771E-02  0.1028776E+00
         21   -1    0    0  502  501  0.00000000000E+00  0.00000000000E+00  0.39621451653E+03  0.39621451653E+03  0.00000000000E+00 0. -1.
         21   -1    0    0  501  502 -0.00000000000E+00 -0.00000000000E+00 -0.12578197838E+03  0.12578197838E+03  0.00000000000E+00 0. -1.
      99926    2    1    2    0    0 -0.14210854715E-13  0.71054273576E-14  0.27043253815E+03  0.52199649491E+03  0.44648245543E+03 0.  0.
      99925    2    3    3    0    0  0.90546210088E+02 -0.35171364912E+02  0.12349302253E+03  0.30595397497E+03  0.26252936429E+03 0.  0.
         25    1    4    4    0    0  0.33586605226E+02 -0.46570087463E+02  0.34773503554E+02  0.14196315630E+03  0.12509000000E+03 0.  0.
         25    1    4    4    0    0  0.56959604862E+02  0.11398722551E+02  0.88719518978E+02  0.16399081867E+03  0.12509000000E+03 0.  0.
         25    1    3    3    0    0 -0.90546210088E+02  0.35171364912E+02  0.14693951562E+03  0.21604251994E+03  0.12509000000E+03 0.  0.
<mgrwt>
<rscale>  2 0.44648246E+03</rscale>
<asrwt>0</asrwt>
<pdfrwt beam="1">  1       21 0.58266840E-01 0.44648246E+03</pdfrwt>
<pdfrwt beam="2">  1       21 0.18497350E-01 0.44648246E+03</pdfrwt>
<totfact> 0.68242769E+04</totfact>
</mgrwt>
</event>
<event>
 7    0  0.4709932E-002  0.4565280E+03  0.7546771E-02  0.1025793E+00
         21   -1    0    0  502  501  0.00000000000E+00  0.00000000000E+00  0.57798478878E+02  0.57798478878E+02  0.00000000000E+00 0. -1.
         21   -1    0    0  501  502 -0.00000000000E+00 -0.00000000000E+00 -0.90148468746E+03  0.90148468746E+03  0.00000000000E+00 0. -1.
      99926    2    1    2    0    0  0.00000000000E+00  0.00000000000E+00 -0.84368620859E+03  0.95928316634E+03  0.45652795606E+03 0.  0.
      99925    2    3    3    0    0  0.10746914426E+03  0.32378366007E+02 -0.48115217327E+03  0.55968785804E+03  0.26295457600E+03 0.  0.
         25    1    4    4    0    0  0.32586136055E+02  0.19315686024E+02 -0.29671160197E+03  0.32422250822E+03  0.12509000000E+03 0.  0.
         25    1    3    3    0    0 -0.10746914426E+03 -0.32378366007E+02 -0.36253403532E+03  0.39959530830E+03  0.12509000000E+03 0.  0.
         25    1    4    4    0    0  0.74883008207E+02  0.13062679983E+02 -0.18444057129E+03  0.23546534982E+03  0.12509000000E+03 0.  0.
<mgrwt>
<rscale>  2 0.45652796E+03</rscale>
<asrwt>0</asrwt>
<pdfrwt beam="1">  1       21 0.84997761E-02 0.45652796E+03</pdfrwt>
<pdfrwt beam="2">  1       21 0.13257128E+00 0.45652796E+03</pdfrwt>
<totfact> 0.40283767E+04</totfact>
</mgrwt>
</event>
<event>
 7    0  0.4709932E-002  0.4551059E+03  0.7546771E-02  0.1026210E+00
         21   -1    0    0  502  501  0.00000000000E+00  0.00000000000E+00  0.39923462385E+02  0.39923462385E+02  0.00000000000E+00 0.  1.
         21   -1    0    0  501  502 -0.00000000000E+00 -0.00000000000E+00 -0.12969903168E+04  0.12969903168E+04  0.00000000000E+00 0.  1.
      99926    2    1    2    0    0 -0.35527136788E-14  0.14210854715E-13 -0.12570668544E+04  0.13369137792E+04  0.45510589593E+03 0.  0.
      99925    2    3    3    0    0 -0.11061971353E+02 -0.11205195954E+03 -0.84675437567E+03  0.89342550746E+03  0.26179792934E+03 0.  0.
         25    1    4    4    0    0  0.21524656156E+02 -0.72240443642E+02 -0.36767801143E+03  0.39562181526E+03  0.12509000000E+03 0.  0.
         25    1    4    4    0    0 -0.32586627509E+02 -0.39811515900E+02 -0.47907636424E+03  0.49780369220E+03  0.12509000000E+03 0.  0.
         25    1    3    3    0    0  0.11061971353E+02  0.11205195954E+03 -0.41031247874E+03  0.44348827173E+03  0.12509000000E+03 0.  0.
<mgrwt>
<rscale>  2 0.45510590E+03</rscale>
<asrwt>0</asrwt>
<pdfrwt beam="1">  1       21 0.58710970E-02 0.45510590E+03</pdfrwt>
<pdfrwt beam="2">  1       21 0.19073388E+00 0.45510590E+03</pdfrwt>
<totfact> 0.28038164E+04</totfact>
</mgrwt>
</event>
<event>
 7    0  0.4709932E-002  0.4532245E+03  0.7546771E-02  0.1026765E+00
         21   -1    0    0  502  501  0.00000000000E+00  0.00000000000E+00  0.27486869934E+02  0.27486869934E+02  0.00000000000E+00 0. -1.
         21   -1    0    0  501  502 -0.00000000000E+00 -0.00000000000E+00 -0.18682776086E+04  0.18682776086E+04  0.00000000000E+00 0. -1.
      99926    2    1    2    0    0 -0.17763568394E-14  0.00000000000E+00 -0.18407907387E+04  0.18957644785E+04  0.45322446372E+03 0.  0.
      99925    2    3    3    0    0  0.26607678690E+01 -0.59620920148E+02 -0.76602271800E+03  0.81209684491E+03  0.26296149381E+03 0.  0.
         25    1    3    3    0    0 -0.26607678690E+01  0.59620920148E+02 -0.10747680207E+04  0.10836676336E+04  0.12509000000E+03 0.  0.
         25    1    4    4    0    0 -0.28763095479E+02 -0.32086066286E+02 -0.30228585189E+03  0.32997132552E+03  0.12509000000E+03 0.  0.
         25    1    4    4    0    0  0.31423863348E+02 -0.27534853862E+02 -0.46373686611E+03  0.48212551940E+03  0.12509000000E+03 0.  0.
<mgrwt>
<rscale>  2 0.45322446E+03</rscale>
<asrwt>0</asrwt>
<pdfrwt beam="1">  1       21 0.40421866E-02 0.45322446E+03</pdfrwt>
<pdfrwt beam="2">  1       21 0.27474672E+00 0.45322446E+03</pdfrwt>
<totfact> 0.15702373E+04</totfact>
</mgrwt>
</event>
<event>
 7    0  0.4709932E-002  0.4475338E+03  0.7546771E-02  0.1028460E+00
         21   -1    0    0  502  501  0.00000000000E+00  0.00000000000E+00  0.53266550258E+02  0.53266550258E+02  0.00000000000E+00 0.  1.
         21   -1    0    0  501  502 -0.00000000000E+00 -0.00000000000E+00 -0.94002019690E+03  0.94002019690E+03  0.00000000000E+00 0.  1.
      99926    2    1    2    0    0 -0.17763568394E-14  0.28421709430E-13 -0.88675364664E+03  0.99328674716E+03  0.44753383363E+03 0.  0.
      99925    2    3    3    0    0  0.52114847799E+01 -0.10569431604E+03 -0.57086634950E+03  0.63743461409E+03  0.26312744103E+03 0.  0.
         25    1    3    3    0    0 -0.52114847799E+01  0.10569431604E+03 -0.31588729714E+03  0.35585213307E+03  0.12509000000E+03 0.  0.
         25    1    4    4    0    0  0.24585222486E+02 -0.16478819050E+02 -0.24693119955E+03  0.27838554210E+03  0.12509000000E+03 0.  0.
         25    1    4    4    0    0 -0.19373737706E+02 -0.89215496991E+02 -0.32393514996E+03  0.35904907198E+03  0.12509000000E+03 0.  0.
<mgrwt>
<rscale>  2 0.44753383E+03</rscale>
<asrwt>0</asrwt>
<pdfrwt beam="1">  1       21 0.78333163E-02 0.44753383E+03</pdfrwt>
<pdfrwt beam="2">  1       21 0.13823826E+00 0.44753383E+03</pdfrwt>
<totfact> 0.41814577E+04</totfact>
</mgrwt>
</event>
<event>
 7    0  0.4709932E-002  0.4508569E+03  0.7546771E-02  0.1027467E+00
         21   -1    0    0  502  501  0.00000000000E+00  0.00000000000E+00  0.15768046180E+04  0.15768046180E+04  0.00000000000E+00 0.  1.
         21   -1    0    0  501  502 -0.00000000000E+00 -0.00000000000E+00 -0.32228460951E+02  0.32228460951E+02  0.00000000000E+00 0.  1.
      99926    2    1    2    0    0  0.00000000000E+00  0.00000000000E+00  0.15445761570E+04  0.16090330789E+04  0.45085689995E+03 0.  0.
      99925    2    3    3    0    0 -0.73241312519E+02  0.42136386957E+02  0.72891906368E+03  0.77952493130E+03  0.26305199514E+03 0.  0.
         25    1    4    4    0    0 -0.38035301803E+02  0.56786878810E+02  0.43678577324E+03  0.45945702040E+03  0.12509000000E+03 0.  0.
         25    1    3    3    0    0  0.73241312519E+02 -0.42136386957E+02  0.81565709334E+03  0.82950814763E+03  0.12509000000E+03 0.  0.
         25    1    4    4    0    0 -0.35206010716E+02 -0.14650491853E+02  0.29213329044E+03  0.32006791089E+03  0.12509000000E+03 0.  0.
<mgrwt>
<rscale>  2 0.45085690E+03</rscale>
<asrwt>0</asrwt>
<pdfrwt beam="1">  1       21 0.23188298E+00 0.45085690E+03</pdfrwt>
<pdfrwt beam="2">  1       21 0.47394806E-02 0.45085690E+03</pdfrwt>
<totfact> 0.21923287E+04</totfact>
</mgrwt>
</event>
<event>
 7    0  0.4709932E-002  0.4584810E+03  0.7546771E-02  0.1025223E+00
         21   -1    0    0  502  501  0.00000000000E+00  0.00000000000E+00  0.15176536910E+03  0.15176536910E+03  0.00000000000E+00 0. -1.
         21   -1    0    0  501  502 -0.00000000000E+00 -0.00000000000E+00 -0.34626606429E+03  0.34626606429E+03  0.00000000000E+00 0. -1.
      99926    2    1    2    0    0  0.00000000000E+00  0.00000000000E+00 -0.19450069519E+03  0.49803143340E+03  0.45848095732E+03 0.  0.
      99925    2    3    3    0    0  0.64661728048E+02 -0.49123988547E+02 -0.21251228945E+03  0.34781082578E+03  0.26309046360E+03 0.  0.
         25    1    4    4    0    0 -0.43861851731E+01 -0.33848281473E+02 -0.12166663174E+03  0.17780669886E+03  0.12509000000E+03 0.  0.
         25    1    4    4    0    0  0.69047913221E+02 -0.15275707074E+02 -0.90845657706E+02  0.17000412692E+03  0.12509000000E+03 0.  0.
         25    1    3    3    0    0 -0.64661728048E+02  0.49123988547E+02  0.18011594259E+02  0.15022060762E+03  0.12509000000E+03 0.  0.
<mgrwt>
<rscale>  2 0.45848096E+03</rscale>
<asrwt>0</asrwt>
<pdfrwt beam="1">  1       21 0.22318437E-01 0.45848096E+03</pdfrwt>
<pdfrwt beam="2">  1       21 0.50921480E-01 0.45848096E+03</pdfrwt>
<totfact> 0.63632532E+04</totfact>
</mgrwt>
</event>
<event>
 7    0  0.4709932E-002  0.4572495E+03  0.7546771E-02  0.1025582E+00
         21   -1    0    0  502  501  0.00000000000E+00  0.00000000000E+00  0.17695120083E+03  0.17695120083E+03  0.00000000000E+00 0. -1.
         21   -1    0    0  501  502 -0.00000000000E+00 -0.00000000000E+00 -0.29538807054E+03  0.29538807054E+03  0.00000000000E+00 0. -1.
      99926    2    1    2    0    0  0.00000000000E+00  0.71054273576E-14 -0.11843686971E+03  0.47233927136E+03  0.45724948897E+03 0.  0.
      99925    2    3    3    0    0  0.53194138609E+02 -0.36520030242E+02 -0.17285657279E+03  0.32143419797E+03  0.26320566081E+03 0.  0.
         25    1    4    4    0    0  0.47539021483E+02 -0.27148406842E+02 -0.13059998318E+03  0.18894670747E+03  0.12509000000E+03 0.  0.
         25    1    3    3    0    0 -0.53194138609E+02  0.36520030242E+02  0.54419703080E+02  0.15090507339E+03  0.12509000000E+03 0.  0.
         25    1    4    4    0    0  0.56551171257E+01 -0.93716234001E+01 -0.42256589610E+02  0.13248749050E+03  0.12509000000E+03 0.  0.
<mgrwt>
<rscale>  2 0.45724949E+03</rscale>
<asrwt>0</asrwt>
<pdfrwt beam="1">  1       21 0.26022236E-01 0.45724949E+03</pdfrwt>
<pdfrwt beam="2">  1       21 0.43439422E-01 0.45724949E+03</pdfrwt>
<totfact> 0.66075070E+04</totfact>
</mgrwt>
</event>
<event>
 7    0  0.4709932E-002  0.4551426E+03  0.7546771E-02  0.1026199E+00
         21   -1    0    0  502  501  0.00000000000E+00  0.00000000000E+00  0.61685624744E+03  0.61685624744E+03  0.00000000000E+00 0. -1.
         21   -1    0    0  501  502 -0.00000000000E+00 -0.00000000000E+00 -0.83955874064E+02  0.83955874064E+02  0.00000000000E+00 0. -1.
      99926    2    1    2    0    0  0.35527136788E-14  0.00000000000E+00  0.53290037338E+03  0.70081212151E+03  0.45514263885E+03 0.  0.
      99925    2    3    3    0    0 -0.16886482001E+02 -0.10637603084E+03  0.38731287134E+03  0.48071159434E+03  0.26357420855E+03 0.  0.
         25    1    3    3    0    0  0.16886482001E+02  0.10637603084E+03  0.14558750203E+03  0.22010052717E+03  0.12509000000E+03 0.  0.
         25    1    4    4    0    0 -0.48318733483E+02 -0.52005001286E+02  0.21571139692E+03  0.25926460427E+03  0.12509000000E+03 0.  0.
         25    1    4    4    0    0  0.31432251482E+02 -0.54371029551E+02  0.17160147442E+03  0.22144699007E+03  0.12509000000E+03 0.  0.
<mgrwt>
<rscale>  2 0.45514264E+03</rscale>
<asrwt>0</asrwt>
<pdfrwt beam="1">  1       21 0.90714152E-01 0.45514264E+03</pdfrwt>
<pdfrwt beam="2">  1       21 0.12346452E-01 0.45514264E+03</pdfrwt>
<totfact> 0.52799591E+04</totfact>
</mgrwt>
</event>
<event>
 7    0  0.4709932E-002  0.4487234E+03  0.7546771E-02  0.1028103E+00
         21   -1    0    0  502  501  0.00000000000E+00  0.00000000000E+00  0.28463250021E+03  0.28463250021E+03  0.00000000000E+00 0.  1.
         21   -1    0    0  501  502 -0.00000000000E+00 -0.00000000000E+00 -0.17685320245E+03  0.17685320245E+03  0.00000000000E+00 0.  1.
      99926    2    1    2    0    0  0.14210854715E-13  0.00000000000E+00  0.10777929776E+03  0.46148570267E+03  0.44872338555E+03 0.  0.
      99925    2    3    3    0    0 -0.73233004727E+02 -0.36738003302E+02  0.13904594373E+03  0.30871834647E+03  0.26317387620E+03 0.  0.
         25    1    4    4    0    0 -0.10282245045E+02 -0.24256601053E+02  0.10141696117E+03  0.16317786422E+03  0.12509000000E+03 0.  0.
         25    1    4    4    0    0 -0.62950759682E+02 -0.12481402249E+02  0.37628982555E+02  0.14554048225E+03  0.12509000000E+03 0.  0.
         25    1    3    3    0    0  0.73233004727E+02  0.36738003302E+02 -0.31266645968E+02  0.15276735619E+03  0.12509000000E+03 0.  0.
<mgrwt>
<rscale>  2 0.44872339E+03</rscale>
<asrwt>0</asrwt>
<pdfrwt beam="1">  1       21 0.41857721E-01 0.44872339E+03</pdfrwt>
<pdfrwt beam="2">  1       21 0.26007824E-01 0.44872339E+03</pdfrwt>
<totfact> 0.71571949E+04</totfact>
</mgrwt>
</event>
<event>
 7    0  0.4709932E-002  0.4588392E+03  0.7546771E-02  0.1025118E+00
         21   -1    0    0  502  501  0.00000000000E+00  0.00000000000E+00  0.54425736470E+03  0.54425736470E+03  0.00000000000E+00 0.  1.
         21   -1    0    0  501  502 -0.00000000000E+00 -0.00000000000E+00 -0.96706752642E+02  0.96706752642E+02  0.00000000000E+00 0.  1.
      99926    2    1    2    0    0  0.00000000000E+00  0.00000000000E+00  0.44755061206E+03  0.64096411734E+03  0.45883924131E+03 0.  0.
      99925    2    3    3    0    0  0.79604829378E+02  0.84393901977E+02  0.29370211778E+03  0.41123356465E+03  0.26342522877E+03 0.  0.
         25    1    4    4    0    0  0.17037307942E+02  0.11847355813E+02  0.16304431794E+03  0.20654681652E+03  0.12509000000E+03 0.  0.
         25    1    4    4    0    0  0.62567521436E+02  0.72546546164E+02  0.13065779984E+03  0.20468674813E+03  0.12509000000E+03 0.  0.
         25    1    3    3    0    0 -0.79604829378E+02 -0.84393901977E+02  0.15384849428E+03  0.22973055270E+03  0.12509000000E+03 0.  0.
<mgrwt>
<rscale>  2 0.45883924E+03</rscale>
<asrwt>0</asrwt>
<pdfrwt beam="1">  1       21 0.80037846E-01 0.45883924E+03</pdfrwt>
<pdfrwt beam="2">  1       21 0.14221581E-01 0.45883924E+03</pdfrwt>
<totfact> 0.54553356E+04</totfact>
</mgrwt>
</event>
<event>
 7    0  0.4709932E-002  0.4509991E+03  0.7546771E-02  0.1027425E+00
         21   -1    0    0  502  501  0.00000000000E+00  0.00000000000E+00  0.99086760726E+02  0.99086760726E+02  0.00000000000E+00 0. -1.
         21   -1    0    0  501  502 -0.00000000000E+00 -0.00000000000E+00 -0.51318719069E+03  0.51318719069E+03  0.00000000000E+00 0. -1.
      99926    2    1    2    0    0  0.00000000000E+00  0.35527136788E-14 -0.41410042996E+03  0.61227395142E+03  0.45099914134E+03 0.  0.
      99925    2    3    3    0    0 -0.91292004827E+01  0.28540493151E+02 -0.40429923121E+03  0.48327211559E+03  0.26305164378E+03 0.  0.
         25    1    4    4    0    0  0.61726719878E+01 -0.15707541924E+02 -0.24320697932E+03  0.27401089694E+03  0.12509000000E+03 0.  0.
         25    1    3    3    0    0  0.91292004827E+01 -0.28540493151E+02 -0.98011987532E+01  0.12900183583E+03  0.12509000000E+03 0.  0.
         25    1    4    4    0    0 -0.15301872470E+02  0.44248035075E+02 -0.16109225189E+03  0.20926121864E+03  0.12509000000E+03 0.  0.
<mgrwt>
<rscale>  2 0.45099914E+03</rscale>
<asrwt>0</asrwt>
<pdfrwt beam="1">  1       21 0.14571583E-01 0.45099914E+03</pdfrwt>
<pdfrwt beam="2">  1       21 0.75468702E-01 0.45099914E+03</pdfrwt>
<totfact> 0.59796323E+04</totfact>
</mgrwt>
</event>
<event>
 7    0  0.4709932E-002  0.4530965E+03  0.7546771E-02  0.1026803E+00
         21   -1    0    0  502  501  0.00000000000E+00  0.00000000000E+00  0.17121216698E+03  0.17121216698E+03  0.00000000000E+00 0.  1.
         21   -1    0    0  501  502 -0.00000000000E+00 -0.00000000000E+00 -0.29976901871E+03  0.29976901871E+03  0.00000000000E+00 0.  1.
      99926    2    1    2    0    0  0.00000000000E+00  0.00000000000E+00 -0.12855685173E+03  0.47098118568E+03  0.45309647222E+03 0.  0.
      99925    2    3    3    0    0  0.81266894707E+02  0.76033593802E+02 -0.77688921497E+02  0.29599412905E+03  0.26304284888E+03 0.  0.
         25    1    4    4    0    0  0.33773108896E+02  0.22083461710E+02  0.14469504711E+01  0.13144544089E+03  0.12509000000E+03 0.  0.
         25    1    4    4    0    0  0.47493785810E+02  0.53950132092E+02 -0.79135871968E+02  0.16454868816E+03  0.12509000000E+03 0.  0.
         25    1    3    3    0    0 -0.81266894707E+02 -0.76033593802E+02 -0.50867930235E+02  0.17498705663E+03  0.12509000000E+03 0.  0.
<mgrwt>
<rscale>  2 0.45309647E+03</rscale>
<asrwt>0</asrwt>
<pdfrwt beam="1">  1       21 0.25178260E-01 0.45309647E+03</pdfrwt>
<pdfrwt beam="2">  1       21 0.44083679E-01 0.45309647E+03</pdfrwt>
<totfact> 0.68389871E+04</totfact>
</mgrwt>
</event>
<event>
 7    0  0.4709932E-002  0.4569814E+03  0.7546771E-02  0.1025660E+00
         21   -1    0    0  502  501  0.00000000000E+00  0.00000000000E+00  0.11758566106E+04  0.11758566106E+04  0.00000000000E+00 0. -1.
         21   -1    0    0  501  502 -0.00000000000E+00 -0.00000000000E+00 -0.44399969207E+02  0.44399969207E+02  0.00000000000E+00 0. -1.
      99926    2    1    2    0    0  0.88817841970E-15  0.00000000000E+00  0.11314566414E+04  0.12202565798E+04  0.45698138825E+03 0.  0.
      99925    2    3    3    0    0  0.54992553830E+01  0.69212102642E+02  0.95563164542E+03  0.99357950935E+03  0.26295977393E+03 0.  0.
         25    1    4    4    0    0  0.22883629225E+01  0.11875807447E+01  0.35879371453E+03  0.37998300572E+03  0.12509000000E+03 0.  0.
         25    1    4    4    0    0  0.32108924605E+01  0.68024521898E+02  0.59683793089E+03  0.61359650363E+03  0.12509000000E+03 0.  0.
         25    1    3    3    0    0 -0.54992553830E+01 -0.69212102642E+02  0.17582499596E+03  0.22667707044E+03  0.12509000000E+03 0.  0.
<mgrwt>
<rscale>  2 0.45698139E+03</rscale>
<asrwt>0</asrwt>
<pdfrwt beam="1">  1       21 0.17292007E+00 0.45698139E+03</pdfrwt>
<pdfrwt beam="2">  1       21 0.65294080E-02 0.45698139E+03</pdfrwt>
<totfact> 0.31038665E+04</totfact>
</mgrwt>
</event>
<event>
 7    0  0.4709932E-002  0.4568354E+03  0.7546771E-02  0.1025703E+00
         21   -1    0    0  502  501  0.00000000000E+00  0.00000000000E+00  0.42801628055E+03  0.42801628055E+03  0.00000000000E+00 0. -1.
         21   -1    0    0  501  502 -0.00000000000E+00 -0.00000000000E+00 -0.12189872168E+03  0.12189872168E+03  0.00000000000E+00 0. -1.
      99926    2    1    2    0    0  0.35527136788E-14  0.00000000000E+00  0.30611755888E+03  0.54991500223E+03  0.45683536403E+03 0.  0.
      99925    2    3    3    0    0 -0.14349008453E+02 -0.33131711882E+02  0.32368356266E+03  0.41853891246E+03  0.26286910835E+03 0.  0.
         25    1    4    4    0    0 -0.38960185834E+02 -0.18656829793E+02  0.20343078038E+03  0.24268820302E+03  0.12509000000E+03 0.  0.
         25    1    3    3    0    0  0.14349008453E+02  0.33131711882E+02 -0.17566003785E+02  0.13137608978E+03  0.12509000000E+03 0.  0.
         25    1    4    4    0    0  0.24611177381E+02 -0.14474882089E+02  0.12025278228E+03  0.17585070944E+03  0.12509000000E+03 0.  0.
<mgrwt>
<rscale>  2 0.45683536E+03</rscale>
<asrwt>0</asrwt>
<pdfrwt beam="1">  1       21 0.62943570E-01 0.45683536E+03</pdfrwt>
<pdfrwt beam="2">  1       21 0.17926283E-01 0.45683536E+03</pdfrwt>
<totfact> 0.60981758E+04</totfact>
</mgrwt>
</event>
<event>
 6    0  0.4709932E-002  0.4571021E+03  0.7546771E-02  0.1025625E+00
         21   -1    0    0  502  501  0.00000000000E+00  0.00000000000E+00  0.10524901736E+03  0.10524901736E+03  0.00000000000E+00 0. -1.
         21   -1    0    0  501  502 -0.00000000000E+00 -0.00000000000E+00 -0.49630466934E+03  0.49630466934E+03  0.00000000000E+00 0. -1.
      99926    2    1    2    0    0 -0.35527136788E-14  0.00000000000E+00 -0.39105565198E+03  0.60155368670E+03  0.45710208382E+03 0.  0.
         25    1    3    3    0    0 -0.32555733752E+02  0.51804992064E+01 -0.16784809201E+03  0.21191319795E+03  0.12509000000E+03 0.  0.
         25    1    3    3    0    0  0.18923526804E+02 -0.96211336909E+02 -0.14761096674E+03  0.21691294756E+03  0.12509000000E+03 0.  0.
         25    1    3    3    0    0  0.13632206948E+02  0.91030837702E+02 -0.75596593229E+02  0.17272754119E+03  0.12509000000E+03 0.  0.
<mgrwt>
<rscale>  2 0.45710208E+03</rscale>
<asrwt>0</asrwt>
<pdfrwt beam="1">  1       21 0.15477797E-01 0.45710208E+03</pdfrwt>
<pdfrwt beam="2">  1       21 0.72985979E-01 0.45710208E+03</pdfrwt>
<totfact> 0.57619777E+04</totfact>
</mgrwt>
</event>
<event>
 7    0  0.4709932E-002  0.4549527E+03  0.7546771E-02  0.1026255E+00
         21   -1    0    0  502  501  0.00000000000E+00  0.00000000000E+00  0.46521343061E+02  0.46521343061E+02  0.00000000000E+00 0.  1.
         21   -1    0    0  501  502 -0.00000000000E+00 -0.00000000000E+00 -0.11122957480E+04  0.11122957480E+04  0.00000000000E+00 0.  1.
      99926    2    1    2    0    0 -0.71054273576E-14  0.14210854715E-13 -0.10657744049E+04  0.11588170910E+04  0.45495270997E+03 0.  0.
      99925    2    3    3    0    0  0.49908413043E+02 -0.82877921171E+02 -0.52154295997E+03  0.59207643317E+03  0.26303582287E+03 0.  0.
         25    1    3    3    0    0 -0.49908413043E+02  0.82877921171E+02 -0.54423144494E+03  0.56674065786E+03  0.12509000000E+03 0.  0.
         25    1    4    4    0    0 -0.15687575578E+02 -0.35056004247E+02 -0.23039311813E+03  0.26495946944E+03  0.12509000000E+03 0.  0.
         25    1    4    4    0    0  0.65595988622E+02 -0.47821916924E+02 -0.29114984183E+03  0.32711696373E+03  0.12509000000E+03 0.  0.
<mgrwt>
<rscale>  2 0.45495271E+03</rscale>
<asrwt>0</asrwt>
<pdfrwt beam="1">  1       21 0.68413744E-02 0.45495271E+03</pdfrwt>
<pdfrwt beam="2">  1       21 0.16357289E+00 0.45495271E+03</pdfrwt>
<totfact> 0.33501688E+04</totfact>
</mgrwt>
</event>
<event>
 6    0  0.4709932E-002  0.4680549E+03  0.7546771E-02  0.1022471E+00
         21   -1    0    0  502  501  0.00000000000E+00  0.00000000000E+00  0.58961575038E+02  0.58961575038E+02  0.00000000000E+00 0.  1.
         21   -1    0    0  501  502 -0.00000000000E+00 -0.00000000000E+00 -0.92889058485E+03  0.92889058485E+03  0.00000000000E+00 0.  1.
      99926    2    1    2    0    0  0.35527136788E-14  0.00000000000E+00 -0.86992900982E+03  0.98785215989E+03  0.46805491952E+03 0.  0.
         25    1    3    3    0    0  0.42982173848E+02 -0.97750868742E+02 -0.28933595415E+03  0.33281451602E+03  0.12509000000E+03 0.  0.
         25    1    3    3    0    0  0.17729877223E+02  0.95929254591E+02 -0.37121873295E+03  0.40369248968E+03  0.12509000000E+03 0.  0.
         25    1    3    3    0    0 -0.60712051071E+02  0.18216141508E+01 -0.20937432272E+03  0.25134515419E+03  0.12509000000E+03 0.  0.
<mgrwt>
<rscale>  2 0.46805492E+03</rscale>
<asrwt>0</asrwt>
<pdfrwt beam="1">  1       21 0.86708204E-02 0.46805492E+03</pdfrwt>
<pdfrwt beam="2">  1       21 0.13660155E+00 0.46805492E+03</pdfrwt>
<totfact> 0.35844623E+04</totfact>
</mgrwt>
</event>
<event>
 7    0  0.4709932E-002  0.4377468E+03  0.7546771E-02  0.1031440E+00
         21   -1    0    0  502  501  0.00000000000E+00  0.00000000000E+00  0.65971122970E+03  0.65971122970E+03  0.00000000000E+00 0. -1.
         21   -1    0    0  501  502 -0.00000000000E+00 -0.00000000000E+00 -0.72615970083E+02  0.72615970083E+02  0.00000000000E+00 0. -1.
      99926    2    1    2    0    0  0.00000000000E+00  0.00000000000E+00  0.58709525962E+03  0.73232719979E+03  0.43774682601E+03 0.  0.
      99925    2    3    3    0    0  0.40071746364E+02 -0.74085177413E+02  0.45289635195E+03  0.53045790225E+03  0.26301353972E+03 0.  0.
         25    1    3    3    0    0 -0.40071746364E+02  0.74085177413E+02  0.13419890767E+03  0.20186929754E+03  0.12509000000E+03 0.  0.
         25    1    4    4    0    0  0.39586677870E+02 -0.16272681186E+02  0.16628171446E+03  0.21243592418E+03  0.12509000000E+03 0.  0.
         25    1    4    4    0    0  0.48506849340E+00 -0.57812496227E+02  0.28661463749E+03  0.31802197807E+03  0.12509000000E+03 0.  0.
<mgrwt>
<rscale>  2 0.43774683E+03</rscale>
<asrwt>0</asrwt>
<pdfrwt beam="1">  1       21 0.97016354E-01 0.43774683E+03</pdfrwt>
<pdfrwt beam="2">  1       21 0.10678819E-01 0.43774683E+03</pdfrwt>
<totfact> 0.58757224E+04</totfact>
</mgrwt>
</event>
<event>
 7    0  0.4709932E-002  0.4566185E+03  0.7546771E-02  0.1025767E+00
         21   -1    0    0  502  501  0.00000000000E+00  0.00000000000E+00  0.10044311116E+03  0.10044311116E+03  0.00000000000E+00 0.  1.
         21   -1    0    0  501  502 -0.00000000000E+00 -0.00000000000E+00 -0.51895168954E+03  0.51895168954E+03  0.00000000000E+00 0.  1.
      99926    2    1    2    0    0 -0.71054273576E-14  0.00000000000E+00 -0.41850857837E+03  0.61939480070E+03  0.45661853769E+03 0.  0.
      99925    2    3    3    0    0 -0.38361622727E+02 -0.56427889996E+02 -0.13833107833E+03  0.30506589573E+03  0.26319953009E+03 0.  0.
         25    1    4    4    0    0 -0.52284931111E+02 -0.13804332967E+02 -0.91610526449E+02  0.16420800920E+03  0.12509000000E+03 0.  0.
         25    1    4    4    0    0  0.13923308383E+02 -0.42623557029E+02 -0.46720551881E+02  0.14085788653E+03  0.12509000000E+03 0.  0.
         25    1    3    3    0    0  0.38361622727E+02  0.56427889996E+02 -0.28017750004E+03  0.31432890497E+03  0.12509000000E+03 0.  0.
<mgrwt>
<rscale>  2 0.45661854E+03</rscale>
<asrwt>0</asrwt>
<pdfrwt beam="1">  1       21 0.14771046E-01 0.45661854E+03</pdfrwt>
<pdfrwt beam="2">  1       21 0.76316423E-01 0.45661854E+03</pdfrwt>
<totfact> 0.56770985E+04</totfact>
</mgrwt>
</event>
<event>
 7    0  0.4709932E-002  0.4474012E+03  0.7546771E-02  0.1028500E+00
         21   -1    0    0  502  501  0.00000000000E+00  0.00000000000E+00  0.11298218545E+03  0.11298218545E+03  0.00000000000E+00 0. -1.
         21   -1    0    0  501  502 -0.00000000000E+00 -0.00000000000E+00 -0.44291903600E+03  0.44291903600E+03  0.00000000000E+00 0. -1.
      99926    2    1    2    0    0  0.00000000000E+00 -0.14210854715E-13 -0.32993685054E+03  0.55590122145E+03  0.44740120995E+03 0.  0.
      99925    2    3    3    0    0  0.23395849114E+01  0.10479188186E+03 -0.22739577402E+03  0.36316048202E+03  0.26303970327E+03 0.  0.
         25    1    3    3    0    0 -0.23395849114E+01 -0.10479188186E+03 -0.10254107652E+03  0.19274073943E+03  0.12509000000E+03 0.  0.
         25    1    4    4    0    0  0.16600743036E+01  0.61186428494E+02 -0.65284028178E+02  0.15380522525E+03  0.12509000000E+03 0.  0.
         25    1    4    4    0    0  0.67951060780E+00  0.43605453367E+02 -0.16211174584E+03  0.20935525677E+03  0.12509000000E+03 0.  0.
<mgrwt>
<rscale>  2 0.44740121E+03</rscale>
<asrwt>0</asrwt>
<pdfrwt beam="1">  1       21 0.16615027E-01 0.44740121E+03</pdfrwt>
<pdfrwt beam="2">  1       21 0.65135152E-01 0.44740121E+03</pdfrwt>
<totfact> 0.65316838E+04</totfact>
</mgrwt>
</event>
<event>
 7    0  0.4709932E-002  0.4560216E+03  0.7546771E-02  0.1025941E+00
         21   -1    0    0  502  501  0.00000000000E+00  0.00000000000E+00  0.17718137774E+03  0.17718137774E+03  0.00000000000E+00 0. -1.
         21   -1    0    0  501  502 -0.00000000000E+00 -0.00000000000E+00 -0.29342199761E+03  0.29342199761E+03  0.00000000000E+00 0. -1.
      99926    2    1    2    0    0  0.14210854715E-13 -0.35527136788E-14 -0.11624061987E+03  0.47060337535E+03  0.45602155123E+03 0.  0.
      99925    2    3    3    0    0 -0.94140828400E+02 -0.25372123804E+02 -0.11832623944E+02  0.28072241803E+03  0.26298065473E+03 0.  0.
         25    1    4    4    0    0 -0.29176774223E+02  0.12158533918E+02 -0.33393597245E+02  0.13327323264E+03  0.12509000000E+03 0.  0.
         25    1    3    3    0    0  0.94140828400E+02  0.25372123804E+02 -0.10440799593E+03  0.18988095732E+03  0.12509000000E+03 0.  0.
         25    1    4    4    0    0 -0.64964054178E+02 -0.37530657722E+02  0.21560973301E+02  0.14744918540E+03  0.12509000000E+03 0.  0.
<mgrwt>
<rscale>  2 0.45602155E+03</rscale>
<asrwt>0</asrwt>
<pdfrwt beam="1">  1       21 0.26056085E-01 0.45602155E+03</pdfrwt>
<pdfrwt beam="2">  1       21 0.43150293E-01 0.45602155E+03</pdfrwt>
<totfact> 0.66847499E+04</totfact>
</mgrwt>
</event>
<event>
 7    0  0.4709932E-002  0.4603699E+03  0.7546771E-02  0.1024674E+00
         21   -1    0    0  502  501  0.00000000000E+00  0.00000000000E+00  0.51928586446E+03  0.51928586446E+03  0.00000000000E+00 0.  1.
         21   -1    0    0  501  502 -0.00000000000E+00 -0.00000000000E+00 -0.10203455704E+03  0.10203455704E+03  0.00000000000E+00 0.  1.
      99926    2    1    2    0    0  0.14210854715E-13  0.00000000000E+00  0.41725130742E+03  0.62132042150E+03  0.46036986503E+03 0.  0.
      99925    2    3    3    0    0  0.11168455889E+03  0.34842299459E+02  0.28332079918E+03  0.40389844546E+03  0.26301302719E+03 0.  0.
         25    1    4    4    0    0  0.81823513609E+02  0.51464130810E+02  0.16091872492E+03  0.22557922837E+03  0.12509000000E+03 0.  0.
         25    1    4    4    0    0  0.29861045284E+02 -0.16621831351E+02  0.12240207425E+03  0.17831921709E+03  0.12509000000E+03 0.  0.
         25    1    3    3    0    0 -0.11168455889E+03 -0.34842299459E+02  0.13393050825E+03  0.21742197604E+03  0.12509000000E+03 0.  0.
<mgrwt>
<rscale>  2 0.46036987E+03</rscale>
<asrwt>0</asrwt>
<pdfrwt beam="1">  1       21 0.76365567E-01 0.46036987E+03</pdfrwt>
<pdfrwt beam="2">  1       21 0.15005082E-01 0.46036987E+03</pdfrwt>
<totfact> 0.55014602E+04</totfact>
</mgrwt>
</event>
<event>
 7    0  0.4709932E-002  0.4635774E+03  0.7546771E-02  0.1023749E+00
         21   -1    0    0  502  501  0.00000000000E+00  0.00000000000E+00  0.49991128914E+03  0.49991128914E+03  0.00000000000E+00 0. -1.
         21   -1    0    0  501  502 -0.00000000000E+00 -0.00000000000E+00 -0.10747105915E+03  0.10747105915E+03  0.00000000000E+00 0. -1.
      99926    2    1    2    0    0  0.00000000000E+00  0.00000000000E+00  0.39244022999E+03  0.60738234829E+03  0.46357737531E+03 0.  0.
      99925    2    3    3    0    0 -0.54492889677E+02  0.10741271079E+03  0.26086870784E+03  0.38951647441E+03  0.26298980139E+03 0.  0.
         25    1    4    4    0    0 -0.62301255958E+02  0.34507934108E+02  0.12080208128E+03  0.18791725560E+03  0.12509000000E+03 0.  0.
         25    1    4    4    0    0  0.78083662808E+01  0.72904776680E+02  0.14006662656E+03  0.20159921881E+03  0.12509000000E+03 0.  0.
         25    1    3    3    0    0  0.54492889677E+02 -0.10741271079E+03  0.13157152215E+03  0.21786587389E+03  0.12509000000E+03 0.  0.
<mgrwt>
<rscale>  2 0.46357738E+03</rscale>
<asrwt>0</asrwt>
<pdfrwt beam="1">  1       21 0.73516365E-01 0.46357738E+03</pdfrwt>
<pdfrwt beam="2">  1       21 0.15804568E-01 0.46357738E+03</pdfrwt>
<totfact> 0.54442262E+04</totfact>
</mgrwt>
</event>
<event>
 7    0  0.4709932E-002  0.4538008E+03  0.7546771E-02  0.1026595E+00
         21   -1    0    0  502  501  0.00000000000E+00  0.00000000000E+00  0.45508916411E+03  0.45508916411E+03  0.00000000000E+00 0.  1.
         21   -1    0    0  501  502 -0.00000000000E+00 -0.00000000000E+00 -0.11312901550E+03  0.11312901550E+03  0.00000000000E+00 0.  1.
      99926    2    1    2    0    0  0.00000000000E+00  0.71054273576E-14  0.34196014862E+03  0.56821817961E+03  0.45380078933E+03 0.  0.
      99925    2    3    3    0    0  0.17490785621E+02 -0.54418858397E+02  0.33601470098E+03  0.43055846808E+03  0.26307294698E+03 0.  0.
         25    1    3    3    0    0 -0.17490785621E+02  0.54418858397E+02  0.59454476378E+01  0.13765971153E+03  0.12509000000E+03 0.  0.
         25    1    4    4    0    0 -0.20398429420E+02 -0.51337154152E+02  0.14738540478E+03  0.20105115011E+03  0.12509000000E+03 0.  0.
         25    1    4    4    0    0  0.37889215040E+02 -0.30817042456E+01  0.18862929620E+03  0.22950731797E+03  0.12509000000E+03 0.  0.
<mgrwt>
<rscale>  2 0.45380079E+03</rscale>
<asrwt>0</asrwt>
<pdfrwt beam="1">  1       21 0.66924877E-01 0.45380079E+03</pdfrwt>
<pdfrwt beam="2">  1       21 0.16636620E-01 0.45380079E+03</pdfrwt>
<totfact> 0.61257325E+04</totfact>
</mgrwt>
</event>
<event>
 7    0  0.4709932E-002  0.4546435E+03  0.7546771E-02  0.1026346E+00
         21   -1    0    0  502  501  0.00000000000E+00  0.00000000000E+00  0.12163186435E+03  0.12163186435E+03  0.00000000000E+00 0. -1.
         21   -1    0    0  501  502 -0.00000000000E+00 -0.00000000000E+00 -0.42484905100E+03  0.42484905100E+03  0.00000000000E+00 0. -1.
      99926    2    1    2    0    0 -0.35527136788E-14  0.00000000000E+00 -0.30321718665E+03  0.54648091535E+03  0.45464351811E+03 0.  0.
      99925    2    3    3    0    0  0.18098899506E+02 -0.82537500107E+02 -0.10065353237E+03  0.29385559749E+03  0.26283068601E+03 0.  0.
         25    1    4    4    0    0 -0.17467343924E+02 -0.65194949749E+02 -0.31656149999E+02  0.14561974286E+03  0.12509000000E+03 0.  0.
         25    1    4    4    0    0  0.35566243430E+02 -0.17342550358E+02 -0.68997382367E+02  0.14823585463E+03  0.12509000000E+03 0.  0.
         25    1    3    3    0    0 -0.18098899506E+02  0.82537500107E+02 -0.20256365429E+03  0.25262531786E+03  0.12509000000E+03 0.  0.
<mgrwt>
<rscale>  2 0.45464352E+03</rscale>
<asrwt>0</asrwt>
<pdfrwt beam="1">  1       21 0.17887039E-01 0.45464352E+03</pdfrwt>
<pdfrwt beam="2">  1       21 0.62477800E-01 0.45464352E+03</pdfrwt>
<totfact> 0.62275131E+04</totfact>
</mgrwt>
</event>
<event>
 7    0  0.4709932E-002  0.4510754E+03  0.7546771E-02  0.1027402E+00
         21   -1    0    0  502  501  0.00000000000E+00  0.00000000000E+00  0.69254303183E+03  0.69254303183E+03  0.00000000000E+00 0. -1.
         21   -1    0    0  501  502 -0.00000000000E+00 -0.00000000000E+00 -0.73449962472E+02  0.73449962472E+02  0.00000000000E+00 0. -1.
      99926    2    1    2    0    0  0.00000000000E+00  0.00000000000E+00  0.61909306936E+03  0.76599299430E+03  0.45107542473E+03 0.  0.
      99925    2    3    3    0    0  0.76299685523E+02 -0.31030036291E+02  0.26860398879E+03  0.38484393047E+03  0.26300616506E+03 0.  0.
         25    1    4    4    0    0  0.32542966239E+02  0.14236821674E+02  0.91207498546E+02  0.15883339584E+03  0.12509000000E+03 0.  0.
         25    1    3    3    0    0 -0.76299685523E+02  0.31030036291E+02  0.35048908057E+03  0.38114906383E+03  0.12509000000E+03 0.  0.
         25    1    4    4    0    0  0.43756719283E+02 -0.45266857965E+02  0.17739649025E+03  0.22601053463E+03  0.12509000000E+03 0.  0.
<mgrwt>
<rscale>  2 0.45107542E+03</rscale>
<asrwt>0</asrwt>
<pdfrwt beam="1">  1       21 0.10184456E+00 0.45107542E+03</pdfrwt>
<pdfrwt beam="2">  1       21 0.10801465E-01 0.45107542E+03</pdfrwt>
<totfact> 0.51006991E+04</totfact>
</mgrwt>
</event>
<event>
 7    0  0.4709932E-002  0.4760673E+03  0.7546771E-02  0.1020222E+00
         21   -1    0    0  502  501  0.00000000000E+00  0.00000000000E+00  0.65532424742E+03  0.65532424742E+03  0.00000000000E+00 0.  1.
         21   -1    0    0  501  502 -0.00000000000E+00 -0.00000000000E+00 -0.86461040460E+02  0.86461040460E+02  0.00000000000E+00 0.  1.
      99926    2    1    2    0    0  0.00000000000E+00  0.00000000000E+00  0.56886320696E+03  0.74178528788E+03  0.47606729050E+03 0.  0.
      99925    2    3    3    0    0 -0.82255741915E+02  0.99202739247E+02  0.30879249673E+03  0.42572916475E+03  0.26322105753E+03 0.  0.
         25    1    4    4    0    0 -0.47601778325E+02  0.93234530814E+02  0.17445750243E+03  0.23883369798E+03  0.12509000000E+03 0.  0.
         25    1    3    3    0    0  0.82255741915E+02 -0.99202739247E+02  0.26007071023E+03  0.31605612314E+03  0.12509000000E+03 0.  0.
         25    1    4    4    0    0 -0.34653963590E+02  0.59682084328E+01  0.13433499430E+03  0.18689546677E+03  0.12509000000E+03 0.  0.
<mgrwt>
<rscale>  2 0.47606729E+03</rscale>
<asrwt>0</asrwt>
<pdfrwt beam="1">  1       21 0.96371210E-01 0.47606729E+03</pdfrwt>
<pdfrwt beam="2">  1       21 0.12714859E-01 0.47606729E+03</pdfrwt>
<totfact> 0.43098226E+04</totfact>
</mgrwt>
</event>
<event>
 7    0  0.4709932E-002  0.4526567E+03  0.7546771E-02  0.1026933E+00
         21   -1    0    0  502  501  0.00000000000E+00  0.00000000000E+00  0.16477604313E+03  0.16477604313E+03  0.00000000000E+00 0.  1.
         21   -1    0    0  501  502 -0.00000000000E+00 -0.00000000000E+00 -0.31087361786E+03  0.31087361786E+03  0.00000000000E+00 0.  1.
      99926    2    1    2    0    0 -0.88817841970E-15  0.00000000000E+00 -0.14609757473E+03  0.47564966099E+03  0.45265671171E+03 0.  0.
      99925    2    3    3    0    0 -0.13316162447E+01  0.74920973338E+02 -0.60639753656E+01  0.27348180375E+03  0.26294600156E+03 0.  0.
         25    1    4    4    0    0 -0.82581773182E+01  0.61169878900E+02 -0.35751044348E+02  0.14399860016E+03  0.12509000000E+03 0.  0.
         25    1    4    4    0    0  0.69265610735E+01  0.13751094438E+02  0.29687068982E+02  0.12948320359E+03  0.12509000000E+03 0.  0.
         25    1    3    3    0    0  0.13316162447E+01 -0.74920973338E+02 -0.14003359937E+03  0.20216785724E+03  0.12509000000E+03 0.  0.
<mgrwt>
<rscale>  2 0.45265671E+03</rscale>
<asrwt>0</asrwt>
<pdfrwt beam="1">  1       21 0.24231771E-01 0.45265671E+03</pdfrwt>
<pdfrwt beam="2">  1       21 0.45716708E-01 0.45265671E+03</pdfrwt>
<totfact> 0.68279182E+04</totfact>
</mgrwt>
</event>
<event>
 7    0  0.4709932E-002  0.4569773E+03  0.7546771E-02  0.1025662E+00
         21   -1    0    0  502  501  0.00000000000E+00  0.00000000000E+00  0.38184097022E+02  0.38184097022E+02  0.00000000000E+00 0.  1.
         21   -1    0    0  501  502 -0.00000000000E+00 -0.00000000000E+00 -0.13672463966E+04  0.13672463966E+04  0.00000000000E+00 0.  1.
      99926    2    1    2    0    0 -0.22204460493E-15  0.00000000000E+00 -0.13290622996E+04  0.14054304936E+04  0.45697732575E+03 0.  0.
      99925    2    3    3    0    0 -0.65952294346E+00 -0.10996379584E+02 -0.48278903648E+03  0.54989130734E+03  0.26300920289E+03 0.  0.
         25    1    4    4    0    0  0.11397036779E+02  0.15902347380E+02 -0.30743237089E+03  0.33248300388E+03  0.12509000000E+03 0.  0.
         25    1    3    3    0    0  0.65952294346E+00  0.10996379584E+02 -0.84627326312E+03  0.85553918630E+03  0.12509000000E+03 0.  0.
         25    1    4    4    0    0 -0.12056559722E+02 -0.26898726965E+02 -0.17535666559E+03  0.21740830346E+03  0.12509000000E+03 0.  0.
<mgrwt>
<rscale>  2 0.45697733E+03</rscale>
<asrwt>0</asrwt>
<pdfrwt beam="1">  1       21 0.56153083E-02 0.45697733E+03</pdfrwt>
<pdfrwt beam="2">  1       21 0.20106565E+00 0.45697733E+03</pdfrwt>
<totfact> 0.25789095E+04</totfact>
</mgrwt>
</event>
<event>
 7    0  0.4709932E-002  0.4517745E+03  0.7546771E-02  0.1027194E+00
         21   -1    0    0  502  501  0.00000000000E+00  0.00000000000E+00  0.16355743326E+04  0.16355743326E+04  0.00000000000E+00 0. -1.
         21   -1    0    0  501  502 -0.00000000000E+00 -0.00000000000E+00 -0.31197018325E+02  0.31197018325E+02  0.00000000000E+00 0. -1.
      99926    2    1    2    0    0  0.00000000000E+00  0.00000000000E+00  0.16043773142E+04  0.16667713509E+04  0.45177446774E+03 0.  0.
      99925    2    3    3    0    0  0.68992944535E+02 -0.73049228348E+02  0.84555031646E+03  0.89116698215E+03  0.26292020889E+03 0.  0.
         25    1    4    4    0    0  0.65314060884E+02 -0.14302760298E+02  0.38405355403E+03  0.40940827539E+03  0.12509000000E+03 0.  0.
         25    1    4    4    0    0  0.36788836504E+01 -0.58746468050E+02  0.46149676243E+03  0.48175870675E+03  0.12509000000E+03 0.  0.
         25    1    3    3    0    0 -0.68992944535E+02  0.73049228348E+02  0.75882699779E+03  0.77560436875E+03  0.12509000000E+03 0.  0.
<mgrwt>
<rscale>  2 0.45177447E+03</rscale>
<asrwt>0</asrwt>
<pdfrwt beam="1">  1       21 0.24052558E+00 0.45177447E+03</pdfrwt>
<pdfrwt beam="2">  1       21 0.45877979E-02 0.45177447E+03</pdfrwt>
<totfact> 0.20470029E+04</totfact>
</mgrwt>
</event>
<event>
 7    0  0.4709932E-002  0.4557451E+03  0.7546771E-02  0.1026023E+00
         21   -1    0    0  502  501  0.00000000000E+00  0.00000000000E+00  0.42858177463E+03  0.42858177463E+03  0.00000000000E+00 0. -1.
         21   -1    0    0  501  502 -0.00000000000E+00 -0.00000000000E+00 -0.12115752234E+03  0.12115752234E+03  0.00000000000E+00 0. -1.
      99926    2    1    2    0    0  0.00000000000E+00  0.00000000000E+00  0.30742425229E+03  0.54973929697E+03  0.45574513024E+03 0.  0.
      99925    2    3    3    0    0  0.93868839283E+02 -0.60888078176E+02  0.21905774022E+03  0.36006888386E+03  0.26295359006E+03 0.  0.
         25    1    3    3    0    0 -0.93868839283E+02  0.60888078176E+02  0.88366512073E+02  0.18967041311E+03  0.12509000000E+03 0.  0.
         25    1    4    4    0    0  0.32618922044E+02 -0.66575358431E+02  0.97066254794E+02  0.17483031300E+03  0.12509000000E+03 0.  0.
         25    1    4    4    0    0  0.61249917239E+02  0.56872802545E+01  0.12199148542E+03  0.18523857086E+03  0.12509000000E+03 0.  0.
<mgrwt>
<rscale>  2 0.45574513E+03</rscale>
<asrwt>0</asrwt>
<pdfrwt beam="1">  1       21 0.63026731E-01 0.45574513E+03</pdfrwt>
<pdfrwt beam="2">  1       21 0.17817283E-01 0.45574513E+03</pdfrwt>
<totfact> 0.61520250E+04</totfact>
</mgrwt>
</event>
<event>
 7    0  0.4709932E-002  0.4597105E+03  0.7546771E-02  0.1024865E+00
         21   -1    0    0  502  501  0.00000000000E+00  0.00000000000E+00  0.23576914427E+03  0.23576914427E+03  0.00000000000E+00 0. -1.
         21   -1    0    0  501  502 -0.00000000000E+00 -0.00000000000E+00 -0.22408972074E+03  0.22408972074E+03  0.00000000000E+00 0. -1.
      99926    2    1    2    0    0 -0.14210854715E-13 -0.71054273576E-14  0.11679423533E+02  0.45985886501E+03  0.45971052499E+03 0.  0.
      99925    2    3    3    0    0  0.97522094687E+02  0.52892825585E+02 -0.31473450052E+02  0.28718029497E+03  0.26300899949E+03 0.  0.
         25    1    4    4    0    0  0.63179733266E+02 -0.83976412598E+01 -0.43485291860E+00  0.14039193806E+03  0.12509000000E+03 0.  0.
         25    1    3    3    0    0 -0.97522094687E+02 -0.52892825585E+02  0.43152873584E+02  0.17267857003E+03  0.12509000000E+03 0.  0.
         25    1    4    4    0    0  0.34342361421E+02  0.61290466844E+02 -0.31038597133E+02  0.14678835692E+03  0.12509000000E+03 0.  0.
<mgrwt>
<rscale>  2 0.45971052E+03</rscale>
<asrwt>0</asrwt>
<pdfrwt beam="1">  1       21 0.34671933E-01 0.45971052E+03</pdfrwt>
<pdfrwt beam="2">  1       21 0.32954371E-01 0.45971052E+03</pdfrwt>
<totfact> 0.65687502E+04</totfact>
</mgrwt>
</event>
<event>
 7    0  0.4709932E-002  0.4526450E+03  0.7546771E-02  0.1026936E+00
         21   -1    0    0  502  501  0.00000000000E+00  0.00000000000E+00  0.77208733769E+03  0.77208733769E+03  0.00000000000E+00 0. -1.
         21   -1    0    0  501  502 -0.00000000000E+00 -0.00000000000E+00 -0.66342074957E+02  0.66342074957E+02  0.00000000000E+00 0. -1.
      99926    2    1    2    0    0  0.71054273576E-14  0.14210854715E-13  0.70574526274E+03  0.83842941265E+03  0.45264500894E+03 0.  0.
      99925    2    3    3    0    0 -0.54302914496E+02 -0.87729289943E+02  0.36808070139E+03  0.46384951606E+03  0.26273129996E+03 0.  0.
         25    1    3    3    0    0  0.54302914496E+02  0.87729289943E+02  0.33766456135E+03  0.37457989659E+03  0.12509000000E+03 0.  0.
         25    1    4    4    0    0  0.70453265579E+01 -0.64204703962E+02  0.17526894720E+03  0.22480790153E+03  0.12509000000E+03 0.  0.
         25    1    4    4    0    0 -0.61348241054E+02 -0.23524585981E+02  0.19281175419E+03  0.23904161453E+03  0.12509000000E+03 0.  0.
<mgrwt>
<rscale>  2 0.45264501E+03</rscale>
<asrwt>0</asrwt>
<pdfrwt beam="1">  1       21 0.11354225E+00 0.45264501E+03</pdfrwt>
<pdfrwt beam="2">  1       21 0.97561879E-02 0.45264501E+03</pdfrwt>
<totfact> 0.46820570E+04</totfact>
</mgrwt>
</event>
<event>
 7    0  0.4709932E-002  0.4563908E+03  0.7546771E-02  0.1025833E+00
         21   -1    0    0  502  501  0.00000000000E+00  0.00000000000E+00  0.36391687102E+02  0.36391687102E+02  0.00000000000E+00 0. -1.
         21   -1    0    0  501  502 -0.00000000000E+00 -0.00000000000E+00 -0.14309076418E+04  0.14309076418E+04  0.00000000000E+00 0. -1.
      99926    2    1    2    0    0  0.00000000000E+00  0.00000000000E+00 -0.13945159547E+04  0.14672993289E+04  0.45639081135E+03 0.  0.
      99925    2    3    3    0    0  0.73270667831E+02 -0.87724318490E+02 -0.88706894108E+03  0.93230949110E+03  0.26314546196E+03 0.  0.
         25    1    3    3    0    0 -0.73270667831E+02  0.87724318490E+02 -0.50744701360E+03  0.53498983778E+03  0.12509000000E+03 0.  0.
         25    1    4    4    0    0  0.34599324870E+02 -0.70451058495E+02 -0.57037399848E+03  0.58918118704E+03  0.12509000000E+03 0.  0.
         25    1    4    4    0    0  0.38671342961E+02 -0.17273259996E+02 -0.31669494260E+03  0.34312830406E+03  0.12509000000E+03 0.  0.
<mgrwt>
<rscale>  2 0.45639081E+03</rscale>
<asrwt>0</asrwt>
<pdfrwt beam="1">  1       21 0.53517189E-02 0.45639081E+03</pdfrwt>
<pdfrwt beam="2">  1       21 0.21042758E+00 0.45639081E+03</pdfrwt>
<totfact> 0.24328131E+04</totfact>
</mgrwt>
</event>
<event>
 7    0  0.4709932E-002  0.4375477E+03  0.7546771E-02  0.1031502E+00
         21   -1    0    0  502  501  0.00000000000E+00  0.00000000000E+00  0.11931042175E+04  0.11931042175E+04  0.00000000000E+00 0.  1.
         21   -1    0    0  501  502 -0.00000000000E+00 -0.00000000000E+00 -0.40115513631E+02  0.40115513631E+02  0.00000000000E+00 0.  1.
      99926    2    1    2    0    0  0.00000000000E+00 -0.17763568394E-14  0.11529887039E+04  0.12332197312E+04  0.43754765913E+03 0.  0.
      99925    2    3    3    0    0 -0.57697524051E+02  0.15949901545E+02  0.52615277571E+03  0.59122736937E+03  0.26292518946E+03 0.  0.
         25    1    4    4    0    0 -0.24394133312E+01  0.35741671798E+02  0.22563319572E+03  0.26046355782E+03  0.12509000000E+03 0.  0.
         25    1    4    4    0    0 -0.55258110720E+02 -0.19791770253E+02  0.30051957999E+03  0.33076381155E+03  0.12509000000E+03 0.  0.
         25    1    3    3    0    0  0.57697524051E+02 -0.15949901545E+02  0.62683592819E+03  0.64199236180E+03  0.12509000000E+03 0.  0.
<mgrwt>
<rscale>  2 0.43754766E+03</rscale>
<asrwt>0</asrwt>
<pdfrwt beam="1">  1       21 0.17545648E+00 0.43754766E+03</pdfrwt>
<pdfrwt beam="2">  1       21 0.58993410E-02 0.43754766E+03</pdfrwt>
<totfact> 0.35729954E+04</totfact>
</mgrwt>
</event>
<event>
 7    0  0.4709932E-002  0.4585734E+03  0.7546771E-02  0.1025196E+00
         21   -1    0    0  502  501  0.00000000000E+00  0.00000000000E+00  0.80572906455E+03  0.80572906455E+03  0.00000000000E+00 0. -1.
         21   -1    0    0  501  502 -0.00000000000E+00 -0.00000000000E+00 -0.65248227034E+02  0.65248227034E+02  0.00000000000E+00 0. -1.
      99926    2    1    2    0    0  0.00000000000E+00  0.00000000000E+00  0.74048083752E+03  0.87097729158E+03  0.45857340931E+03 0.  0.
      99925    2    3    3    0    0  0.51804549329E+02  0.95172736739E+02  0.38289382149E+03  0.47694995334E+03  0.26292968321E+03 0.  0.
         25    1    3    3    0    0 -0.51804549329E+02 -0.95172736739E+02  0.35758701603E+03  0.39402733824E+03  0.12509000000E+03 0.  0.
         25    1    4    4    0    0  0.10123713340E+01  0.64054421568E+02  0.14696263363E+03  0.20334580793E+03  0.12509000000E+03 0.  0.
         25    1    4    4    0    0  0.50792177995E+02  0.31118315171E+02  0.23593118786E+03  0.27360414542E+03  0.12509000000E+03 0.  0.
<mgrwt>
<rscale>  2 0.45857341E+03</rscale>
<asrwt>0</asrwt>
<pdfrwt beam="1">  1       21 0.11848956E+00 0.45857341E+03</pdfrwt>
<pdfrwt beam="2">  1       21 0.95953280E-02 0.45857341E+03</pdfrwt>
<totfact> 0.43287880E+04</totfact>
</mgrwt>
</event>
<event>
 7    0  0.4709932E-002  0.4738608E+03  0.7546771E-02  0.1020836E+00
         21   -1    0    0  502  501  0.00000000000E+00  0.00000000000E+00  0.12997921380E+03  0.12997921380E+03  0.00000000000E+00 0. -1.
         21   -1    0    0  501  502 -0.00000000000E+00 -0.00000000000E+00 -0.43188461538E+03  0.43188461538E+03  0.00000000000E+00 0. -1.
      99926    2    1    2    0    0 -0.71054273576E-14  0.00000000000E+00 -0.30190540158E+03  0.56186382917E+03  0.47386083509E+03 0.  0.
      99925    2    3    3    0    0 -0.37452218119E+02  0.58753378690E+02 -0.31702586010E+03  0.41788200909E+03  0.26318311001E+03 0.  0.
         25    1    4    4    0    0 -0.43557025950E+02 -0.17574696274E+01 -0.13979850378E+03  0.19259136265E+03  0.12509000000E+03 0.  0.
         25    1    4    4    0    0  0.61048078313E+01  0.60510848318E+02 -0.17722735632E+03  0.22529064643E+03  0.12509000000E+03 0.  0.
         25    1    3    3    0    0  0.37452218119E+02 -0.58753378690E+02  0.15120458524E+02  0.14398182009E+03  0.12509000000E+03 0.  0.
<mgrwt>
<rscale>  2 0.47386084E+03</rscale>
<asrwt>0</asrwt>
<pdfrwt beam="1">  1       21 0.19114591E-01 0.47386084E+03</pdfrwt>
<pdfrwt beam="2">  1       21 0.63512442E-01 0.47386084E+03</pdfrwt>
<totfact> 0.52763842E+04</totfact>
</mgrwt>
</event>
<event>
 7    0  0.4709932E-002  0.4337969E+03  0.7546771E-02  0.1032667E+00
         21   -1    0    0  502  501  0.00000000000E+00  0.00000000000E+00  0.15198477605E+03  0.15198477605E+03  0.00000000000E+00 0. -1.
         21   -1    0    0  501  502 -0.00000000000E+00 -0.00000000000E+00 -0.30953716016E+03  0.30953716016E+03  0.00000000000E+00 0. -1.
      99926    2    1    2    0    0  0.00000000000E+00  0.35527136788E-14 -0.15755238411E+03  0.46152193621E+03  0.43379689241E+03 0.  0.
      99925    2    3    3    0    0  0.28866934018E+02 -0.29886374212E+02 -0.18827498386E+03  0.32617836791E+03  0.26309382909E+03 0.  0.
         25    1    4    4    0    0  0.56987045560E+00 -0.17787747903E+02 -0.14006401177E+03  0.18863235200E+03  0.12509000000E+03 0.  0.
         25    1    3    3    0    0 -0.28866934018E+02  0.29886374212E+02  0.30722599747E+02  0.13534356829E+03  0.12509000000E+03 0.  0.
         25    1    4    4    0    0  0.28297063563E+02 -0.12098626308E+02 -0.48210972090E+02  0.13754601592E+03  0.12509000000E+03 0.  0.
<mgrwt>
<rscale>  2 0.43379689E+03</rscale>
<asrwt>0</asrwt>
<pdfrwt beam="1">  1       21 0.22350703E-01 0.43379689E+03</pdfrwt>
<pdfrwt beam="2">  1       21 0.45520170E-01 0.43379689E+03</pdfrwt>
<totfact> 0.80840763E+04</totfact>
</mgrwt>
</event>
<event>
 7    0  0.4709932E-002  0.4535350E+03  0.7546771E-02  0.1026673E+00
         21   -1    0    0  502  501  0.00000000000E+00  0.00000000000E+00  0.43683883431E+03  0.43683883431E+03  0.00000000000E+00 0. -1.
         21   -1    0    0  501  502 -0.00000000000E+00 -0.00000000000E+00 -0.11771735025E+03  0.11771735025E+03  0.00000000000E+00 0. -1.
      99926    2    1    2    0    0 -0.17763568394E-14  0.00000000000E+00  0.31912148406E+03  0.55455618455E+03  0.45353504852E+03 0.  0.
      99925    2    3    3    0    0  0.85706250496E+01  0.98327984953E+02  0.26523664903E+03  0.38635115554E+03  0.26301119208E+03 0.  0.
         25    1    3    3    0    0 -0.85706250496E+01 -0.98327984953E+02  0.53884835028E+02  0.16820502901E+03  0.12509000000E+03 0.  0.
         25    1    4    4    0    0 -0.25858419474E+01  0.55170271150E+02  0.79972125928E+02  0.15840926243E+03  0.12509000000E+03 0.  0.
         25    1    4    4    0    0  0.11156466997E+02  0.43157713802E+02  0.18526452310E+03  0.22794189312E+03  0.12509000000E+03 0.  0.
<mgrwt>
<rscale>  2 0.45353505E+03</rscale>
<asrwt>0</asrwt>
<pdfrwt beam="1">  1       21 0.64241005E-01 0.45353505E+03</pdfrwt>
<pdfrwt beam="2">  1       21 0.17311375E-01 0.45353505E+03</pdfrwt>
<totfact> 0.62285137E+04</totfact>
</mgrwt>
</event>
<event>
 7    0  0.4709932E-002  0.4520985E+03  0.7546771E-02  0.1027098E+00
         21   -1    0    0  502  501  0.00000000000E+00  0.00000000000E+00  0.51219904200E+03  0.51219904200E+03  0.00000000000E+00 0.  1.
         21   -1    0    0  501  502 -0.00000000000E+00 -0.00000000000E+00 -0.99762510999E+02  0.99762510999E+02  0.00000000000E+00 0.  1.
      99926    2    1    2    0    0  0.17763568394E-14  0.00000000000E+00  0.41243653101E+03  0.61196155300E+03  0.45209849618E+03 0.  0.
      99925    2    3    3    0    0 -0.58410181842E+01 -0.85562432365E+02  0.16596313838E+03  0.32256271282E+03  0.26295986971E+03 0.  0.
         25    1    4    4    0    0  0.29487409932E+02 -0.23232816046E+02  0.97468805345E+02  0.16296302403E+03  0.12509000000E+03 0.  0.
         25    1    4    4    0    0 -0.35328428117E+02 -0.62329616320E+02  0.68494333031E+02  0.15959968879E+03  0.12509000000E+03 0.  0.
         25    1    3    3    0    0  0.58410181842E+01  0.85562432365E+02  0.24647339263E+03  0.28939884018E+03  0.12509000000E+03 0.  0.
<mgrwt>
<rscale>  2 0.45209850E+03</rscale>
<asrwt>0</asrwt>
<pdfrwt beam="1">  1       21 0.75323387E-01 0.45209850E+03</pdfrwt>
<pdfrwt beam="2">  1       21 0.14670958E-01 0.45209850E+03</pdfrwt>
<totfact> 0.59295212E+04</totfact>
</mgrwt>
</event>
<event>
 7    0  0.4709932E-002  0.4532567E+03  0.7546771E-02  0.1026755E+00
         21   -1    0    0  502  501  0.00000000000E+00  0.00000000000E+00  0.80990007638E+03  0.80990007638E+03  0.00000000000E+00 0. -1.
         21   -1    0    0  501  502 -0.00000000000E+00 -0.00000000000E+00 -0.63415748757E+02  0.63415748757E+02  0.00000000000E+00 0. -1.
      99926    2    1    2    0    0  0.00000000000E+00  0.00000000000E+00  0.74648432763E+03  0.87331582514E+03  0.45325674738E+03 0.  0.
      99925    2    3    3    0    0  0.74032530183E+02 -0.59024040742E+02  0.58530418323E+03  0.64839094888E+03  0.26242176506E+03 0.  0.
         25    1    4    4    0    0  0.50925333548E+02 -0.18407874484E+02  0.37776367126E+03  0.40160321072E+03  0.12509000000E+03 0.  0.
         25    1    4    4    0    0  0.23107196635E+02 -0.40616166258E+02  0.20754051197E+03  0.24678773816E+03  0.12509000000E+03 0.  0.
         25    1    3    3    0    0 -0.74032530183E+02  0.59024040742E+02  0.16118014440E+03  0.22492487626E+03  0.12509000000E+03 0.  0.
<mgrwt>
<rscale>  2 0.45325675E+03</rscale>
<asrwt>0</asrwt>
<pdfrwt beam="1">  1       21 0.11910295E+00 0.45325675E+03</pdfrwt>
<pdfrwt beam="2">  1       21 0.93258459E-02 0.45325675E+03</pdfrwt>
<totfact> 0.45019134E+04</totfact>
</mgrwt>
</event>
<event>
 7    0  0.4709932E-002  0.4620524E+03  0.7546771E-02  0.1024188E+00
         21   -1    0    0  502  501  0.00000000000E+00  0.00000000000E+00  0.55307003675E+02  0.55307003675E+02  0.00000000000E+00 0. -1.
         21   -1    0    0  501  502 -0.00000000000E+00 -0.00000000000E+00 -0.96503345205E+03  0.96503345205E+03  0.00000000000E+00 0. -1.
      99926    2    1    2    0    0  0.00000000000E+00  0.00000000000E+00 -0.90972644838E+03  0.10203404557E+04  0.46205241555E+03 0.  0.
      99925    2    3    3    0    0 -0.99989538685E+02  0.57976337498E+02 -0.63878322048E+03  0.70031404369E+03  0.26274815598E+03 0.  0.
         25    1    4    4    0    0 -0.17051785143E+02  0.26244848449E+02 -0.35546920065E+03  0.37813412456E+03  0.12509000000E+03 0.  0.
         25    1    3    3    0    0  0.99989538685E+02 -0.57976337498E+02 -0.27094322790E+03  0.32002641203E+03  0.12509000000E+03 0.  0.
         25    1    4    4    0    0 -0.82937753542E+02  0.31731489049E+02 -0.28331401983E+03  0.32217991913E+03  0.12509000000E+03 0.  0.
<mgrwt>
<rscale>  2 0.46205242E+03</rscale>
<asrwt>0</asrwt>
<pdfrwt beam="1">  1       21 0.81333835E-02 0.46205242E+03</pdfrwt>
<pdfrwt beam="2">  1       21 0.14191667E+00 0.46205242E+03</pdfrwt>
<totfact> 0.36342067E+04</totfact>
</mgrwt>
</event>
<event>
 7    0  0.4709932E-002  0.4548714E+03  0.7546771E-02  0.1026279E+00
         21   -1    0    0  502  501  0.00000000000E+00  0.00000000000E+00  0.53810224450E+02  0.53810224450E+02  0.00000000000E+00 0.  1.
         21   -1    0    0  501  502 -0.00000000000E+00 -0.00000000000E+00 -0.96128562360E+03  0.96128562360E+03  0.00000000000E+00 0.  1.
      99926    2    1    2    0    0  0.00000000000E+00  0.00000000000E+00 -0.90747539915E+03  0.10150958480E+04  0.45487138915E+03 0.  0.
      99925    2    3    3    0    0  0.45816933321E+02  0.66063273698E+02 -0.39385179290E+03  0.48038072342E+03  0.26302634308E+03 0.  0.
         25    1    3    3    0    0 -0.45816933321E+02 -0.66063273698E+02 -0.51362360625E+03  0.53471512463E+03  0.12509000000E+03 0.  0.
         25    1    4    4    0    0 -0.18097059597E+02  0.27879349721E+02 -0.18134881159E+03  0.22279959891E+03  0.12509000000E+03 0.  0.
         25    1    4    4    0    0  0.63913992917E+02  0.38183923977E+02 -0.21250298130E+03  0.25758112451E+03  0.12509000000E+03 0.  0.
<mgrwt>
<rscale>  2 0.45487139E+03</rscale>
<asrwt>0</asrwt>
<pdfrwt beam="1">  1       21 0.79132684E-02 0.45487139E+03</pdfrwt>
<pdfrwt beam="2">  1       21 0.14136553E+00 0.45487139E+03</pdfrwt>
<totfact> 0.38623475E+04</totfact>
</mgrwt>
</event>
<event>
 7    0  0.4709932E-002  0.4914328E+03  0.7546771E-02  0.1016040E+00
         21   -1    0    0  502  501  0.00000000000E+00  0.00000000000E+00  0.10040245466E+04  0.10040245466E+04  0.00000000000E+00 0.  1.
         21   -1    0    0  501  502 -0.00000000000E+00 -0.00000000000E+00 -0.60134543611E+02  0.60134543611E+02  0.00000000000E+00 0.  1.
      99926    2    1    2    0    0  0.00000000000E+00 -0.14210854715E-13  0.94389000300E+03  0.10641590902E+04  0.49143283522E+03 0.  0.
      99925    2    3    3    0    0 -0.26684777630E+02 -0.96365193514E+02  0.34983955285E+03  0.44890160486E+03  0.26291939872E+03 0.  0.
         25    1    4    4    0    0 -0.46763881912E+02 -0.26325120238E+02  0.15739244168E+03  0.20808594716E+03  0.12509000000E+03 0.  0.
         25    1    3    3    0    0  0.26684777630E+02  0.96365193514E+02  0.59405045014E+03  0.61525748536E+03  0.12509000000E+03 0.  0.
         25    1    4    4    0    0  0.20079104282E+02 -0.70040073276E+02  0.19244711118E+03  0.24081565770E+03  0.12509000000E+03 0.  0.
<mgrwt>
<rscale>  2 0.49143284E+03</rscale>
<asrwt>0</asrwt>
<pdfrwt beam="1">  1       21 0.14765066E+00 0.49143284E+03</pdfrwt>
<pdfrwt beam="2">  1       21 0.88433159E-02 0.49143284E+03</pdfrwt>
<totfact> 0.27932995E+04</totfact>
</mgrwt>
</event>
<event>
 7    0  0.4709932E-002  0.4530812E+03  0.7546771E-02  0.1026807E+00
         21   -1    0    0  502  501  0.00000000000E+00  0.00000000000E+00  0.39614709414E+03  0.39614709414E+03  0.00000000000E+00 0.  1.
         21   -1    0    0  501  502 -0.00000000000E+00 -0.00000000000E+00 -0.12954946116E+03  0.12954946116E+03  0.00000000000E+00 0.  1.
      99926    2    1    2    0    0  0.00000000000E+00  0.00000000000E+00  0.26659763299E+03  0.52569655530E+03  0.45308119619E+03 0.  0.
      99925    2    3    3    0    0 -0.44238061336E+01  0.10098006678E+03  0.11413432635E+03  0.30409079744E+03  0.26311219031E+03 0.  0.
         25    1    4    4    0    0 -0.42203312678E+02  0.45920583474E+02  0.49807416627E+02  0.14838499398E+03  0.12509000000E+03 0.  0.
         25    1    4    4    0    0  0.37779506545E+02  0.55059483303E+02  0.64326909725E+02  0.15570580346E+03  0.12509000000E+03 0.  0.
         25    1    3    3    0    0  0.44238061336E+01 -0.10098006678E+03  0.15246330663E+03  0.22160575786E+03  0.12509000000E+03 0.  0.
<mgrwt>
<rscale>  2 0.45308120E+03</rscale>
<asrwt>0</asrwt>
<pdfrwt beam="1">  1       21 0.58256925E-01 0.45308120E+03</pdfrwt>
<pdfrwt beam="2">  1       21 0.19051391E-01 0.45308120E+03</pdfrwt>
<totfact> 0.64473870E+04</totfact>
</mgrwt>
</event>
<event>
 7    0  0.4709932E-002  0.4391996E+03  0.7546771E-02  0.1030993E+00
         21   -1    0    0  502  501  0.00000000000E+00  0.00000000000E+00  0.52861694869E+03  0.52861694869E+03  0.00000000000E+00 0.  1.
         21   -1    0    0  501  502 -0.00000000000E+00 -0.00000000000E+00 -0.91226884494E+02  0.91226884494E+02  0.00000000000E+00 0.  1.
      99926    2    1    2    0    0  0.00000000000E+00  0.00000000000E+00  0.43739006420E+03  0.61984383319E+03  0.43919962350E+03 0.  0.
      99925    2    3    3    0    0 -0.92282608523E+02  0.31426491070E+02  0.28450136228E+03  0.39955727561E+03  0.26306137530E+03 0.  0.
         25    1    3    3    0    0  0.92282608523E+02 -0.31426491070E+02  0.15288870191E+03  0.22028655758E+03  0.12509000000E+03 0.  0.
         25    1    4    4    0    0 -0.60387232632E+02  0.54013264056E+01  0.19827685009E+03  0.24215079924E+03  0.12509000000E+03 0.  0.
         25    1    4    4    0    0 -0.31895375891E+02  0.26025164664E+02  0.86224512196E+02  0.15740647637E+03  0.12509000000E+03 0.  0.
<mgrwt>
<rscale>  2 0.43919962E+03</rscale>
<asrwt>0</asrwt>
<pdfrwt beam="1">  1       21 0.77737786E-01 0.43919962E+03</pdfrwt>
<pdfrwt beam="2">  1       21 0.13415718E-01 0.43919962E+03</pdfrwt>
<totfact> 0.65239060E+04</totfact>
</mgrwt>
</event>
<event>
 7    0  0.4709932E-002  0.4526129E+03  0.7546771E-02  0.1026946E+00
         21   -1    0    0  502  501  0.00000000000E+00  0.00000000000E+00  0.19326710231E+03  0.19326710231E+03  0.00000000000E+00 0.  1.
         21   -1    0    0  501  502 -0.00000000000E+00 -0.00000000000E+00 -0.26499397644E+03  0.26499397644E+03  0.00000000000E+00 0.  1.
      99926    2    1    2    0    0  0.00000000000E+00  0.00000000000E+00 -0.71726874131E+02  0.45826107876E+03  0.45261293820E+03 0.  0.
      99925    2    3    3    0    0 -0.41740754544E+02  0.58895190064E+02  0.40037059606E+02  0.27564229827E+03  0.26299197031E+03 0.  0.
         25    1    4    4    0    0  0.65492297055E+01  0.58618157388E+02  0.27133779355E+02  0.14093520095E+03  0.12509000000E+03 0.  0.
         25    1    4    4    0    0 -0.48289984250E+02  0.27703267610E+00  0.12903280251E+02  0.13470709732E+03  0.12509000000E+03 0.  0.
         25    1    3    3    0    0  0.41740754544E+02 -0.58895190064E+02 -0.11176393374E+03  0.18261878049E+03  0.12509000000E+03 0.  0.
<mgrwt>
<rscale>  2 0.45261294E+03</rscale>
<asrwt>0</asrwt>
<pdfrwt beam="1">  1       21 0.28421633E-01 0.45261294E+03</pdfrwt>
<pdfrwt beam="2">  1       21 0.38969702E-01 0.45261294E+03</pdfrwt>
<totfact> 0.69623377E+04</totfact>
</mgrwt>
</event>
<event>
 7    0  0.4709932E-002  0.4602070E+03  0.7546771E-02  0.1024721E+00
         21   -1    0    0  502  501  0.00000000000E+00  0.00000000000E+00  0.17663679944E+03  0.17663679944E+03  0.00000000000E+00 0.  1.
         21   -1    0    0  501  502 -0.00000000000E+00 -0.00000000000E+00 -0.29975413384E+03  0.29975413384E+03  0.00000000000E+00 0.  1.
      99926    2    1    2    0    0 -0.14210854715E-13 -0.17763568394E-14 -0.12311733439E+03  0.47639093328E+03  0.46020695701E+03 0.  0.
      99925    2    3    3    0    0 -0.82770354444E+02 -0.94255876860E+01  0.93778117353E+01  0.27603563606E+03  0.26299801471E+03 0.  0.
         25    1    3    3    0    0  0.82770354444E+02  0.94255876860E+01 -0.13249514613E+03  0.20035529722E+03  0.12509000000E+03 0.  0.
         25    1    4    4    0    0 -0.62959701986E+02 -0.19426661033E+02 -0.26891436174E+02  0.14391656149E+03  0.12509000000E+03 0.  0.
         25    1    4    4    0    0 -0.19810652458E+02  0.10001073347E+02  0.36269247909E+02  0.13211907456E+03  0.12509000000E+03 0.  0.
<mgrwt>
<rscale>  2 0.46020696E+03</rscale>
<asrwt>0</asrwt>
<pdfrwt beam="1">  1       21 0.25976000E-01 0.46020696E+03</pdfrwt>
<pdfrwt beam="2">  1       21 0.44081490E-01 0.46020696E+03</pdfrwt>
<totfact> 0.64267113E+04</totfact>
</mgrwt>
</event>
<event>
 7    0  0.4709932E-002  0.4523426E+03  0.7546771E-02  0.1027026E+00
         21   -1    0    0  502  501  0.00000000000E+00  0.00000000000E+00  0.25046946778E+03  0.25046946778E+03  0.00000000000E+00 0. -1.
         21   -1    0    0  501  502 -0.00000000000E+00 -0.00000000000E+00 -0.20423026763E+03  0.20423026763E+03  0.00000000000E+00 0. -1.
      99926    2    1    2    0    0  0.00000000000E+00  0.00000000000E+00  0.46239200155E+02  0.45469973541E+03  0.45234255355E+03 0.  0.
      99925    2    3    3    0    0  0.67626433032E+02  0.73322642296E+02 -0.18955736572E+02  0.28193564136E+03  0.26301870960E+03 0.  0.
         25    1    4    4    0    0  0.86209031032E+01  0.66891825528E+02  0.52122213228E+00  0.14211479890E+03  0.12509000000E+03 0.  0.
         25    1    3    3    0    0 -0.67626433032E+02 -0.73322642296E+02  0.65194936727E+02  0.17276409405E+03  0.12509000000E+03 0.  0.
         25    1    4    4    0    0  0.59005529929E+02  0.64308167679E+01 -0.19476958704E+02  0.13982084246E+03  0.12509000000E+03 0.  0.
<mgrwt>
<rscale>  2 0.45234255E+03</rscale>
<asrwt>0</asrwt>
<pdfrwt beam="1">  1       21 0.36833745E-01 0.45234255E+03</pdfrwt>
<pdfrwt beam="2">  1       21 0.30033863E-01 0.45234255E+03</pdfrwt>
<totfact> 0.70041088E+04</totfact>
</mgrwt>
</event>
<event>
 7    0  0.4709932E-002  0.4539459E+03  0.7546771E-02  0.1026552E+00
         21   -1    0    0  502  501  0.00000000000E+00  0.00000000000E+00  0.70871347398E+03  0.70871347398E+03  0.00000000000E+00 0. -1.
         21   -1    0    0  501  502 -0.00000000000E+00 -0.00000000000E+00 -0.72690463029E+02  0.72690463029E+02  0.00000000000E+00 0. -1.
      99926    2    1    2    0    0  0.00000000000E+00  0.00000000000E+00  0.63602301095E+03  0.78140393701E+03  0.45394585835E+03 0.  0.
      99925    2    3    3    0    0  0.34767565550E+02  0.95736483827E+02  0.32107146710E+03  0.42754486757E+03  0.26331249277E+03 0.  0.
         25    1    3    3    0    0 -0.34767565550E+02 -0.95736483827E+02  0.31495154385E+03  0.35385906944E+03  0.12509000000E+03 0.  0.
         25    1    4    4    0    0  0.28456895961E+01  0.82670019456E+02  0.20079533129E+03  0.25061664596E+03  0.12509000000E+03 0.  0.
         25    1    4    4    0    0  0.31921875954E+02  0.13066464371E+02  0.12027613581E+03  0.17692822161E+03  0.12509000000E+03 0.  0.
<mgrwt>
<rscale>  2 0.45394586E+03</rscale>
<asrwt>0</asrwt>
<pdfrwt beam="1">  1       21 0.10422257E+00 0.45394586E+03</pdfrwt>
<pdfrwt beam="2">  1       21 0.10689774E-01 0.45394586E+03</pdfrwt>
<totfact> 0.49082324E+04</totfact>
</mgrwt>
</event>
<event>
 7    0  0.4709932E-002  0.4557602E+03  0.7546771E-02  0.1026018E+00
         21   -1    0    0  502  501  0.00000000000E+00  0.00000000000E+00  0.88864250233E+02  0.88864250233E+02  0.00000000000E+00 0.  1.
         21   -1    0    0  501  502 -0.00000000000E+00 -0.00000000000E+00 -0.58436705029E+03  0.58436705029E+03  0.00000000000E+00 0.  1.
      99926    2    1    2    0    0  0.00000000000E+00  0.00000000000E+00 -0.49550280006E+03  0.67323130052E+03  0.45576019916E+03 0.  0.
      99925    2    3    3    0    0 -0.22217213134E+02 -0.67433128700E+01 -0.14674295237E+03  0.30199011707E+03  0.26291721114E+03 0.  0.
         25    1    3    3    0    0  0.22217213134E+02  0.67433128700E+01 -0.34875984769E+03  0.37124118345E+03  0.12509000000E+03 0.  0.
         25    1    4    4    0    0 -0.93500813663E+01  0.41989996677E+01 -0.11856842289E+03  0.17265872299E+03  0.12509000000E+03 0.  0.
         25    1    4    4    0    0 -0.12867131767E+02 -0.10942312538E+02 -0.28174529480E+02  0.12933139408E+03  0.12509000000E+03 0.  0.
<mgrwt>
<rscale>  2 0.45576020E+03</rscale>
<asrwt>0</asrwt>
<pdfrwt beam="1">  1       21 0.13068272E-01 0.45576020E+03</pdfrwt>
<pdfrwt beam="2">  1       21 0.85936329E-01 0.45576020E+03</pdfrwt>
<totfact> 0.54056204E+04</totfact>
</mgrwt>
</event>
<event>
 7    0  0.4709932E-002  0.4378592E+03  0.7546771E-02  0.1031406E+00
         21   -1    0    0  502  501  0.00000000000E+00  0.00000000000E+00  0.89562838688E+03  0.89562838688E+03  0.00000000000E+00 0. -1.
         21   -1    0    0  501  502 -0.00000000000E+00 -0.00000000000E+00 -0.53515694002E+02  0.53515694002E+02  0.00000000000E+00 0. -1.
      99926    2    1    2    0    0  0.00000000000E+00  0.00000000000E+00  0.84211269287E+03  0.94914408088E+03  0.43785922254E+03 0.  0.
      99925    2    3    3    0    0 -0.31858912103E+02 -0.61047264663E+02  0.68427377582E+03  0.73630049831E+03  0.26299441959E+03 0.  0.
         25    1    4    4    0    0 -0.31713220586E+02 -0.39522057947E+02  0.25314735467E+03  0.28687769642E+03  0.12509000000E+03 0.  0.
         25    1    3    3    0    0  0.31858912103E+02  0.61047264663E+02  0.15783891706E+03  0.21284358257E+03  0.12509000000E+03 0.  0.
         25    1    4    4    0    0 -0.14569151690E+00 -0.21525206716E+02  0.43112642115E+03  0.44942280189E+03  0.12509000000E+03 0.  0.
<mgrwt>
<rscale>  2 0.43785922E+03</rscale>
<asrwt>0</asrwt>
<pdfrwt beam="1">  1       21 0.13171005E+00 0.43785922E+03</pdfrwt>
<pdfrwt beam="2">  1       21 0.78699555E-02 0.43785922E+03</pdfrwt>
<totfact> 0.47190236E+04</totfact>
</mgrwt>
</event>
<event>
 7    0  0.4709932E-002  0.4600724E+03  0.7546771E-02  0.1024760E+00
         21   -1    0    0  502  501  0.00000000000E+00  0.00000000000E+00  0.55491386692E+03  0.55491386692E+03  0.00000000000E+00 0. -1.
         21   -1    0    0  501  502 -0.00000000000E+00 -0.00000000000E+00 -0.95360138788E+02  0.95360138788E+02  0.00000000000E+00 0. -1.
      99926    2    1    2    0    0  0.00000000000E+00  0.00000000000E+00  0.45955372814E+03  0.65027400571E+03  0.46007244371E+03 0.  0.
      99925    2    3    3    0    0  0.34522116827E+02 -0.81931276448E+02  0.17803280838E+03  0.32964018502E+03  0.26279737463E+03 0.  0.
         25    1    3    3    0    0 -0.34522116827E+02  0.81931276448E+02  0.28152091975E+03  0.32063382069E+03  0.12509000000E+03 0.  0.
         25    1    4    4    0    0  0.27647791187E+02 -0.33981377572E+02  0.13395472724E+03  0.18844232919E+03  0.12509000000E+03 0.  0.
         25    1    4    4    0    0  0.68743256402E+01 -0.47949898876E+02  0.44078081139E+02  0.14119785583E+03  0.12509000000E+03 0.  0.
<mgrwt>
<rscale>  2 0.46007244E+03</rscale>
<asrwt>0</asrwt>
<pdfrwt beam="1">  1       21 0.81604979E-01 0.46007244E+03</pdfrwt>
<pdfrwt beam="2">  1       21 0.14023550E-01 0.46007244E+03</pdfrwt>
<totfact> 0.53511918E+04</totfact>
</mgrwt>
</event>
<event>
 7    0  0.4709932E-002  0.4359330E+03  0.7546771E-02  0.1032002E+00
         21   -1    0    0  502  501  0.00000000000E+00  0.00000000000E+00  0.82033569428E+03  0.82033569428E+03  0.00000000000E+00 0. -1.
         21   -1    0    0  501  502 -0.00000000000E+00 -0.00000000000E+00 -0.57914571974E+02  0.57914571974E+02  0.00000000000E+00 0. -1.
      99926    2    1    2    0    0  0.00000000000E+00  0.00000000000E+00  0.76242112231E+03  0.87825026626E+03  0.43593297930E+03 0.  0.
      99925    2    3    3    0    0 -0.21047240951E+02 -0.23847368227E+02  0.30959961229E+03  0.40739305716E+03  0.26287924941E+03 0.  0.
         25    1    3    3    0    0  0.21047240951E+02  0.23847368227E+02  0.45282151002E+03  0.47085720910E+03  0.12509000000E+03 0.  0.
         25    1    4    4    0    0  0.16365262787E+02 -0.28815968943E+01  0.10694978284E+03  0.16541429677E+03  0.12509000000E+03 0.  0.
         25    1    4    4    0    0 -0.37412503738E+02 -0.20965771333E+02  0.20264982945E+03  0.24197876039E+03  0.12509000000E+03 0.  0.
<mgrwt>
<rscale>  2 0.43593298E+03</rscale>
<asrwt>0</asrwt>
<pdfrwt beam="1">  1       21 0.12063760E+00 0.43593298E+03</pdfrwt>
<pdfrwt beam="2">  1       21 0.85168493E-02 0.43593298E+03</pdfrwt>
<totfact> 0.51448934E+04</totfact>
</mgrwt>
</event>
<event>
 7    0  0.4709932E-002  0.4554468E+03  0.7546771E-02  0.1026110E+00
         21   -1    0    0  502  501  0.00000000000E+00  0.00000000000E+00  0.92582556770E+02  0.92582556770E+02  0.00000000000E+00 0. -1.
         21   -1    0    0  501  502 -0.00000000000E+00 -0.00000000000E+00 -0.56012651678E+03  0.56012651678E+03  0.00000000000E+00 0. -1.
      99926    2    1    2    0    0 -0.35527136788E-14  0.00000000000E+00 -0.46754396001E+03  0.65270907355E+03  0.45544679179E+03 0.  0.
      99925    2    3    3    0    0 -0.27826526572E+02  0.11014489749E+03 -0.28688860636E+03  0.40534278861E+03  0.26285260088E+03 0.  0.
         25    1    4    4    0    0 -0.41055798005E+02  0.88646701785E+02 -0.15646269509E+03  0.22287193484E+03  0.12509000000E+03 0.  0.
         25    1    3    3    0    0  0.27826526572E+02 -0.11014489749E+03 -0.18065535365E+03  0.24736628495E+03  0.12509000000E+03 0.  0.
         25    1    4    4    0    0  0.13229271433E+02  0.21498195708E+02 -0.13042591127E+03  0.18247085376E+03  0.12509000000E+03 0.  0.
<mgrwt>
<rscale>  2 0.45544679E+03</rscale>
<asrwt>0</asrwt>
<pdfrwt beam="1">  1       21 0.13615081E-01 0.45544679E+03</pdfrwt>
<pdfrwt beam="2">  1       21 0.82371549E-01 0.45544679E+03</pdfrwt>
<totfact> 0.55350356E+04</totfact>
</mgrwt>
</event>
<event>
 7    0  0.4709932E-002  0.4597582E+03  0.7546771E-02  0.1024851E+00
         21   -1    0    0  502  501  0.00000000000E+00  0.00000000000E+00  0.87932997605E+03  0.87932997605E+03  0.00000000000E+00 0.  1.
         21   -1    0    0  501  502 -0.00000000000E+00 -0.00000000000E+00 -0.60096212518E+02  0.60096212518E+02  0.00000000000E+00 0.  1.
      99926    2    1    2    0    0  0.00000000000E+00  0.14210854715E-13  0.81923376354E+03  0.93942618857E+03  0.45975820217E+03 0.  0.
      99925    2    3    3    0    0 -0.54834758015E+02 -0.87347293701E+02  0.62869183408E+03  0.68924598275E+03  0.26300228535E+03 0.  0.
         25    1    3    3    0    0  0.54834758015E+02  0.87347293701E+02  0.19054192945E+03  0.25018020582E+03  0.12509000000E+03 0.  0.
         25    1    4    4    0    0 -0.29266235960E+02 -0.86217862559E+02  0.33521803414E+03  0.36920004185E+03  0.12509000000E+03 0.  0.
         25    1    4    4    0    0 -0.25568522055E+02 -0.11294311417E+01  0.29347379994E+03  0.32004594090E+03  0.12509000000E+03 0.  0.
<mgrwt>
<rscale>  2 0.45975820E+03</rscale>
<asrwt>0</asrwt>
<pdfrwt beam="1">  1       21 0.12931322E+00 0.45975820E+03</pdfrwt>
<pdfrwt beam="2">  1       21 0.88376789E-02 0.45975820E+03</pdfrwt>
<totfact> 0.40060293E+04</totfact>
</mgrwt>
</event>
<event>
 7    0  0.4709932E-002  0.4601014E+03  0.7546771E-02  0.1024752E+00
         21   -1    0    0  502  501  0.00000000000E+00  0.00000000000E+00  0.93308963203E+03  0.93308963203E+03  0.00000000000E+00 0. -1.
         21   -1    0    0  501  502 -0.00000000000E+00 -0.00000000000E+00 -0.56718381536E+02  0.56718381536E+02  0.00000000000E+00 0. -1.
      99926    2    1    2    0    0  0.00000000000E+00  0.00000000000E+00  0.87637125049E+03  0.98980801356E+03  0.46010143993E+03 0.  0.
      99925    2    3    3    0    0  0.64671782264E+02  0.63034999404E+02  0.71201767681E+03  0.76438517565E+03  0.26298226954E+03 0.  0.
         25    1    3    3    0    0 -0.64671782264E+02 -0.63034999404E+02  0.16435357368E+03  0.22542283791E+03  0.12509000000E+03 0.  0.
         25    1    4    4    0    0  0.24678150591E+02  0.91516270823E+00  0.40761519221E+03  0.42709191243E+03  0.12509000000E+03 0.  0.
         25    1    4    4    0    0  0.39993631673E+02  0.62119836696E+02  0.30440248460E+03  0.33729326322E+03  0.12509000000E+03 0.  0.
<mgrwt>
<rscale>  2 0.46010144E+03</rscale>
<asrwt>0</asrwt>
<pdfrwt beam="1">  1       21 0.13721905E+00 0.46010144E+03</pdfrwt>
<pdfrwt beam="2">  1       21 0.83409390E-02 0.46010144E+03</pdfrwt>
<totfact> 0.38027472E+04</totfact>
</mgrwt>
</event>
<event>
 7    0  0.4709932E-002  0.4412515E+03  0.7546771E-02  0.1030364E+00
         21   -1    0    0  502  501  0.00000000000E+00  0.00000000000E+00  0.93080808875E+02  0.93080808875E+02  0.00000000000E+00 0. -1.
         21   -1    0    0  501  502 -0.00000000000E+00 -0.00000000000E+00 -0.52294044973E+03  0.52294044973E+03  0.00000000000E+00 0. -1.
      99926    2    1    2    0    0 -0.35527136788E-14  0.00000000000E+00 -0.42985964085E+03  0.61602125861E+03  0.44125149316E+03 0.  0.
      99925    2    3    3    0    0  0.16337253449E+02 -0.68838948363E+02 -0.17666313389E+03  0.32488265604E+03  0.26331192654E+03 0.  0.
         25    1    4    4    0    0  0.35917610702E+02 -0.40042250691E+02 -0.54707802805E+02  0.14674436407E+03  0.12509000000E+03 0.  0.
         25    1    3    3    0    0 -0.16337253449E+02  0.68838948363E+02 -0.25319650697E+03  0.29113860256E+03  0.12509000000E+03 0.  0.
         25    1    4    4    0    0 -0.19580357252E+02 -0.28796697672E+02 -0.12195533108E+03  0.17813829197E+03  0.12509000000E+03 0.  0.
<mgrwt>
<rscale>  2 0.44125149E+03</rscale>
<asrwt>0</asrwt>
<pdfrwt beam="1">  1       21 0.13688354E-01 0.44125149E+03</pdfrwt>
<pdfrwt beam="2">  1       21 0.76903007E-01 0.44125149E+03</pdfrwt>
<totfact> 0.64416765E+04</totfact>
</mgrwt>
</event>
<event>
 7    0  0.4709932E-002  0.4431425E+03  0.7546771E-02  0.1029787E+00
         21   -1    0    0  502  501  0.00000000000E+00  0.00000000000E+00  0.66381278322E+03  0.66381278322E+03  0.00000000000E+00 0. -1.
         21   -1    0    0  501  502 -0.00000000000E+00 -0.00000000000E+00 -0.73957326642E+02  0.73957326642E+02  0.00000000000E+00 0. -1.
      99926    2    1    2    0    0  0.00000000000E+00  0.00000000000E+00  0.58985545658E+03  0.73777010986E+03  0.44314250005E+03 0.  0.
      99925    2    3    3    0    0  0.53105109002E+02 -0.13856972028E+02  0.23397806539E+03  0.35657672858E+03  0.26341803280E+03 0.  0.
         25    1    4    4    0    0  0.36661500782E+01  0.42343622055E+01  0.15605703070E+03  0.20008167185E+03  0.12509000000E+03 0.  0.
         25    1    4    4    0    0  0.49438958924E+02 -0.18091334234E+02  0.77921034697E+02  0.15649505673E+03  0.12509000000E+03 0.  0.
         25    1    3    3    0    0 -0.53105109002E+02  0.13856972028E+02  0.35587739118E+03  0.38119338128E+03  0.12509000000E+03 0.  0.
<mgrwt>
<rscale>  2 0.44314250E+03</rscale>
<asrwt>0</asrwt>
<pdfrwt beam="1">  1       21 0.97619524E-01 0.44314250E+03</pdfrwt>
<pdfrwt beam="2">  1       21 0.10876078E-01 0.44314250E+03</pdfrwt>
<totfact> 0.55934599E+04</totfact>
</mgrwt>
</event>
<event>
 7    0  0.4709932E-002  0.4554153E+03  0.7546771E-02  0.1026119E+00
         21   -1    0    0  502  501  0.00000000000E+00  0.00000000000E+00  0.24649397560E+03  0.24649397560E+03  0.00000000000E+00 0. -1.
         21   -1    0    0  501  502 -0.00000000000E+00 -0.00000000000E+00 -0.21035312968E+03  0.21035312968E+03  0.00000000000E+00 0. -1.
      99926    2    1    2    0    0  0.00000000000E+00  0.00000000000E+00  0.36140845913E+02  0.45684710528E+03  0.45541532348E+03 0.  0.
      99925    2    3    3    0    0  0.39717799677E+02  0.33905856982E+02 -0.78387121084E+02  0.27938929600E+03  0.26303369978E+03 0.  0.
         25    1    4    4    0    0  0.14331709793E+02  0.21321596428E+02  0.25530257456E+01  0.12772640455E+03  0.12509000000E+03 0.  0.
         25    1    3    3    0    0 -0.39717799677E+02 -0.33905856982E+02  0.11452796700E+03  0.17745780928E+03  0.12509000000E+03 0.  0.
         25    1    4    4    0    0  0.25386089885E+02  0.12584260554E+02 -0.80940146830E+02  0.15166289145E+03  0.12509000000E+03 0.  0.
<mgrwt>
<rscale>  2 0.45541532E+03</rscale>
<asrwt>0</asrwt>
<pdfrwt beam="1">  1       21 0.36249114E-01 0.45541532E+03</pdfrwt>
<pdfrwt beam="2">  1       21 0.30934284E-01 0.45541532E+03</pdfrwt>
<totfact> 0.68184493E+04</totfact>
</mgrwt>
</event>
<event>
 7    0  0.4709932E-002  0.4558037E+03  0.7546771E-02  0.1026005E+00
         21   -1    0    0  502  501  0.00000000000E+00  0.00000000000E+00  0.21812247528E+03  0.21812247528E+03  0.00000000000E+00 0. -1.
         21   -1    0    0  501  502 -0.00000000000E+00 -0.00000000000E+00 -0.23811971454E+03  0.23811971454E+03  0.00000000000E+00 0. -1.
      99926    2    1    2    0    0  0.00000000000E+00  0.00000000000E+00 -0.19997239258E+02  0.45624218983E+03  0.45580373649E+03 0.  0.
      99925    2    3    3    0    0  0.82348312586E+02 -0.78583849531E+02 -0.61650570042E+01  0.28654981122E+03  0.26289944919E+03 0.  0.
         25    1    3    3    0    0 -0.82348312586E+02  0.78583849531E+02 -0.13832182254E+02  0.16969237861E+03  0.12509000000E+03 0.  0.
         25    1    4    4    0    0  0.33703622083E+02 -0.56511726126E+02  0.32728778692E+02  0.14507994481E+03  0.12509000000E+03 0.  0.
         25    1    4    4    0    0  0.48644690503E+02 -0.22072123405E+02 -0.38893835697E+02  0.14146986641E+03  0.12509000000E+03 0.  0.
<mgrwt>
<rscale>  2 0.45580374E+03</rscale>
<asrwt>0</asrwt>
<pdfrwt beam="1">  1       21 0.32076835E-01 0.45580374E+03</pdfrwt>
<pdfrwt beam="2">  1       21 0.35017605E-01 0.45580374E+03</pdfrwt>
<totfact> 0.68017669E+04</totfact>
</mgrwt>
</event>
<event>
 7    0  0.4709932E-002  0.4500269E+03  0.7546771E-02  0.1027714E+00
         21   -1    0    0  502  501  0.00000000000E+00  0.00000000000E+00  0.15854746698E+04  0.15854746698E+04  0.00000000000E+00 0.  1.
         21   -1    0    0  501  502 -0.00000000000E+00 -0.00000000000E+00 -0.31934319139E+02  0.31934319139E+02  0.00000000000E+00 0.  1.
      99926    2    1    2    0    0  0.00000000000E+00 -0.14210854715E-13  0.15535403506E+04  0.16174089889E+04  0.45002690627E+03 0.  0.
      99925    2    3    3    0    0 -0.35837625319E+02  0.98200971898E+02  0.10847252154E+04  0.11210594091E+04  0.26309245428E+03 0.  0.
         25    1    4    4    0    0 -0.40969897360E+02  0.18296742225E+02  0.57356561587E+03  0.58875999106E+03  0.12509000000E+03 0.  0.
         25    1    3    3    0    0  0.35837625319E+02 -0.98200971898E+02  0.46881513521E+03  0.49634957980E+03  0.12509000000E+03 0.  0.
         25    1    4    4    0    0  0.51322720412E+01  0.79904229673E+02  0.51115959955E+03  0.53229941804E+03  0.12509000000E+03 0.  0.
<mgrwt>
<rscale>  2 0.45002691E+03</rscale>
<asrwt>0</asrwt>
<pdfrwt beam="1">  1       21 0.23315799E+00 0.45002691E+03</pdfrwt>
<pdfrwt beam="2">  1       21 0.46962245E-02 0.45002691E+03</pdfrwt>
<totfact> 0.21871696E+04</totfact>
</mgrwt>
</event>
<event>
 7    0  0.4709932E-002  0.4550106E+03  0.7546771E-02  0.1026238E+00
         21   -1    0    0  502  501  0.00000000000E+00  0.00000000000E+00  0.42139367581E+02  0.42139367581E+02  0.00000000000E+00 0. -1.
         21   -1    0    0  501  502 -0.00000000000E+00 -0.00000000000E+00 -0.12282735562E+04  0.12282735562E+04  0.00000000000E+00 0. -1.
      99926    2    1    2    0    0 -0.88817841970E-15  0.00000000000E+00 -0.11861341886E+04  0.12704129238E+04  0.45501064108E+03 0.  0.
      99925    2    3    3    0    0  0.48470476957E+01 -0.10408651057E+03 -0.86990495220E+03  0.91473619750E+03  0.26296423634E+03 0.  0.
         25    1    3    3    0    0 -0.48470476957E+01  0.10408651057E+03 -0.31622923640E+03  0.35567672627E+03  0.12509000000E+03 0.  0.
         25    1    4    4    0    0  0.82818293338E+01 -0.56261886740E+02 -0.56901415327E+03  0.58537048381E+03  0.12509000000E+03 0.  0.
         25    1    4    4    0    0 -0.34347816380E+01 -0.47824623831E+02 -0.30089079894E+03  0.32936571369E+03  0.12509000000E+03 0.  0.
<mgrwt>
<rscale>  2 0.45501064E+03</rscale>
<asrwt>0</asrwt>
<pdfrwt beam="1">  1       21 0.61969660E-02 0.45501064E+03</pdfrwt>
<pdfrwt beam="2">  1       21 0.18062846E+00 0.45501064E+03</pdfrwt>
<totfact> 0.29983755E+04</totfact>
</mgrwt>
</event>
<event>
 7    0  0.4709932E-002  0.4541689E+03  0.7546771E-02  0.1026486E+00
         21   -1    0    0  502  501  0.00000000000E+00  0.00000000000E+00  0.13414127482E+03  0.13414127482E+03  0.00000000000E+00 0.  1.
         21   -1    0    0  501  502 -0.00000000000E+00 -0.00000000000E+00 -0.38442571322E+03  0.38442571322E+03  0.00000000000E+00 0.  1.
      99926    2    1    2    0    0  0.00000000000E+00  0.00000000000E+00 -0.25028443840E+03  0.51856698804E+03  0.45416893441E+03 0.  0.
      99925    2    3    3    0    0  0.63251240328E+02  0.34402457227E+02 -0.59081106929E+02  0.27900390547E+03  0.26299877111E+03 0.  0.
         25    1    4    4    0    0  0.25912093713E+02 -0.17212602304E+02 -0.50251743018E+02  0.13834903706E+03  0.12509000000E+03 0.  0.
         25    1    3    3    0    0 -0.63251240328E+02 -0.34402457227E+02 -0.19120333147E+03  0.23956308257E+03  0.12509000000E+03 0.  0.
         25    1    4    4    0    0  0.37339146615E+02  0.51615059532E+02 -0.88293639112E+01  0.14065486841E+03  0.12509000000E+03 0.  0.
<mgrwt>
<rscale>  2 0.45416893E+03</rscale>
<asrwt>0</asrwt>
<pdfrwt beam="1">  1       21 0.19726658E-01 0.45416893E+03</pdfrwt>
<pdfrwt beam="2">  1       21 0.56533193E-01 0.45416893E+03</pdfrwt>
<totfact> 0.64408654E+04</totfact>
</mgrwt>
</event>
<event>
 7    0  0.4709932E-002  0.4023281E+03  0.7546771E-02  0.1042977E+00
         21   -1    0    0  502  501  0.00000000000E+00  0.00000000000E+00  0.79840846178E+03  0.79840846178E+03  0.00000000000E+00 0.  1.
         21   -1    0    0  501  502 -0.00000000000E+00 -0.00000000000E+00 -0.50684551130E+02  0.50684551130E+02  0.00000000000E+00 0.  1.
      99926    2    1    2    0    0  0.00000000000E+00  0.00000000000E+00  0.74772391065E+03  0.84909301291E+03  0.40232809747E+03 0.  0.
      99925    2    3    3    0    0  0.10572086669E+02 -0.48397408383E+02  0.48506320743E+03  0.55397908360E+03  0.26296849947E+03 0.  0.
         25    1    3    3    0    0 -0.10572086669E+02  0.48397408383E+02  0.26266070322E+03  0.29511392930E+03  0.12509000000E+03 0.  0.
         25    1    4    4    0    0  0.60441208149E+01 -0.62139069703E+02  0.28762975966E+03  0.31980647604E+03  0.12509000000E+03 0.  0.
         25    1    4    4    0    0  0.45279658539E+01  0.13741661320E+02  0.19743344777E+03  0.23417260756E+03  0.12509000000E+03 0.  0.
<mgrwt>
<rscale>  2 0.40232810E+03</rscale>
<asrwt>0</asrwt>
<pdfrwt beam="1">  1       21 0.11741300E+00 0.40232810E+03</pdfrwt>
<pdfrwt beam="2">  1       21 0.74536110E-02 0.40232810E+03</pdfrwt>
<totfact> 0.70335933E+04</totfact>
</mgrwt>
</event>
<event>
 7    0  0.4709932E-002  0.4593808E+03  0.7546771E-02  0.1024961E+00
         21   -1    0    0  502  501  0.00000000000E+00  0.00000000000E+00  0.17851631443E+03  0.17851631443E+03  0.00000000000E+00 0.  1.
         21   -1    0    0  501  502 -0.00000000000E+00 -0.00000000000E+00 -0.29553422936E+03  0.29553422936E+03  0.00000000000E+00 0.  1.
      99926    2    1    2    0    0  0.00000000000E+00  0.00000000000E+00 -0.11701791493E+03  0.47405054378E+03  0.45938080679E+03 0.  0.
      99925    2    3    3    0    0 -0.72147775320E+02 -0.78033895502E+02 -0.12448142558E+03  0.30974046369E+03  0.26296185883E+03 0.  0.
         25    1    3    3    0    0  0.72147775320E+02  0.78033895502E+02  0.74635106479E+01  0.16431008010E+03  0.12509000000E+03 0.  0.
         25    1    4    4    0    0 -0.63907376326E+02 -0.43119039220E+02 -0.32798882410E+02  0.15055457177E+03  0.12509000000E+03 0.  0.
         25    1    4    4    0    0 -0.82403989936E+01 -0.34914856282E+02 -0.91682543166E+02  0.15918589192E+03  0.12509000000E+03 0.  0.
<mgrwt>
<rscale>  2 0.45938081E+03</rscale>
<asrwt>0</asrwt>
<pdfrwt beam="1">  1       21 0.26252400E-01 0.45938081E+03</pdfrwt>
<pdfrwt beam="2">  1       21 0.43460916E-01 0.45938081E+03</pdfrwt>
<totfact> 0.64852275E+04</totfact>
</mgrwt>
</event>
<event>
 7    0  0.4709932E-002  0.4548568E+03  0.7546771E-02  0.1026284E+00
         21   -1    0    0  502  501  0.00000000000E+00  0.00000000000E+00  0.11527715135E+04  0.11527715135E+04  0.00000000000E+00 0.  1.
         21   -1    0    0  501  502 -0.00000000000E+00 -0.00000000000E+00 -0.44868974652E+02  0.44868974652E+02  0.00000000000E+00 0.  1.
      99926    2    1    2    0    0 -0.14210854715E-13  0.71054273576E-14  0.11079025389E+04  0.11976404882E+04  0.45485679426E+03 0.  0.
      99925    2    3    3    0    0  0.91551766614E+02 -0.49754978584E+02  0.58194496096E+03  0.64706245944E+03  0.26300685346E+03 0.  0.
         25    1    3    3    0    0 -0.91551766614E+02  0.49754978584E+02  0.52595757793E+03  0.55057802875E+03  0.12509000000E+03 0.  0.
         25    1    4    4    0    0  0.18283953185E+02 -0.41474492480E+02  0.22035551688E+03  0.25740726173E+03  0.12509000000E+03 0.  0.
         25    1    4    4    0    0  0.73267813429E+02 -0.82804861041E+01  0.36158944408E+03  0.38965519771E+03  0.12509000000E+03 0.  0.
<mgrwt>
<rscale>  2 0.45485679E+03</rscale>
<asrwt>0</asrwt>
<pdfrwt beam="1">  1       21 0.16952520E+00 0.45485679E+03</pdfrwt>
<pdfrwt beam="2">  1       21 0.65983794E-02 0.45485679E+03</pdfrwt>
<totfact> 0.32266801E+04</totfact>
</mgrwt>
</event>
<event>
 7    0  0.4709932E-002  0.4562887E+03  0.7546771E-02  0.1025863E+00
         21   -1    0    0  502  501  0.00000000000E+00  0.00000000000E+00  0.32384129652E+03  0.32384129652E+03  0.00000000000E+00 0.  1.
         21   -1    0    0  501  502 -0.00000000000E+00 -0.00000000000E+00 -0.16072640649E+03  0.16072640649E+03  0.00000000000E+00 0.  1.
      99926    2    1    2    0    0 -0.35527136788E-14 -0.71054273576E-14  0.16311489003E+03  0.48456770300E+03  0.45628871501E+03 0.  0.
      99925    2    3    3    0    0 -0.28683153293E+02 -0.55672710425E+02  0.20385364307E+03  0.33886482703E+03  0.26334556999E+03 0.  0.
         25    1    3    3    0    0  0.28683153293E+02  0.55672710425E+02 -0.40738753034E+02  0.14570287598E+03  0.12509000000E+03 0.  0.
         25    1    4    4    0    0  0.16241623853E+02  0.10582034036E+01  0.97613369425E+02  0.15950168692E+03  0.12509000000E+03 0.  0.
         25    1    4    4    0    0 -0.44924777145E+02 -0.56730913829E+02  0.10624027364E+03  0.17936314011E+03  0.12509000000E+03 0.  0.
<mgrwt>
<rscale>  2 0.45628872E+03</rscale>
<asrwt>0</asrwt>
<pdfrwt beam="1">  1       21 0.47623720E-01 0.45628872E+03</pdfrwt>
<pdfrwt beam="2">  1       21 0.23636236E-01 0.45628872E+03</pdfrwt>
<totfact> 0.65694446E+04</totfact>
</mgrwt>
</event>
<event>
 7    0  0.4709932E-002  0.4946289E+03  0.7546771E-02  0.1015190E+00
         21   -1    0    0  502  501  0.00000000000E+00  0.00000000000E+00  0.17291636662E+04  0.17291636662E+04  0.00000000000E+00 0.  1.
         21   -1    0    0  501  502 -0.00000000000E+00 -0.00000000000E+00 -0.35372269151E+02  0.35372269151E+02  0.00000000000E+00 0.  1.
      99926    2    1    2    0    0  0.14210854715E-13  0.71054273576E-14  0.16937913970E+04  0.17645359353E+04  0.49462892194E+03 0.  0.
      99925    2    3    3    0    0  0.10939606882E+03  0.46300686889E+02  0.72180780570E+03  0.77736276744E+03  0.26301161640E+03 0.  0.
         25    1    4    4    0    0  0.14590080870E+02  0.13972842484E+02  0.27821306612E+03  0.30570922303E+03  0.12509000000E+03 0.  0.
         25    1    3    3    0    0 -0.10939606882E+03 -0.46300686889E+02  0.97198359135E+03  0.98717316790E+03  0.12509000000E+03 0.  0.
         25    1    4    4    0    0  0.94805987948E+02  0.32327844405E+02  0.44359473957E+03  0.47165354441E+03  0.12509000000E+03 0.  0.
<mgrwt>
<rscale>  2 0.49462892E+03</rscale>
<asrwt>0</asrwt>
<pdfrwt beam="1">  1       21 0.25428872E+00 0.49462892E+03</pdfrwt>
<pdfrwt beam="2">  1       21 0.52018054E-02 0.49462892E+03</pdfrwt>
<totfact> 0.13347792E+04</totfact>
</mgrwt>
</event>
<event>
 7    0  0.4709932E-002  0.4582148E+03  0.7546771E-02  0.1025300E+00
         21   -1    0    0  502  501  0.00000000000E+00  0.00000000000E+00  0.25225551294E+04  0.25225551294E+04  0.00000000000E+00 0.  1.
         21   -1    0    0  501  502 -0.00000000000E+00 -0.00000000000E+00 -0.20808347765E+02  0.20808347765E+02  0.00000000000E+00 0.  1.
      99926    2    1    2    0    0  0.00000000000E+00  0.00000000000E+00  0.25017467817E+04  0.25433634772E+04  0.45821481595E+03 0.  0.
      99925    2    3    3    0    0  0.10520762628E+03 -0.16001568892E+01  0.12960070138E+04  0.13265943532E+04  0.26295853867E+03 0.  0.
         25    1    4    4    0    0  0.14632871446E+02  0.18596774181E+02  0.60557229858E+03  0.61880956509E+03  0.12509000000E+03 0.  0.
         25    1    4    4    0    0  0.90574754838E+02 -0.20196931070E+02  0.69043471517E+03  0.70778478809E+03  0.12509000000E+03 0.  0.
         25    1    3    3    0    0 -0.10520762628E+03  0.16001568892E+01  0.12057397679E+04  0.12167691240E+04  0.12509000000E+03 0.  0.
<mgrwt>
<rscale>  2 0.45821482E+03</rscale>
<asrwt>0</asrwt>
<pdfrwt beam="1">  1       21 0.37096378E+00 0.45821482E+03</pdfrwt>
<pdfrwt beam="2">  1       21 0.30600529E-02 0.45821482E+03</pdfrwt>
<totfact> 0.65334131E+03</totfact>
</mgrwt>
</event>
<event>
 7    0  0.4709932E-002  0.4532386E+03  0.7546771E-02  0.1026761E+00
         21   -1    0    0  502  501  0.00000000000E+00  0.00000000000E+00  0.32139535970E+03  0.32139535970E+03  0.00000000000E+00 0.  1.
         21   -1    0    0  501  502 -0.00000000000E+00 -0.00000000000E+00 -0.15979169802E+03  0.15979169802E+03  0.00000000000E+00 0.  1.
      99926    2    1    2    0    0 -0.71054273576E-14  0.35527136788E-14  0.16160366168E+03  0.48118705772E+03  0.45323861382E+03 0.  0.
      99925    2    3    3    0    0 -0.42838615247E+02  0.19973007684E+02  0.20913384875E+03  0.33926914210E+03  0.26293062982E+03 0.  0.
         25    1    4    4    0    0 -0.37870108523E+02  0.41329167206E+02  0.82831710920E+02  0.16015881373E+03  0.12509000000E+03 0.  0.
         25    1    4    4    0    0 -0.49685067237E+01 -0.21356159522E+02  0.12630213783E+03  0.17911032837E+03  0.12509000000E+03 0.  0.
         25    1    3    3    0    0  0.42838615247E+02 -0.19973007684E+02 -0.47530187071E+02  0.14191791562E+03  0.12509000000E+03 0.  0.
<mgrwt>
<rscale>  2 0.45323861E+03</rscale>
<asrwt>0</asrwt>
<pdfrwt beam="1">  1       21 0.47264023E-01 0.45323861E+03</pdfrwt>
<pdfrwt beam="2">  1       21 0.23498779E-01 0.45323861E+03</pdfrwt>
<totfact> 0.67553378E+04</totfact>
</mgrwt>
</event>
<event>
 7    0  0.4709932E-002  0.4249818E+03  0.7546771E-02  0.1035457E+00
         21   -1    0    0  502  501  0.00000000000E+00  0.00000000000E+00  0.10014761486E+03  0.10014761486E+03  0.00000000000E+00 0. -1.
         21   -1    0    0  501  502 -0.00000000000E+00 -0.00000000000E+00 -0.45085837763E+03  0.45085837763E+03  0.00000000000E+00 0. -1.
      99926    2    1    2    0    0 -0.17763568394E-14  0.71054273576E-14 -0.35071076278E+03  0.55100599249E+03  0.42498184036E+03 0.  0.
      99925    2    3    3    0    0 -0.67810219630E+01  0.33391566802E+02 -0.13082529643E+03  0.29574513493E+03  0.26303792057E+03 0.  0.
         25    1    3    3    0    0  0.67810219630E+01 -0.33391566802E+02 -0.21988546635E+03  0.25526085756E+03  0.12509000000E+03 0.  0.
         25    1    4    4    0    0 -0.20788582959E+02  0.73445983476E+01 -0.10463294407E+03  0.16456509166E+03  0.12509000000E+03 0.  0.
         25    1    4    4    0    0  0.14007560996E+02  0.26046968455E+02 -0.26192352353E+02  0.13118004327E+03  0.12509000000E+03 0.  0.
<mgrwt>
<rscale>  2 0.42498184E+03</rscale>
<asrwt>0</asrwt>
<pdfrwt beam="1">  1       21 0.14727590E-01 0.42498184E+03</pdfrwt>
<pdfrwt beam="2">  1       21 0.66302703E-01 0.42498184E+03</pdfrwt>
<totfact> 0.78943244E+04</totfact>
</mgrwt>
</event>
<event>
 7    0  0.4709932E-002  0.4581919E+03  0.7546771E-02  0.1025307E+00
         21   -1    0    0  502  501  0.00000000000E+00  0.00000000000E+00  0.12124886804E+03  0.12124886804E+03  0.00000000000E+00 0.  1.
         21   -1    0    0  501  502 -0.00000000000E+00 -0.00000000000E+00 -0.43286962944E+03  0.43286962944E+03  0.00000000000E+00 0.  1.
      99926    2    1    2    0    0 -0.35527136788E-14  0.00000000000E+00 -0.31162076140E+03  0.55411849748E+03  0.45819189247E+03 0.  0.
      99925    2    3    3    0    0  0.18768700770E+02  0.11166764920E+03 -0.16393435178E+03  0.32988488785E+03  0.26292135617E+03 0.  0.
         25    1    4    4    0    0 -0.51369878778E+01  0.34055842571E+02 -0.39421327848E+02  0.13560139471E+03  0.12509000000E+03 0.  0.
         25    1    3    3    0    0 -0.18768700770E+02 -0.11166764920E+03 -0.14768640961E+03  0.22423360963E+03  0.12509000000E+03 0.  0.
         25    1    4    4    0    0  0.23905688647E+02  0.77611806626E+02 -0.12451302394E+03  0.19428349314E+03  0.12509000000E+03 0.  0.
<mgrwt>
<rscale>  2 0.45819189E+03</rscale>
<asrwt>0</asrwt>
<pdfrwt beam="1">  1       21 0.17830716E-01 0.45819189E+03</pdfrwt>
<pdfrwt beam="2">  1       21 0.63657297E-01 0.45819189E+03</pdfrwt>
<totfact> 0.60064040E+04</totfact>
</mgrwt>
</event>
<event>
 7    0  0.4709932E-002  0.4507047E+03  0.7546771E-02  0.1027512E+00
         21   -1    0    0  502  501  0.00000000000E+00  0.00000000000E+00  0.20098055232E+03  0.20098055232E+03  0.00000000000E+00 0. -1.
         21   -1    0    0  501  502 -0.00000000000E+00 -0.00000000000E+00 -0.25267960475E+03  0.25267960475E+03  0.00000000000E+00 0. -1.
      99926    2    1    2    0    0  0.00000000000E+00  0.00000000000E+00 -0.51699052431E+02  0.45366015708E+03  0.45070472163E+03 0.  0.
      99925    2    3    3    0    0 -0.71891244749E+02 -0.62774214665E+02  0.22460306227E+02  0.27971743180E+03  0.26197027160E+03 0.  0.
         25    1    4    4    0    0 -0.15099402636E+02 -0.60617348378E+02  0.26277934176E+02  0.14226908592E+03  0.12509000000E+03 0.  0.
         25    1    4    4    0    0 -0.56791842113E+02 -0.21568662877E+01 -0.38176279488E+01  0.13744834588E+03  0.12509000000E+03 0.  0.
         25    1    3    3    0    0  0.71891244749E+02  0.62774214665E+02 -0.74159358658E+02  0.17394272527E+03  0.12509000000E+03 0.  0.
<mgrwt>
<rscale>  2 0.45070472E+03</rscale>
<asrwt>0</asrwt>
<pdfrwt beam="1">  1       21 0.29555964E-01 0.45070472E+03</pdfrwt>
<pdfrwt beam="2">  1       21 0.37158765E-01 0.45070472E+03</pdfrwt>
<totfact> 0.71047714E+04</totfact>
</mgrwt>
</event>
<event>
 7    0  0.4709932E-002  0.4535513E+03  0.7546771E-02  0.1026668E+00
         21   -1    0    0  502  501  0.00000000000E+00  0.00000000000E+00  0.88189515212E+03  0.88189515212E+03  0.00000000000E+00 0. -1.
         21   -1    0    0  501  502 -0.00000000000E+00 -0.00000000000E+00 -0.58314400387E+02  0.58314400387E+02  0.00000000000E+00 0. -1.
      99926    2    1    2    0    0 -0.71054273576E-14  0.00000000000E+00  0.82358075174E+03  0.94020955251E+03  0.45355126281E+03 0.  0.
      99925    2    3    3    0    0  0.62589941440E+02 -0.46858440399E+02  0.68432988298E+03  0.73735116161E+03  0.26318459794E+03 0.  0.
         25    1    3    3    0    0 -0.62589941440E+02  0.46858440399E+02  0.13925086876E+03  0.20285839090E+03  0.12509000000E+03 0.  0.
         25    1    4    4    0    0  0.20161089418E+02  0.26114391644E+01  0.24349155792E+03  0.27449760658E+03  0.12509000000E+03 0.  0.
         25    1    4    4    0    0  0.42428852022E+02 -0.49469879563E+02  0.44083832506E+03  0.46285355503E+03  0.12509000000E+03 0.  0.
<mgrwt>
<rscale>  2 0.45355126E+03</rscale>
<asrwt>0</asrwt>
<pdfrwt beam="1">  1       21 0.12969046E+00 0.45355126E+03</pdfrwt>
<pdfrwt beam="2">  1       21 0.85756476E-02 0.45355126E+03</pdfrwt>
<totfact> 0.42013809E+04</totfact>
</mgrwt>
</event>
<event>
 7    0  0.4709932E-002  0.4515997E+03  0.7546771E-02  0.1027246E+00
         21   -1    0    0  502  501  0.00000000000E+00  0.00000000000E+00  0.20747047024E+02  0.20747047024E+02  0.00000000000E+00 0. -1.
         21   -1    0    0  501  502 -0.00000000000E+00 -0.00000000000E+00 -0.24574853773E+04  0.24574853773E+04  0.00000000000E+00 0. -1.
      99926    2    1    2    0    0  0.79797279895E-16  0.00000000000E+00 -0.24367383303E+04  0.24782324243E+04  0.45159966645E+03 0.  0.
      99925    2    3    3    0    0 -0.10123923656E-01 -0.35301238578E+02 -0.21091924669E+04  0.21258406278E+04  0.26317168315E+03 0.  0.
         25    1    4    4    0    0  0.10992710975E+02 -0.42645935031E+02 -0.83648949255E+03  0.84693665331E+03  0.12509000000E+03 0.  0.
         25    1    4    4    0    0 -0.11002834898E+02  0.73446964526E+01 -0.12727029743E+04  0.12789039745E+04  0.12509000000E+03 0.  0.
         25    1    3    3    0    0  0.10123923656E-01  0.35301238578E+02 -0.32754586341E+03  0.35239179656E+03  0.12509000000E+03 0.  0.
<mgrwt>
<rscale>  2 0.45159967E+03</rscale>
<asrwt>0</asrwt>
<pdfrwt beam="1">  1       21 0.30510381E-02 0.45159967E+03</pdfrwt>
<pdfrwt beam="2">  1       21 0.36139470E+00 0.45159967E+03</pdfrwt>
<totfact> 0.75548471E+03</totfact>
</mgrwt>
</event>
<event>
 7    0  0.4709932E-002  0.5140996E+03  0.7546771E-02  0.1010163E+00
         21   -1    0    0  502  501  0.00000000000E+00  0.00000000000E+00  0.50066186196E+03  0.50066186196E+03  0.00000000000E+00 0.  1.
         21   -1    0    0  501  502 -0.00000000000E+00 -0.00000000000E+00 -0.13197450605E+03  0.13197450605E+03  0.00000000000E+00 0.  1.
      99926    2    1    2    0    0 -0.35527136788E-14  0.71054273576E-14  0.36868735592E+03  0.63263636801E+03  0.51409960875E+03 0.  0.
      99925    2    3    3    0    0  0.29037949080E+02  0.54569257563E+02  0.36807305532E+02  0.27261847637E+03  0.26295446290E+03 0.  0.
         25    1    3    3    0    0 -0.29037949080E+02 -0.54569257563E+02  0.33188005038E+03  0.36001789164E+03  0.12509000000E+03 0.  0.
         25    1    4    4    0    0 -0.10660123032E+02  0.48235160058E+02  0.42668125670E+02  0.14109693809E+03  0.12509000000E+03 0.  0.
         25    1    4    4    0    0  0.39698072112E+02  0.63340975046E+01 -0.58608201381E+01  0.13152153829E+03  0.12509000000E+03 0.  0.
<mgrwt>
<rscale>  2 0.51409961E+03</rscale>
<asrwt>0</asrwt>
<pdfrwt beam="1">  1       21 0.73626744E-01 0.51409961E+03</pdfrwt>
<pdfrwt beam="2">  1       21 0.19408016E-01 0.51409961E+03</pdfrwt>
<totfact> 0.36470954E+04</totfact>
</mgrwt>
</event>
<event>
 7    0  0.4709932E-002  0.4498698E+03  0.7546771E-02  0.1027761E+00
         21   -1    0    0  502  501  0.00000000000E+00  0.00000000000E+00  0.26496282099E+03  0.26496282099E+03  0.00000000000E+00 0.  1.
         21   -1    0    0  501  502 -0.00000000000E+00 -0.00000000000E+00 -0.19095397146E+03  0.19095397146E+03  0.00000000000E+00 0.  1.
      99926    2    1    2    0    0  0.35527136788E-14  0.00000000000E+00  0.74008849532E+02  0.45591679246E+03  0.44986977209E+03 0.  0.
      99925    2    3    3    0    0 -0.26537454491E+02 -0.10423136068E+03  0.33883032002E+02  0.28613457203E+03  0.26297627348E+03 0.  0.
         25    1    3    3    0    0  0.26537454491E+02  0.10423136068E+03  0.40125817530E+02  0.16978222043E+03  0.12509000000E+03 0.  0.
         25    1    4    4    0    0 -0.40663816960E+02 -0.62902530777E+02  0.46508427085E+02  0.15303861041E+03  0.12509000000E+03 0.  0.
         25    1    4    4    0    0  0.14126362469E+02 -0.41328829904E+02 -0.12625395083E+02  0.13309596162E+03  0.12509000000E+03 0.  0.
<mgrwt>
<rscale>  2 0.44986977E+03</rscale>
<asrwt>0</asrwt>
<pdfrwt beam="1">  1       21 0.38965121E-01 0.44986977E+03</pdfrwt>
<pdfrwt beam="2">  1       21 0.28081466E-01 0.44986977E+03</pdfrwt>
<totfact> 0.71353878E+04</totfact>
</mgrwt>
</event>
<event>
 7    0  0.4709932E-002  0.4586418E+03  0.7546771E-02  0.1025176E+00
         21   -1    0    0  502  501  0.00000000000E+00  0.00000000000E+00  0.13992996723E+03  0.13992996723E+03  0.00000000000E+00 0.  1.
         21   -1    0    0  501  502 -0.00000000000E+00 -0.00000000000E+00 -0.37581716678E+03  0.37581716678E+03  0.00000000000E+00 0.  1.
      99926    2    1    2    0    0  0.00000000000E+00  0.00000000000E+00 -0.23588719955E+03  0.51574713401E+03  0.45864183774E+03 0.  0.
      99925    2    3    3    0    0 -0.69017416527E+02 -0.78638094897E+02 -0.91093979373E+02  0.29766472192E+03  0.26336062698E+03 0.  0.
         25    1    4    4    0    0 -0.44323644781E+02 -0.48324942132E+02 -0.88321362612E+02  0.16657747961E+03  0.12509000000E+03 0.  0.
         25    1    3    3    0    0  0.69017416527E+02  0.78638094897E+02 -0.14479322018E+03  0.21808241209E+03  0.12509000000E+03 0.  0.
         25    1    4    4    0    0 -0.24693771746E+02 -0.30313152765E+02 -0.27726167613E+01  0.13108724231E+03  0.12509000000E+03 0.  0.
<mgrwt>
<rscale>  2 0.45864184E+03</rscale>
<asrwt>0</asrwt>
<pdfrwt beam="1">  1       21 0.20577936E-01 0.45864184E+03</pdfrwt>
<pdfrwt beam="2">  1       21 0.55267231E-01 0.45864184E+03</pdfrwt>
<totfact> 0.62356298E+04</totfact>
</mgrwt>
</event>
<event>
 7    0  0.4709932E-002  0.4484367E+03  0.7546771E-02  0.1028189E+00
         21   -1    0    0  502  501  0.00000000000E+00  0.00000000000E+00  0.92625728081E+03  0.92625728081E+03  0.00000000000E+00 0.  1.
         21   -1    0    0  501  502 -0.00000000000E+00 -0.00000000000E+00 -0.54276347937E+02  0.54276347937E+02  0.00000000000E+00 0.  1.
      99926    2    1    2    0    0  0.00000000000E+00  0.00000000000E+00  0.87198093287E+03  0.98053362874E+03  0.44843667313E+03 0.  0.
      99925    2    3    3    0    0 -0.92661326038E+02 -0.25416237254E+02  0.65441580766E+03  0.71180663295E+03  0.26301430938E+03 0.  0.
         25    1    4    4    0    0 -0.16158373686E+02 -0.40804353685E+02  0.30612689298E+03  0.33359746855E+03  0.12509000000E+03 0.  0.
         25    1    4    4    0    0 -0.76502952352E+02  0.15388116431E+02  0.34828891468E+03  0.37820916440E+03  0.12509000000E+03 0.  0.
         25    1    3    3    0    0  0.92661326038E+02  0.25416237254E+02  0.21756512521E+03  0.26872699579E+03  0.12509000000E+03 0.  0.
<mgrwt>
<rscale>  2 0.44843667E+03</rscale>
<asrwt>0</asrwt>
<pdfrwt beam="1">  1       21 0.13621430E+00 0.44843667E+03</pdfrwt>
<pdfrwt beam="2">  1       21 0.79818164E-02 0.44843667E+03</pdfrwt>
<totfact> 0.42044331E+04</totfact>
</mgrwt>
</event>
<event>
 7    0  0.4709932E-002  0.4639140E+03  0.7546771E-02  0.1023652E+00
         21   -1    0    0  502  501  0.00000000000E+00  0.00000000000E+00  0.76500690237E+02  0.76500690237E+02  0.00000000000E+00 0.  1.
         21   -1    0    0  501  502 -0.00000000000E+00 -0.00000000000E+00 -0.70331463941E+03  0.70331463941E+03  0.00000000000E+00 0.  1.
      99926    2    1    2    0    0  0.00000000000E+00  0.00000000000E+00 -0.62681394917E+03  0.77981532964E+03  0.46391402379E+03 0.  0.
      99925    2    3    3    0    0  0.66781842188E+02 -0.80395940430E+01 -0.56106908515E+03  0.62330863725E+03  0.26304123146E+03 0.  0.
         25    1    3    3    0    0 -0.66781842188E+02  0.80395940430E+01 -0.65744864023E+02  0.15650669239E+03  0.12509000000E+03 0.  0.
         25    1    4    4    0    0  0.25801575029E+02  0.18600371520E+00 -0.18519866568E+03  0.22497068640E+03  0.12509000000E+03 0.  0.
         25    1    4    4    0    0  0.40980267158E+02 -0.82255977582E+01 -0.37587041947E+03  0.39833795085E+03  0.12509000000E+03 0.  0.
<mgrwt>
<rscale>  2 0.46391402E+03</rscale>
<asrwt>0</asrwt>
<pdfrwt beam="1">  1       21 0.11250102E-01 0.46391402E+03</pdfrwt>
<pdfrwt beam="2">  1       21 0.10342862E+00 0.46391402E+03</pdfrwt>
<totfact> 0.45489393E+04</totfact>
</mgrwt>
</event>
<event>
 7    0  0.4709932E-002  0.4495989E+03  0.7546771E-02  0.1027842E+00
         21   -1    0    0  502  501  0.00000000000E+00  0.00000000000E+00  0.99058944613E+02  0.99058944613E+02  0.00000000000E+00 0.  1.
         21   -1    0    0  501  502 -0.00000000000E+00 -0.00000000000E+00 -0.51014861840E+03  0.51014861840E+03  0.00000000000E+00 0.  1.
      99926    2    1    2    0    0  0.00000000000E+00 -0.14210854715E-13 -0.41108967378E+03  0.60920756301E+03  0.44959886003E+03 0.  0.
      99925    2    3    3    0    0  0.83297073478E+02 -0.65383899221E+02 -0.23084311844E+03  0.36558944886E+03  0.26297080268E+03 0.  0.
         25    1    4    4    0    0  0.72408314818E+02 -0.97092930817E+01 -0.10113885061E+03  0.17667430382E+03  0.12509000000E+03 0.  0.
         25    1    4    4    0    0  0.10888758659E+02 -0.55674606139E+02 -0.12970426783E+03  0.18891514504E+03  0.12509000000E+03 0.  0.
         25    1    3    3    0    0 -0.83297073478E+02  0.65383899221E+02 -0.18024655535E+03  0.24361811415E+03  0.12509000000E+03 0.  0.
<mgrwt>
<rscale>  2 0.44959886E+03</rscale>
<asrwt>0</asrwt>
<pdfrwt beam="1">  1       21 0.14567492E-01 0.44959886E+03</pdfrwt>
<pdfrwt beam="2">  1       21 0.75021856E-01 0.44959886E+03</pdfrwt>
<totfact> 0.60661958E+04</totfact>
</mgrwt>
</event>
<event>
 7    0  0.4709932E-002  0.4527715E+03  0.7546771E-02  0.1026899E+00
         21   -1    0    0  502  501  0.00000000000E+00  0.00000000000E+00  0.35120933177E+03  0.35120933177E+03  0.00000000000E+00 0.  1.
         21   -1    0    0  501  502 -0.00000000000E+00 -0.00000000000E+00 -0.14592579455E+03  0.14592579455E+03  0.00000000000E+00 0.  1.
      99926    2    1    2    0    0  0.14210854715E-13 -0.53290705182E-14  0.20528353722E+03  0.49713512632E+03  0.45277146903E+03 0.  0.
      99925    2    3    3    0    0 -0.80480153206E+02  0.67785635066E+01  0.21322243457E+03  0.34802597780E+03  0.26293586791E+03 0.  0.
         25    1    3    3    0    0  0.80480153206E+02 -0.67785635066E+01 -0.79388973561E+01  0.14910914853E+03  0.12509000000E+03 0.  0.
         25    1    4    4    0    0 -0.47736566191E+02  0.35968294180E+02  0.13799926926E+03  0.19561136049E+03  0.12509000000E+03 0.  0.
         25    1    4    4    0    0 -0.32743587015E+02 -0.29189730673E+02  0.75223165316E+02  0.15241461730E+03  0.12509000000E+03 0.  0.
<mgrwt>
<rscale>  2 0.45277147E+03</rscale>
<asrwt>0</asrwt>
<pdfrwt beam="1">  1       21 0.51648431E-01 0.45277147E+03</pdfrwt>
<pdfrwt beam="2">  1       21 0.21459676E-01 0.45277147E+03</pdfrwt>
<totfact> 0.66643582E+04</totfact>
</mgrwt>
</event>
<event>
 7    0  0.4709932E-002  0.4320396E+03  0.7546771E-02  0.1033218E+00
         21   -1    0    0  502  501  0.00000000000E+00  0.00000000000E+00  0.78605539191E+03  0.78605539191E+03  0.00000000000E+00 0.  1.
         21   -1    0    0  501  502 -0.00000000000E+00 -0.00000000000E+00 -0.59365473689E+02  0.59365473689E+02  0.00000000000E+00 0.  1.
      99926    2    1    2    0    0 -0.14432899320E-14  0.00000000000E+00  0.72668991822E+03  0.84542086560E+03  0.43203958470E+03 0.  0.
      99925    2    3    3    0    0 -0.76529505148E+00  0.46342140678E+02  0.31647919898E+03  0.41406425911E+03  0.26294856457E+03 0.  0.
         25    1    3    3    0    0  0.76529505148E+00 -0.46342140678E+02  0.41021071924E+03  0.43135660648E+03  0.12509000000E+03 0.  0.
         25    1    4    4    0    0  0.30973244236E+02  0.38320933383E+02  0.19347186272E+03  0.23559861111E+03  0.12509000000E+03 0.  0.
         25    1    4    4    0    0 -0.31738539288E+02  0.80212072950E+01  0.12300733626E+03  0.17846564800E+03  0.12509000000E+03 0.  0.
<mgrwt>
<rscale>  2 0.43203958E+03</rscale>
<asrwt>0</asrwt>
<pdfrwt beam="1">  1       21 0.11559637E+00 0.43203958E+03</pdfrwt>
<pdfrwt beam="2">  1       21 0.87302172E-02 0.43203958E+03</pdfrwt>
<totfact> 0.54881068E+04</totfact>
</mgrwt>
</event>
<event>
 7    0  0.4709932E-002  0.4495504E+03  0.7546771E-02  0.1027856E+00
         21   -1    0    0  502  501  0.00000000000E+00  0.00000000000E+00  0.17406085346E+03  0.17406085346E+03  0.00000000000E+00 0. -1.
         21   -1    0    0  501  502 -0.00000000000E+00 -0.00000000000E+00 -0.29026564249E+03  0.29026564249E+03  0.00000000000E+00 0. -1.
      99926    2    1    2    0    0  0.14210854715E-13  0.35527136788E-14 -0.11620478902E+03  0.46432649595E+03  0.44955037743E+03 0.  0.
      99925    2    3    3    0    0 -0.97827528286E+02 -0.25050126977E+02 -0.33692585234E+02  0.28362368461E+03  0.26288680077E+03 0.  0.
         25    1    3    3    0    0  0.97827528286E+02  0.25050126977E+02 -0.82512203788E+02  0.18070281134E+03  0.12509000000E+03 0.  0.
         25    1    4    4    0    0 -0.60240790696E+02 -0.47565440296E+02  0.42318402382E+00  0.14676209033E+03  0.12509000000E+03 0.  0.
         25    1    4    4    0    0 -0.37586737590E+02  0.22515313319E+02 -0.34115769258E+02  0.13686159428E+03  0.12509000000E+03 0.  0.
<mgrwt>
<rscale>  2 0.44955038E+03</rscale>
<asrwt>0</asrwt>
<pdfrwt beam="1">  1       21 0.25597184E-01 0.44955038E+03</pdfrwt>
<pdfrwt beam="2">  1       21 0.42686124E-01 0.44955038E+03</pdfrwt>
<totfact> 0.70874749E+04</totfact>
</mgrwt>
</event>
<event>
 7    0  0.4709932E-002  0.4569816E+03  0.7546771E-02  0.1025660E+00
         21   -1    0    0  502  501  0.00000000000E+00  0.00000000000E+00  0.11347805031E+03  0.11347805031E+03  0.00000000000E+00 0.  1.
         21   -1    0    0  501  502 -0.00000000000E+00 -0.00000000000E+00 -0.46007166977E+03  0.46007166977E+03  0.00000000000E+00 0.  1.
      99926    2    1    2    0    0  0.00000000000E+00  0.00000000000E+00 -0.34659361946E+03  0.57354972009E+03  0.45698155801E+03 0.  0.
      99925    2    3    3    0    0 -0.10304054622E+02 -0.47809106343E+02 -0.86071055224E+02  0.28044325689E+03  0.26238961412E+03 0.  0.
         25    1    4    4    0    0 -0.27129944484E+02 -0.13650874870E+02 -0.98684795266E+01  0.12910180193E+03  0.12509000000E+03 0.  0.
         25    1    4    4    0    0  0.16825889862E+02 -0.34158231473E+02 -0.76202575698E+02  0.15134145496E+03  0.12509000000E+03 0.  0.
         25    1    3    3    0    0  0.10304054622E+02  0.47809106343E+02 -0.26052256424E+03  0.29310646320E+03  0.12509000000E+03 0.  0.
<mgrwt>
<rscale>  2 0.45698156E+03</rscale>
<asrwt>0</asrwt>
<pdfrwt beam="1">  1       21 0.16687949E-01 0.45698156E+03</pdfrwt>
<pdfrwt beam="2">  1       21 0.67657598E-01 0.45698156E+03</pdfrwt>
<totfact> 0.59400428E+04</totfact>
</mgrwt>
</event>
<event>
 7    0  0.4709932E-002  0.4538987E+03  0.7546771E-02  0.1026566E+00
         21   -1    0    0  502  501  0.00000000000E+00  0.00000000000E+00  0.10369977560E+04  0.10369977560E+04  0.00000000000E+00 0. -1.
         21   -1    0    0  501  502 -0.00000000000E+00 -0.00000000000E+00 -0.49668389597E+02  0.49668389597E+02  0.00000000000E+00 0. -1.
      99926    2    1    2    0    0  0.00000000000E+00 -0.71054273576E-14  0.98732936644E+03  0.10866661456E+04  0.45389870482E+03 0.  0.
      99925    2    3    3    0    0  0.84590769975E+02  0.55971110542E+02  0.73637835383E+03  0.78848451908E+03  0.26299504420E+03 0.  0.
         25    1    4    4    0    0  0.10583178169E+02  0.50443226550E+02  0.31963212960E+03  0.34708605437E+03  0.12509000000E+03 0.  0.
         25    1    4    4    0    0  0.74007591806E+02  0.55278839929E+01  0.41674622423E+03  0.44139846471E+03  0.12509000000E+03 0.  0.
         25    1    3    3    0    0 -0.84590769975E+02 -0.55971110542E+02  0.25095101261E+03  0.29818162655E+03  0.12509000000E+03 0.  0.
<mgrwt>
<rscale>  2 0.45389870E+03</rscale>
<asrwt>0</asrwt>
<pdfrwt beam="1">  1       21 0.15249966E+00 0.45389870E+03</pdfrwt>
<pdfrwt beam="2">  1       21 0.73041756E-02 0.45389870E+03</pdfrwt>
<totfact> 0.36270701E+04</totfact>
</mgrwt>
</event>
<event>
 7    0  0.4709932E-002  0.4559570E+03  0.7546771E-02  0.1025960E+00
         21   -1    0    0  502  501  0.00000000000E+00  0.00000000000E+00  0.55759381890E+02  0.55759381890E+02  0.00000000000E+00 0.  1.
         21   -1    0    0  501  502 -0.00000000000E+00 -0.00000000000E+00 -0.93211565474E+03  0.93211565474E+03  0.00000000000E+00 0.  1.
      99926    2    1    2    0    0  0.00000000000E+00  0.00000000000E+00 -0.87635627285E+03  0.98787503663E+03  0.45595698375E+03 0.  0.
      99925    2    3    3    0    0 -0.51450738015E+02 -0.40031838944E+02 -0.34837881923E+03  0.44137945001E+03  0.26305567971E+03 0.  0.
         25    1    4    4    0    0 -0.66424519373E+02 -0.28622404929E+02 -0.18834815235E+03  0.23738996068E+03  0.12509000000E+03 0.  0.
         25    1    3    3    0    0  0.51450738015E+02  0.40031838944E+02 -0.52797745362E+03  0.54649558662E+03  0.12509000000E+03 0.  0.
         25    1    4    4    0    0  0.14973781357E+02 -0.11409434015E+02 -0.16003066688E+03  0.20398948933E+03  0.12509000000E+03 0.  0.
<mgrwt>
<rscale>  2 0.45595698E+03</rscale>
<asrwt>0</asrwt>
<pdfrwt beam="1">  1       21 0.81999089E-02 0.45595698E+03</pdfrwt>
<pdfrwt beam="2">  1       21 0.13707584E+00 0.45595698E+03</pdfrwt>
<totfact> 0.39346698E+04</totfact>
</mgrwt>
</event>
<event>
 7    0  0.4709932E-002  0.4455238E+03  0.7546771E-02  0.1029065E+00
         21   -1    0    0  502  501  0.00000000000E+00  0.00000000000E+00  0.13349171206E+03  0.13349171206E+03  0.00000000000E+00 0. -1.
         21   -1    0    0  501  502 -0.00000000000E+00 -0.00000000000E+00 -0.37172985884E+03  0.37172985884E+03  0.00000000000E+00 0. -1.
      99926    2    1    2    0    0  0.00000000000E+00 -0.71054273576E-14 -0.23823814678E+03  0.50522157091E+03  0.44552376046E+03 0.  0.
      99925    2    3    3    0    0  0.68283986520E+02 -0.16123961628E+02 -0.64159927096E+02  0.27967020288E+03  0.26301376614E+03 0.  0.
         25    1    4    4    0    0  0.31326015369E+02 -0.44115106463E+02 -0.51384470968E+02  0.14565484480E+03  0.12509000000E+03 0.  0.
         25    1    4    4    0    0  0.36957971151E+02  0.27991144835E+02 -0.12775456129E+02  0.13401535808E+03  0.12509000000E+03 0.  0.
         25    1    3    3    0    0 -0.68283986520E+02  0.16123961628E+02 -0.17407821968E+03  0.22555136803E+03  0.12509000000E+03 0.  0.
<mgrwt>
<rscale>  2 0.44552376E+03</rscale>
<asrwt>0</asrwt>
<pdfrwt beam="1">  1       21 0.19631134E-01 0.44552376E+03</pdfrwt>
<pdfrwt beam="2">  1       21 0.54666156E-01 0.44552376E+03</pdfrwt>
<totfact> 0.70025239E+04</totfact>
</mgrwt>
</event>
<event>
 7    0  0.4709932E-002  0.3892377E+03  0.7546771E-02  0.1047571E+00
         21   -1    0    0  502  501  0.00000000000E+00  0.00000000000E+00  0.13305561337E+04  0.13305561337E+04  0.00000000000E+00 0.  1.
         21   -1    0    0  501  502 -0.00000000000E+00 -0.00000000000E+00 -0.28466660135E+02  0.28466660135E+02  0.00000000000E+00 0.  1.
      99926    2    1    2    0    0  0.17763568394E-14  0.00000000000E+00  0.13020894735E+04  0.13590227938E+04  0.38923766132E+03 0.  0.
      99925    2    3    3    0    0 -0.23930423376E+01  0.87973521854E+01  0.83181472545E+03  0.87231038710E+03  0.26253867126E+03 0.  0.
         25    1    4    4    0    0 -0.27634095356E+02 -0.25354475435E+02  0.41587673599E+03  0.43589845181E+03  0.12509000000E+03 0.  0.
         25    1    3    3    0    0  0.23930423376E+01 -0.87973521854E+01  0.47027474807E+03  0.48671240669E+03  0.12509000000E+03 0.  0.
         25    1    4    4    0    0  0.25241053018E+02  0.34151827620E+02  0.41593798946E+03  0.43641193529E+03  0.12509000000E+03 0.  0.
<mgrwt>
<rscale>  2 0.38923766E+03</rscale>
<asrwt>0</asrwt>
<pdfrwt beam="1">  1       21 0.19566998E+00 0.38923766E+03</pdfrwt>
<pdfrwt beam="2">  1       21 0.41862744E-02 0.38923766E+03</pdfrwt>
<totfact> 0.47464003E+04</totfact>
</mgrwt>
</event>
<event>
 7    0  0.4709932E-002  0.4525930E+03  0.7546771E-02  0.1026952E+00
         21   -1    0    0  502  501  0.00000000000E+00  0.00000000000E+00  0.41050219392E+03  0.41050219392E+03  0.00000000000E+00 0.  1.
         21   -1    0    0  501  502 -0.00000000000E+00 -0.00000000000E+00 -0.12474990110E+03  0.12474990110E+03  0.00000000000E+00 0.  1.
      99926    2    1    2    0    0  0.71054273576E-14  0.00000000000E+00  0.28575229282E+03  0.53525209502E+03  0.45259300963E+03 0.  0.
      99925    2    3    3    0    0  0.29085151229E+02 -0.10371147422E+03  0.21114594497E+03  0.35410124311E+03  0.26306475322E+03 0.  0.
         25    1    3    3    0    0 -0.29085151229E+02  0.10371147422E+03  0.74606347851E+02  0.18115085191E+03  0.12509000000E+03 0.  0.
         25    1    4    4    0    0 -0.23405551405E+02 -0.58986869661E+02  0.88669598756E+02  0.16594299163E+03  0.12509000000E+03 0.  0.
         25    1    4    4    0    0  0.52490702634E+02 -0.44724604558E+02  0.12247634622E+03  0.18815825148E+03  0.12509000000E+03 0.  0.
<mgrwt>
<rscale>  2 0.45259301E+03</rscale>
<asrwt>0</asrwt>
<pdfrwt beam="1">  1       21 0.60367969E-01 0.45259301E+03</pdfrwt>
<pdfrwt beam="2">  1       21 0.18345574E-01 0.45259301E+03</pdfrwt>
<totfact> 0.64063487E+04</totfact>
</mgrwt>
</event>
<event>
 7    0  0.4709932E-002  0.4569902E+03  0.7546771E-02  0.1025658E+00
         21   -1    0    0  502  501  0.00000000000E+00  0.00000000000E+00  0.34480037376E+03  0.34480037376E+03  0.00000000000E+00 0. -1.
         21   -1    0    0  501  502 -0.00000000000E+00 -0.00000000000E+00 -0.15142097182E+03  0.15142097182E+03  0.00000000000E+00 0. -1.
      99926    2    1    2    0    0  0.00000000000E+00  0.00000000000E+00  0.19337940194E+03  0.49622134558E+03  0.45699018667E+03 0.  0.
      99925    2    3    3    0    0  0.80234101460E+02  0.78298755930E+02  0.94011850001E+02  0.30105571158E+03  0.26311234732E+03 0.  0.
         25    1    3    3    0    0 -0.80234101460E+02 -0.78298755930E+02  0.99367551939E+02  0.19516563400E+03  0.12509000000E+03 0.  0.
         25    1    4    4    0    0  0.46640898375E+02 -0.73490846780E+00  0.54998645987E+02  0.14438930934E+03  0.12509000000E+03 0.  0.
         25    1    4    4    0    0  0.33593203085E+02  0.79033664397E+02  0.39013204014E+02  0.15666640223E+03  0.12509000000E+03 0.  0.
<mgrwt>
<rscale>  2 0.45699019E+03</rscale>
<asrwt>0</asrwt>
<pdfrwt beam="1">  1       21 0.50705937E-01 0.45699019E+03</pdfrwt>
<pdfrwt beam="2">  1       21 0.22267790E-01 0.45699019E+03</pdfrwt>
<totfact> 0.64511672E+04</totfact>
</mgrwt>
</event>
<event>
 7    0  0.4709932E-002  0.4645005E+03  0.7546771E-02  0.1023484E+00
         21   -1    0    0  502  501  0.00000000000E+00  0.00000000000E+00  0.50325224001E+03  0.50325224001E+03  0.00000000000E+00 0. -1.
         21   -1    0    0  501  502 -0.00000000000E+00 -0.00000000000E+00 -0.10718320288E+03  0.10718320288E+03  0.00000000000E+00 0. -1.
      99926    2    1    2    0    0  0.00000000000E+00  0.14210854715E-13  0.39606903713E+03  0.61043544290E+03  0.46450053582E+03 0.  0.
      99925    2    3    3    0    0  0.91138577110E+02 -0.80842065975E+02  0.24714827115E+03  0.38094343322E+03  0.26304743205E+03 0.  0.
         25    1    3    3    0    0 -0.91138577110E+02  0.80842065975E+02  0.14892076598E+03  0.22949200968E+03  0.12509000000E+03 0.  0.
         25    1    4    4    0    0  0.83559801840E+02 -0.63186408905E+02  0.14561473528E+03  0.21869138525E+03  0.12509000000E+03 0.  0.
         25    1    4    4    0    0  0.75787752700E+01 -0.17655657069E+02  0.10153353587E+03  0.16225204796E+03  0.12509000000E+03 0.  0.
<mgrwt>
<rscale>  2 0.46450054E+03</rscale>
<asrwt>0</asrwt>
<pdfrwt beam="1">  1       21 0.74007681E-01 0.46450054E+03</pdfrwt>
<pdfrwt beam="2">  1       21 0.15762236E-01 0.46450054E+03</pdfrwt>
<totfact> 0.53881548E+04</totfact>
</mgrwt>
</event>
<event>
 7    0  0.4709932E-002  0.4612527E+03  0.7546771E-02  0.1024419E+00
         21   -1    0    0  502  501  0.00000000000E+00  0.00000000000E+00  0.61264969961E+03  0.61264969961E+03  0.00000000000E+00 0. -1.
         21   -1    0    0  501  502 -0.00000000000E+00 -0.00000000000E+00 -0.86817187802E+02  0.86817187802E+02  0.00000000000E+00 0. -1.
      99926    2    1    2    0    0 -0.14210854715E-13  0.14210854715E-13  0.52583251180E+03  0.69946688741E+03  0.46125274645E+03 0.  0.
      99925    2    3    3    0    0 -0.85904945156E+02  0.79760504123E+02  0.35876431545E+03  0.46009126636E+03  0.26311735351E+03 0.  0.
         25    1    3    3    0    0  0.85904945156E+02 -0.79760504123E+02  0.16706819635E+03  0.23937562105E+03  0.12509000000E+03 0.  0.
         25    1    4    4    0    0 -0.37715091458E+02  0.74197468113E+02  0.22562964761E+03  0.27107921053E+03  0.12509000000E+03 0.  0.
         25    1    4    4    0    0 -0.48189853698E+02  0.55630360104E+01  0.13313466784E+03  0.18901205583E+03  0.12509000000E+03 0.  0.
<mgrwt>
<rscale>  2 0.46125275E+03</rscale>
<asrwt>0</asrwt>
<pdfrwt beam="1">  1       21 0.90095542E-01 0.46125275E+03</pdfrwt>
<pdfrwt beam="2">  1       21 0.12767234E-01 0.46125275E+03</pdfrwt>
<totfact> 0.50405310E+04</totfact>
</mgrwt>
</event>
<event>
 7    0  0.4709932E-002  0.4595700E+03  0.7546771E-02  0.1024906E+00
         21   -1    0    0  502  501  0.00000000000E+00  0.00000000000E+00  0.37138958463E+03  0.37138958463E+03  0.00000000000E+00 0. -1.
         21   -1    0    0  501  502 -0.00000000000E+00 -0.00000000000E+00 -0.14217185551E+03  0.14217185551E+03  0.00000000000E+00 0. -1.
      99926    2    1    2    0    0  0.00000000000E+00 -0.14210854715E-13  0.22921772912E+03  0.51356144014E+03  0.45957000061E+03 0.  0.
      99925    2    3    3    0    0 -0.53985347816E+02  0.10289591799E+03  0.16333189234E+03  0.33055750766E+03  0.26284780976E+03 0.  0.
         25    1    4    4    0    0 -0.34210534929E+02  0.94319534928E+02  0.95424374003E+02  0.18660078945E+03  0.12509000000E+03 0.  0.
         25    1    3    3    0    0  0.53985347816E+02 -0.10289591799E+03  0.65885836780E+02  0.18300393249E+03  0.12509000000E+03 0.  0.
         25    1    4    4    0    0 -0.19774812887E+02  0.85763830567E+01  0.67907518333E+02  0.14395671821E+03  0.12509000000E+03 0.  0.
<mgrwt>
<rscale>  2 0.45957000E+03</rscale>
<asrwt>0</asrwt>
<pdfrwt beam="1">  1       21 0.54616115E-01 0.45957000E+03</pdfrwt>
<pdfrwt beam="2">  1       21 0.20907626E-01 0.45957000E+03</pdfrwt>
<totfact> 0.62047015E+04</totfact>
</mgrwt>
</event>
<event>
 7    0  0.4709932E-002  0.4474334E+03  0.7546771E-02  0.1028490E+00
         21   -1    0    0  502  501  0.00000000000E+00  0.00000000000E+00  0.10802969611E+04  0.10802969611E+04  0.00000000000E+00 0. -1.
         21   -1    0    0  501  502 -0.00000000000E+00 -0.00000000000E+00 -0.46329078261E+02  0.46329078261E+02  0.00000000000E+00 0. -1.
      99926    2    1    2    0    0  0.00000000000E+00 -0.14210854715E-13  0.10339678828E+04  0.11266260394E+04  0.44743340267E+03 0.  0.
      99925    2    3    3    0    0 -0.24528374808E+02  0.10191776236E+03  0.62125873545E+03  0.68281840097E+03  0.26322933134E+03 0.  0.
         25    1    4    4    0    0  0.88908770144E+01  0.85954892626E+02  0.36043498610E+03  0.39118816261E+03  0.12509000000E+03 0.  0.
         25    1    3    3    0    0  0.24528374808E+02 -0.10191776236E+03  0.41270914739E+03  0.44380763839E+03  0.12509000000E+03 0.  0.
         25    1    4    4    0    0 -0.33419251822E+02  0.15962869731E+02  0.26082374934E+03  0.29163023836E+03  0.12509000000E+03 0.  0.
<mgrwt>
<rscale>  2 0.44743340E+03</rscale>
<asrwt>0</asrwt>
<pdfrwt beam="1">  1       21 0.15886718E+00 0.44743340E+03</pdfrwt>
<pdfrwt beam="2">  1       21 0.68131004E-02 0.44743340E+03</pdfrwt>
<totfact> 0.36689276E+04</totfact>
</mgrwt>
</event>
<event>
 7    0  0.4709932E-002  0.4551817E+03  0.7546771E-02  0.1026188E+00
         21   -1    0    0  502  501  0.00000000000E+00  0.00000000000E+00  0.10253344643E+03  0.10253344643E+03  0.00000000000E+00 0.  1.
         21   -1    0    0  501  502 -0.00000000000E+00 -0.00000000000E+00 -0.50517760947E+03  0.50517760947E+03  0.00000000000E+00 0.  1.
      99926    2    1    2    0    0  0.26645352591E-14 -0.14210854715E-13 -0.40264416304E+03  0.60771105590E+03  0.45518172792E+03 0.  0.
      99925    2    3    3    0    0 -0.25567104637E+01 -0.69606690191E+02 -0.13454695182E+03  0.30377808492E+03  0.26329947691E+03 0.  0.
         25    1    3    3    0    0  0.25567104637E+01  0.69606690191E+02 -0.26809721121E+03  0.30393297098E+03  0.12509000000E+03 0.  0.
         25    1    4    4    0    0 -0.22068630931E+02 -0.10599945379E+02 -0.34762271119E+02  0.13211853355E+03  0.12509000000E+03 0.  0.
         25    1    4    4    0    0  0.19511920467E+02 -0.59006744812E+02 -0.99784680705E+02  0.17165955137E+03  0.12509000000E+03 0.  0.
<mgrwt>
<rscale>  2 0.45518173E+03</rscale>
<asrwt>0</asrwt>
<pdfrwt beam="1">  1       21 0.15078448E-01 0.45518173E+03</pdfrwt>
<pdfrwt beam="2">  1       21 0.74290825E-01 0.45518173E+03</pdfrwt>
<totfact> 0.58122644E+04</totfact>
</mgrwt>
</event>
<event>
 7    0  0.4709932E-002  0.4600020E+03  0.7546771E-02  0.1024781E+00
         21   -1    0    0  502  501  0.00000000000E+00  0.00000000000E+00  0.58732508398E+02  0.58732508398E+02  0.00000000000E+00 0. -1.
         21   -1    0    0  501  502 -0.00000000000E+00 -0.00000000000E+00 -0.90070138737E+03  0.90070138737E+03  0.00000000000E+00 0. -1.
      99926    2    1    2    0    0 -0.71054273576E-14  0.71054273576E-14 -0.84196887897E+03  0.95943389577E+03  0.46000196433E+03 0.  0.
      99925    2    3    3    0    0 -0.60091825469E+02  0.53903827555E+02 -0.34842945348E+03  0.44392897559E+03  0.26296996255E+03 0.  0.
         25    1    4    4    0    0 -0.64420541057E+02  0.71811638202E+01 -0.16424921688E+03  0.21639521383E+03  0.12509000000E+03 0.  0.
         25    1    3    3    0    0  0.60091825469E+02 -0.53903827555E+02 -0.49353942549E+03  0.51550492018E+03  0.12509000000E+03 0.  0.
         25    1    4    4    0    0  0.43287155881E+01  0.46722663735E+02 -0.18418023660E+03  0.22753376175E+03  0.12509000000E+03 0.  0.
<mgrwt>
<rscale>  2 0.46000196E+03</rscale>
<asrwt>0</asrwt>
<pdfrwt beam="1">  1       21 0.86371340E-02 0.46000196E+03</pdfrwt>
<pdfrwt beam="2">  1       21 0.13245608E+00 0.46000196E+03</pdfrwt>
<totfact> 0.39205226E+04</totfact>
</mgrwt>
</event>
<event>
 7    0  0.4709932E-002  0.4457939E+03  0.7546771E-02  0.1028984E+00
         21   -1    0    0  502  501  0.00000000000E+00  0.00000000000E+00  0.39836676405E+03  0.39836676405E+03  0.00000000000E+00 0. -1.
         21   -1    0    0  501  502 -0.00000000000E+00 -0.00000000000E+00 -0.12471686844E+03  0.12471686844E+03  0.00000000000E+00 0. -1.
      99926    2    1    2    0    0  0.00000000000E+00  0.00000000000E+00  0.27364989562E+03  0.52308363249E+03  0.44579392236E+03 0.  0.
      99925    2    3    3    0    0  0.30817434677E+02  0.89515064568E+02  0.22744608938E+03  0.35954476593E+03  0.26187411875E+03 0.  0.
         25    1    3    3    0    0 -0.30817434677E+02 -0.89515064568E+02  0.46203806239E+02  0.16353886656E+03  0.12509000000E+03 0.  0.
         25    1    4    4    0    0  0.53769232139E+01  0.47057277975E+02  0.16157996031E+03  0.20975912468E+03  0.12509000000E+03 0.  0.
         25    1    4    4    0    0  0.25440511463E+02  0.42457786593E+02  0.65866129066E+02  0.14978564125E+03  0.12509000000E+03 0.  0.
<mgrwt>
<rscale>  2 0.44579392E+03</rscale>
<asrwt>0</asrwt>
<pdfrwt beam="1">  1       21 0.58583348E-01 0.44579392E+03</pdfrwt>
<pdfrwt beam="2">  1       21 0.18340716E-01 0.44579392E+03</pdfrwt>
<totfact> 0.68541797E+04</totfact>
</mgrwt>
</event>
<event>
 7    0  0.4709932E-002  0.4505682E+03  0.7546771E-02  0.1027553E+00
         21   -1    0    0  502  501  0.00000000000E+00  0.00000000000E+00  0.76319647663E+02  0.76319647663E+02  0.00000000000E+00 0. -1.
         21   -1    0    0  501  502 -0.00000000000E+00 -0.00000000000E+00 -0.66500471109E+03  0.66500471109E+03  0.00000000000E+00 0. -1.
      99926    2    1    2    0    0 -0.35527136788E-14  0.00000000000E+00 -0.58868506343E+03  0.74132435875E+03  0.45056819792E+03 0.  0.
      99925    2    3    3    0    0  0.23822587090E+02 -0.12313518436E+02 -0.54565696010E+03  0.60635004947E+03  0.26305840794E+03 0.  0.
         25    1    4    4    0    0  0.41655194577E+02 -0.11917318808E+01 -0.21512064939E+03  0.25231127076E+03  0.12509000000E+03 0.  0.
         25    1    3    3    0    0 -0.23822587090E+02  0.12313518436E+02 -0.43028103325E+02  0.13497430929E+03  0.12509000000E+03 0.  0.
         25    1    4    4    0    0 -0.17832607488E+02 -0.11121786555E+02 -0.33053631072E+03  0.35403877871E+03  0.12509000000E+03 0.  0.
<mgrwt>
<rscale>  2 0.45056820E+03</rscale>
<asrwt>0</asrwt>
<pdfrwt beam="1">  1       21 0.11223477E-01 0.45056820E+03</pdfrwt>
<pdfrwt beam="2">  1       21 0.97794814E-01 0.45056820E+03</pdfrwt>
<totfact> 0.52522122E+04</totfact>
</mgrwt>
</event>
<event>
 7    0  0.4709932E-002  0.4248049E+03  0.7546771E-02  0.1035514E+00
         21   -1    0    0  502  501  0.00000000000E+00  0.00000000000E+00  0.41910483354E+03  0.41910483354E+03  0.00000000000E+00 0.  1.
         21   -1    0    0  501  502 -0.00000000000E+00 -0.00000000000E+00 -0.10764560359E+03  0.10764560359E+03  0.00000000000E+00 0.  1.
      99926    2    1    2    0    0  0.00000000000E+00  0.00000000000E+00  0.31145922995E+03  0.52675043713E+03  0.42480486238E+03 0.  0.
      99925    2    3    3    0    0  0.73683429902E+02 -0.33751461271E+02  0.18743004699E+03  0.33284542094E+03  0.26284528290E+03 0.  0.
         25    1    4    4    0    0  0.74049912348E+02 -0.31767579985E+00  0.10561205371E+03  0.17968000564E+03  0.12509000000E+03 0.  0.
         25    1    3    3    0    0 -0.73683429902E+02  0.33751461271E+02  0.12402918296E+03  0.19390501619E+03  0.12509000000E+03 0.  0.
         25    1    4    4    0    0 -0.36648244608E+00 -0.33433785471E+02  0.81817993279E+02  0.15316541530E+03  0.12509000000E+03 0.  0.
<mgrwt>
<rscale>  2 0.42480486E+03</rscale>
<asrwt>0</asrwt>
<pdfrwt beam="1">  1       21 0.61633063E-01 0.42480486E+03</pdfrwt>
<pdfrwt beam="2">  1       21 0.15830236E-01 0.42480486E+03</pdfrwt>
<totfact> 0.81158582E+04</totfact>
</mgrwt>
</event>
<event>
 7    0  0.4709932E-002  0.4540821E+03  0.7546771E-02  0.1026512E+00
         21   -1    0    0  502  501  0.00000000000E+00  0.00000000000E+00  0.45772624848E+03  0.45772624848E+03  0.00000000000E+00 0.  1.
         21   -1    0    0  501  502 -0.00000000000E+00 -0.00000000000E+00 -0.11261676166E+03  0.11261676166E+03  0.00000000000E+00 0.  1.
      99926    2    1    2    0    0 -0.14210854715E-13  0.00000000000E+00  0.34510948682E+03  0.57034301014E+03  0.45408214160E+03 0.  0.
      99925    2    3    3    0    0 -0.10666188138E+03 -0.10121748786E+02  0.25958432419E+03  0.38475942174E+03  0.26301441884E+03 0.  0.
         25    1    4    4    0    0 -0.70768055859E+02  0.12279484248E+02  0.90750646275E+02  0.17041740335E+03  0.12509000000E+03 0.  0.
         25    1    3    3    0    0  0.10666188138E+03  0.10121748786E+02  0.85525162627E+02  0.18558358839E+03  0.12509000000E+03 0.  0.
         25    1    4    4    0    0 -0.35893825523E+02 -0.22401233034E+02  0.16883367792E+03  0.21434201840E+03  0.12509000000E+03 0.  0.
<mgrwt>
<rscale>  2 0.45408214E+03</rscale>
<asrwt>0</asrwt>
<pdfrwt beam="1">  1       21 0.67312683E-01 0.45408214E+03</pdfrwt>
<pdfrwt beam="2">  1       21 0.16561289E-01 0.45408214E+03</pdfrwt>
<totfact> 0.60983331E+04</totfact>
</mgrwt>
</event>
<event>
 7    0  0.4709932E-002  0.4491619E+03  0.7546771E-02  0.1027972E+00
         21   -1    0    0  502  501  0.00000000000E+00  0.00000000000E+00  0.36990332561E+03  0.36990332561E+03  0.00000000000E+00 0. -1.
         21   -1    0    0  501  502 -0.00000000000E+00 -0.00000000000E+00 -0.13635079542E+03  0.13635079542E+03  0.00000000000E+00 0. -1.
      99926    2    1    2    0    0  0.00000000000E+00  0.00000000000E+00  0.23355253018E+03  0.50625412103E+03  0.44916194263E+03 0.  0.
      99925    2    3    3    0    0 -0.70673757810E+02 -0.29484643979E+02  0.23291357619E+03  0.35958428557E+03  0.26303611953E+03 0.  0.
         25    1    4    4    0    0 -0.56316615888E+02 -0.50036655180E+02  0.13342778717E+03  0.19780220063E+03  0.12509000000E+03 0.  0.
         25    1    3    3    0    0  0.70673757810E+02  0.29484643979E+02  0.63895399479E+00  0.14666983547E+03  0.12509000000E+03 0.  0.
         25    1    4    4    0    0 -0.14357141922E+02  0.20552011201E+02  0.99485789023E+02  0.16178208494E+03  0.12509000000E+03 0.  0.
<mgrwt>
<rscale>  2 0.44916194E+03</rscale>
<asrwt>0</asrwt>
<pdfrwt beam="1">  1       21 0.54397548E-01 0.44916194E+03</pdfrwt>
<pdfrwt beam="2">  1       21 0.20051588E-01 0.44916194E+03</pdfrwt>
<totfact> 0.67926584E+04</totfact>
</mgrwt>
</event>
<event>
 7    0  0.4709932E-002  0.4545937E+03  0.7546771E-02  0.1026361E+00
         21   -1    0    0  502  501  0.00000000000E+00  0.00000000000E+00  0.63636221992E+03  0.63636221992E+03  0.00000000000E+00 0. -1.
         21   -1    0    0  501  502 -0.00000000000E+00 -0.00000000000E+00 -0.81186245291E+02  0.81186245291E+02  0.00000000000E+00 0. -1.
      99926    2    1    2    0    0 -0.14210854715E-13  0.00000000000E+00  0.55517597463E+03  0.71754846521E+03  0.45459370554E+03 0.  0.
      99925    2    3    3    0    0 -0.95541502019E+02  0.41072634617E+02  0.41838467624E+03  0.50500551111E+03  0.26300130991E+03 0.  0.
         25    1    4    4    0    0 -0.26590322802E+02 -0.16237650526E+02  0.19133584393E+03  0.23071111771E+03  0.12509000000E+03 0.  0.
         25    1    4    4    0    0 -0.68951179217E+02  0.57310285143E+02  0.22704883231E+03  0.27429439340E+03  0.12509000000E+03 0.  0.
         25    1    3    3    0    0  0.95541502019E+02 -0.41072634617E+02  0.13679129839E+03  0.21254295410E+03  0.12509000000E+03 0.  0.
<mgrwt>
<rscale>  2 0.45459371E+03</rscale>
<asrwt>0</asrwt>
<pdfrwt beam="1">  1       21 0.93582677E-01 0.45459371E+03</pdfrwt>
<pdfrwt beam="2">  1       21 0.11939154E-01 0.45459371E+03</pdfrwt>
<totfact> 0.52126955E+04</totfact>
</mgrwt>
</event>
<event>
 7    0  0.4709932E-002  0.4601580E+03  0.7546771E-02  0.1024735E+00
         21   -1    0    0  502  501  0.00000000000E+00  0.00000000000E+00  0.97211473660E+03  0.97211473660E+03  0.00000000000E+00 0. -1.
         21   -1    0    0  501  502 -0.00000000000E+00 -0.00000000000E+00 -0.54454830832E+02  0.54454830832E+02  0.00000000000E+00 0. -1.
      99926    2    1    2    0    0  0.00000000000E+00  0.00000000000E+00  0.91765990576E+03  0.10265695674E+04  0.46015798822E+03 0.  0.
      99925    2    3    3    0    0 -0.44966358294E+02  0.48144624479E+02  0.35603296968E+03  0.44742174374E+03  0.26284379968E+03 0.  0.
         25    1    4    4    0    0 -0.39137977963E+01  0.24031261433E+01  0.21727100117E+03  0.25074945439E+03  0.12509000000E+03 0.  0.
         25    1    4    4    0    0 -0.41052560498E+02  0.45741498335E+02  0.13876196851E+03  0.19667228935E+03  0.12509000000E+03 0.  0.
         25    1    3    3    0    0  0.44966358294E+02 -0.48144624479E+02  0.56162693609E+03  0.57914782369E+03  0.12509000000E+03 0.  0.
<mgrwt>
<rscale>  2 0.46015799E+03</rscale>
<asrwt>0</asrwt>
<pdfrwt beam="1">  1       21 0.14295804E+00 0.46015799E+03</pdfrwt>
<pdfrwt beam="2">  1       21 0.80080639E-02 0.46015799E+03</pdfrwt>
<totfact> 0.36650732E+04</totfact>
</mgrwt>
</event>
<event>
 7    0  0.4709932E-002  0.4481584E+03  0.7546771E-02  0.1028273E+00
         21   -1    0    0  502  501  0.00000000000E+00  0.00000000000E+00  0.15526905261E+03  0.15526905261E+03  0.00000000000E+00 0.  1.
         21   -1    0    0  501  502 -0.00000000000E+00 -0.00000000000E+00 -0.32338377367E+03  0.32338377367E+03  0.00000000000E+00 0.  1.
      99926    2    1    2    0    0  0.14210854715E-13 -0.14210854715E-13 -0.16811472106E+03  0.47865282627E+03  0.44815841916E+03 0.  0.
      99925    2    3    3    0    0 -0.67396979578E+02  0.75171604758E+02 -0.69812404946E+02  0.29022783729E+03  0.26299297070E+03 0.  0.
         25    1    4    4    0    0 -0.56326180527E+02  0.71604750956E+02 -0.24502916170E+02  0.15667731161E+03  0.12509000000E+03 0.  0.
         25    1    3    3    0    0  0.67396979578E+02 -0.75171604758E+02 -0.98302316117E+02  0.18842498898E+03  0.12509000000E+03 0.  0.
         25    1    4    4    0    0 -0.11070799051E+02  0.35668538018E+01 -0.45309488776E+02  0.13355052569E+03  0.12509000000E+03 0.  0.
<mgrwt>
<rscale>  2 0.44815842E+03</rscale>
<asrwt>0</asrwt>
<pdfrwt beam="1">  1       21 0.22833684E-01 0.44815842E+03</pdfrwt>
<pdfrwt beam="2">  1       21 0.47556437E-01 0.44815842E+03</pdfrwt>
<totfact> 0.70552739E+04</totfact>
</mgrwt>
</event>
<event>
 6    0  0.4709932E-002  0.4618285E+03  0.7546771E-02  0.1024252E+00
         21   -1    0    0  502  501  0.00000000000E+00  0.00000000000E+00  0.25460783040E+03  0.25460783040E+03  0.00000000000E+00 0.  1.
         21   -1    0    0  501  502 -0.00000000000E+00 -0.00000000000E+00 -0.20942555319E+03  0.20942555319E+03  0.00000000000E+00 0.  1.
      99926    2    1    2    0    0  0.14210854715E-13  0.00000000000E+00  0.45182277214E+02  0.46403338359E+03  0.46182847781E+03 0.  0.
         25    1    3    3    0    0  0.42280227366E+02 -0.23370874091E+01  0.87460147229E+01  0.13235210794E+03  0.12509000000E+03 0.  0.
         25    1    3    3    0    0  0.71838858906E+02 -0.48393383178E+02  0.56282960885E+01  0.15225612303E+03  0.12509000000E+03 0.  0.
         25    1    3    3    0    0 -0.11411908627E+03  0.50730470587E+02  0.30807966403E+02  0.17942515262E+03  0.12509000000E+03 0.  0.
<mgrwt>
<rscale>  2 0.46182848E+03</rscale>
<asrwt>0</asrwt>
<pdfrwt beam="1">  1       21 0.37442328E-01 0.46182848E+03</pdfrwt>
<pdfrwt beam="2">  1       21 0.30797875E-01 0.46182848E+03</pdfrwt>
<totfact> 0.64313063E+04</totfact>
</mgrwt>
</event>
<event>
 7    0  0.4709932E-002  0.4627289E+03  0.7546771E-02  0.1023993E+00
         21   -1    0    0  502  501  0.00000000000E+00  0.00000000000E+00  0.74124840122E+03  0.74124840122E+03  0.00000000000E+00 0. -1.
         21   -1    0    0  501  502 -0.00000000000E+00 -0.00000000000E+00 -0.72215335880E+02  0.72215335880E+02  0.00000000000E+00 0. -1.
      99926    2    1    2    0    0  0.17763568394E-14  0.00000000000E+00  0.66903306534E+03  0.81346373710E+03  0.46272887208E+03 0.  0.
      99925    2    3    3    0    0  0.10147889295E+02 -0.47329970161E+02  0.22456056918E+03  0.34919397320E+03  0.26299406068E+03 0.  0.
         25    1    4    4    0    0  0.17082746385E+02 -0.34563238861E+02  0.16290918856E+03  0.20898169662E+03  0.12509000000E+03 0.  0.
         25    1    4    4    0    0 -0.69348570896E+01 -0.12766731300E+02  0.61651380624E+02  0.14021227658E+03  0.12509000000E+03 0.  0.
         25    1    3    3    0    0 -0.10147889295E+02  0.47329970161E+02  0.44447249616E+03  0.46426976390E+03  0.12509000000E+03 0.  0.
<mgrwt>
<rscale>  2 0.46272887E+03</rscale>
<asrwt>0</asrwt>
<pdfrwt beam="1">  1       21 0.10900711E+00 0.46272887E+03</pdfrwt>
<pdfrwt beam="2">  1       21 0.10619903E-01 0.46272887E+03</pdfrwt>
<totfact> 0.44367795E+04</totfact>
</mgrwt>
</event>
<event>
 7    0  0.4709932E-002  0.4538160E+03  0.7546771E-02  0.1026590E+00
         21   -1    0    0  502  501  0.00000000000E+00  0.00000000000E+00  0.31091290531E+03  0.31091290531E+03  0.00000000000E+00 0. -1.
         21   -1    0    0  501  502 -0.00000000000E+00 -0.00000000000E+00 -0.16560019459E+03  0.16560019459E+03  0.00000000000E+00 0. -1.
      99926    2    1    2    0    0  0.00000000000E+00  0.00000000000E+00  0.14531271071E+03  0.47651309990E+03  0.45381598747E+03 0.  0.
      99925    2    3    3    0    0  0.66266331132E+02  0.89474667573E+02  0.10735056891E+03  0.30479945720E+03  0.26264352588E+03 0.  0.
         25    1    4    4    0    0  0.17504960428E+02  0.45388753824E+01  0.48843030615E+02  0.13549972239E+03  0.12509000000E+03 0.  0.
         25    1    4    4    0    0  0.48761370704E+02  0.84935792190E+02  0.58507538297E+02  0.16929973481E+03  0.12509000000E+03 0.  0.
         25    1    3    3    0    0 -0.66266331132E+02 -0.89474667573E+02  0.37962141798E+02  0.17171364270E+03  0.12509000000E+03 0.  0.
<mgrwt>
<rscale>  2 0.45381599E+03</rscale>
<asrwt>0</asrwt>
<pdfrwt beam="1">  1       21 0.45722486E-01 0.45381599E+03</pdfrwt>
<pdfrwt beam="2">  1       21 0.24352970E-01 0.45381599E+03</pdfrwt>
<totfact> 0.67587701E+04</totfact>
</mgrwt>
</event>
<event>
 7    0  0.4709932E-002  0.4384321E+03  0.7546771E-02  0.1031229E+00
         21   -1    0    0  502  501  0.00000000000E+00  0.00000000000E+00  0.24754752867E+04  0.24754752867E+04  0.00000000000E+00 0. -1.
         21   -1    0    0  501  502 -0.00000000000E+00 -0.00000000000E+00 -0.19412710776E+02  0.19412710776E+02  0.00000000000E+00 0. -1.
      99926    2    1    2    0    0  0.00000000000E+00 -0.15543122345E-14  0.24560625759E+04  0.24948879975E+04  0.43843214195E+03 0.  0.
      99925    2    3    3    0    0 -0.95792361331E+02 -0.12812303802E+01  0.16565381172E+04  0.16799863554E+04  0.26278851306E+03 0.  0.
         25    1    4    4    0    0 -0.35704335424E+02 -0.36772162405E+02  0.88485470069E+03  0.89512141128E+03  0.12509000000E+03 0.  0.
         25    1    3    3    0    0  0.95792361331E+02  0.12812303802E+01  0.79952445873E+03  0.81490164207E+03  0.12509000000E+03 0.  0.
         25    1    4    4    0    0 -0.60088025907E+02  0.35490932024E+02  0.77168341650E+03  0.78486494413E+03  0.12509000000E+03 0.  0.
<mgrwt>
<rscale>  2 0.43843214E+03</rscale>
<asrwt>0</asrwt>
<pdfrwt beam="1">  1       21 0.36404027E+00 0.43843214E+03</pdfrwt>
<pdfrwt beam="2">  1       21 0.28548121E-02 0.43843214E+03</pdfrwt>
<totfact> 0.81892611E+03</totfact>
</mgrwt>
</event>
<event>
 7    0  0.4709932E-002  0.4591862E+03  0.7546771E-02  0.1025018E+00
         21   -1    0    0  502  501  0.00000000000E+00  0.00000000000E+00  0.11721346692E+03  0.11721346692E+03  0.00000000000E+00 0.  1.
         21   -1    0    0  501  502 -0.00000000000E+00 -0.00000000000E+00 -0.44971783026E+03  0.44971783026E+03  0.00000000000E+00 0.  1.
      99926    2    1    2    0    0  0.00000000000E+00  0.17763568394E-14 -0.33250436334E+03  0.56693129718E+03  0.45918617584E+03 0.  0.
      99925    2    3    3    0    0  0.43827623522E+02 -0.66019084799E+01 -0.74594463390E+02  0.27688049065E+03  0.26293350177E+03 0.  0.
         25    1    4    4    0    0  0.14574739079E+02  0.10071130745E+02  0.20648505553E+01  0.12635514395E+03  0.12509000000E+03 0.  0.
         25    1    4    4    0    0  0.29252884443E+02 -0.16673039225E+02 -0.76659313945E+02  0.15052534670E+03  0.12509000000E+03 0.  0.
         25    1    3    3    0    0 -0.43827623522E+02  0.66019084799E+01 -0.25790989995E+03  0.29005080653E+03  0.12509000000E+03 0.  0.
<mgrwt>
<rscale>  2 0.45918618E+03</rscale>
<asrwt>0</asrwt>
<pdfrwt beam="1">  1       21 0.17237274E-01 0.45918618E+03</pdfrwt>
<pdfrwt beam="2">  1       21 0.66134976E-01 0.45918618E+03</pdfrwt>
<totfact> 0.58790681E+04</totfact>
</mgrwt>
</event>
<event>
 7    0  0.4709932E-002  0.4519630E+03  0.7546771E-02  0.1027138E+00
         21   -1    0    0  502  501  0.00000000000E+00  0.00000000000E+00  0.23989549544E+04  0.23989549544E+04  0.00000000000E+00 0.  1.
         21   -1    0    0  501  502 -0.00000000000E+00 -0.00000000000E+00 -0.21287453992E+02  0.21287453992E+02  0.00000000000E+00 0.  1.
      99926    2    1    2    0    0  0.00000000000E+00 -0.35527136788E-14  0.23776675004E+04  0.24202424084E+04  0.45196302158E+03 0.  0.
      99925    2    3    3    0    0 -0.40355704023E+02  0.30250483603E+02  0.20254585472E+04  0.20430921341E+04  0.26305791614E+03 0.  0.
         25    1    3    3    0    0  0.40355704023E+02 -0.30250483603E+02  0.35220895322E+03  0.37715027434E+03  0.12509000000E+03 0.  0.
         25    1    4    4    0    0 -0.24420313927E+02 -0.24071481585E+01  0.72453934184E+03  0.73566766414E+03  0.12509000000E+03 0.  0.
         25    1    4    4    0    0 -0.15935390096E+02  0.32657631761E+02  0.13009192054E+04  0.13074244699E+04  0.12509000000E+03 0.  0.
<mgrwt>
<rscale>  2 0.45196302E+03</rscale>
<asrwt>0</asrwt>
<pdfrwt beam="1">  1       21 0.35278731E+00 0.45196302E+03</pdfrwt>
<pdfrwt beam="2">  1       21 0.31305096E-02 0.45196302E+03</pdfrwt>
<totfact> 0.81738609E+03</totfact>
</mgrwt>
</event>
<event>
 7    0  0.4709932E-002  0.4599444E+03  0.7546771E-02  0.1024797E+00
         21   -1    0    0  502  501  0.00000000000E+00  0.00000000000E+00  0.10176294032E+03  0.10176294032E+03  0.00000000000E+00 0. -1.
         21   -1    0    0  501  502 -0.00000000000E+00 -0.00000000000E+00 -0.51970988864E+03  0.51970988864E+03  0.00000000000E+00 0. -1.
      99926    2    1    2    0    0 -0.14210854715E-13  0.71054273576E-14 -0.41794694832E+03  0.62147282895E+03  0.45994437220E+03 0.  0.
      99925    2    3    3    0    0 -0.66408568827E+02  0.49096140379E+02 -0.14922466680E+03  0.31377215996E+03  0.26337129337E+03 0.  0.
         25    1    4    4    0    0 -0.75019793246E+02  0.32817390334E+02 -0.77313519303E+02  0.16831470184E+03  0.12509000000E+03 0.  0.
         25    1    3    3    0    0  0.66408568827E+02 -0.49096140379E+02 -0.26872228153E+03  0.30770066900E+03  0.12509000000E+03 0.  0.
         25    1    4    4    0    0  0.86112244194E+01  0.16278750046E+02 -0.71911147494E+02  0.14545745812E+03  0.12509000000E+03 0.  0.
<mgrwt>
<rscale>  2 0.45994437E+03</rscale>
<asrwt>0</asrwt>
<pdfrwt beam="1">  1       21 0.14965138E-01 0.45994437E+03</pdfrwt>
<pdfrwt beam="2">  1       21 0.76427924E-01 0.45994437E+03</pdfrwt>
<totfact> 0.55189139E+04</totfact>
</mgrwt>
</event>
<event>
 7    0  0.4709932E-002  0.4602691E+03  0.7546771E-02  0.1024703E+00
         21   -1    0    0  502  501  0.00000000000E+00  0.00000000000E+00  0.52266959992E+02  0.52266959992E+02  0.00000000000E+00 0. -1.
         21   -1    0    0  501  502 -0.00000000000E+00 -0.00000000000E+00 -0.10132960880E+04  0.10132960880E+04  0.00000000000E+00 0. -1.
      99926    2    1    2    0    0  0.00000000000E+00  0.00000000000E+00 -0.96102912806E+03  0.10655630480E+04  0.46026907823E+03 0.  0.
      99925    2    3    3    0    0 -0.59625431514E+02  0.41006272616E+02 -0.81774552247E+03  0.86205775030E+03  0.26305725396E+03 0.  0.
         25    1    4    4    0    0 -0.59589056044E+02  0.13382342413E+02 -0.33895568575E+03  0.36642653792E+03  0.12509000000E+03 0.  0.
         25    1    3    3    0    0  0.59625431514E+02 -0.41006272616E+02 -0.14328360559E+03  0.20350529774E+03  0.12509000000E+03 0.  0.
         25    1    4    4    0    0 -0.36375469965E-01  0.27623930202E+02 -0.47878983672E+03  0.49563121238E+03  0.12509000000E+03 0.  0.
<mgrwt>
<rscale>  2 0.46026908E+03</rscale>
<asrwt>0</asrwt>
<pdfrwt beam="1">  1       21 0.76863169E-02 0.46026908E+03</pdfrwt>
<pdfrwt beam="2">  1       21 0.14901414E+00 0.46026908E+03</pdfrwt>
<totfact> 0.35239946E+04</totfact>
</mgrwt>
</event>
<event>
 7    0  0.4709932E-002  0.4341969E+03  0.7546771E-02  0.1032542E+00
         21   -1    0    0  502  501  0.00000000000E+00  0.00000000000E+00  0.10099793507E+03  0.10099793507E+03  0.00000000000E+00 0. -1.
         21   -1    0    0  501  502 -0.00000000000E+00 -0.00000000000E+00 -0.46666038338E+03  0.46666038338E+03  0.00000000000E+00 0. -1.
      99926    2    1    2    0    0 -0.17763568394E-14  0.00000000000E+00 -0.36566244831E+03  0.56765831845E+03  0.43419689129E+03 0.  0.
      99925    2    3    3    0    0 -0.14009383434E+02  0.35470326804E+02 -0.12496276622E+03  0.29372721038E+03  0.26306952365E+03 0.  0.
         25    1    4    4    0    0  0.12623574297E+02  0.41726186077E+02 -0.92688074533E+02  0.16167565213E+03  0.12509000000E+03 0.  0.
         25    1    3    3    0    0  0.14009383434E+02 -0.35470326804E+02 -0.24069968209E+03  0.27393110807E+03  0.12509000000E+03 0.  0.
         25    1    4    4    0    0 -0.26632957731E+02 -0.62558592726E+01 -0.32274691685E+02  0.13205155825E+03  0.12509000000E+03 0.  0.
<mgrwt>
<rscale>  2 0.43419689E+03</rscale>
<asrwt>0</asrwt>
<pdfrwt beam="1">  1       21 0.14852638E-01 0.43419689E+03</pdfrwt>
<pdfrwt beam="2">  1       21 0.68626526E-01 0.43419689E+03</pdfrwt>
<totfact> 0.71820339E+04</totfact>
</mgrwt>
</event>
<event>
 7    0  0.4709932E-002  0.4442342E+03  0.7546771E-02  0.1029456E+00
         21   -1    0    0  502  501  0.00000000000E+00  0.00000000000E+00  0.77581794272E+03  0.77581794272E+03  0.00000000000E+00 0. -1.
         21   -1    0    0  501  502 -0.00000000000E+00 -0.00000000000E+00 -0.63592257983E+02  0.63592257983E+02  0.00000000000E+00 0. -1.
      99926    2    1    2    0    0  0.00000000000E+00  0.00000000000E+00  0.71222568473E+03  0.83941020070E+03  0.44423423894E+03 0.  0.
      99925    2    3    3    0    0 -0.37011859186E+02  0.11428945618E+02  0.63251078142E+03  0.68610503957E+03  0.26300140341E+03 0.  0.
         25    1    4    4    0    0 -0.22518153391E+02  0.42702816774E+02  0.36340661969E+03  0.38735316848E+03  0.12509000000E+03 0.  0.
         25    1    3    3    0    0  0.37011859186E+02 -0.11428945618E+02  0.79714903318E+02  0.15330516113E+03  0.12509000000E+03 0.  0.
         25    1    4    4    0    0 -0.14493705796E+02 -0.31273871156E+02  0.26910416172E+03  0.29875187109E+03  0.12509000000E+03 0.  0.
<mgrwt>
<rscale>  2 0.44423424E+03</rscale>
<asrwt>0</asrwt>
<pdfrwt beam="1">  1       21 0.11409087E+00 0.44423424E+03</pdfrwt>
<pdfrwt beam="2">  1       21 0.93518031E-02 0.44423424E+03</pdfrwt>
<totfact> 0.50008720E+04</totfact>
</mgrwt>
</event>
<event>
 7    0  0.4709932E-002  0.4440523E+03  0.7546771E-02  0.1029511E+00
         21   -1    0    0  502  501  0.00000000000E+00  0.00000000000E+00  0.17681817971E+03  0.17681817971E+03  0.00000000000E+00 0. -1.
         21   -1    0    0  501  502 -0.00000000000E+00 -0.00000000000E+00 -0.27879263028E+03  0.27879263028E+03  0.00000000000E+00 0. -1.
      99926    2    1    2    0    0  0.88817841970E-15 -0.14210854715E-13 -0.10197445056E+03  0.45561080999E+03  0.44405227351E+03 0.  0.
      99925    2    3    3    0    0  0.53724739001E+01 -0.85317241190E+02 -0.12286804733E+03  0.30266655346E+03  0.26306385234E+03 0.  0.
         25    1    4    4    0    0 -0.56345266909E+01 -0.33551342620E+02 -0.10263135839E+03  0.16534250605E+03  0.12509000000E+03 0.  0.
         25    1    3    3    0    0 -0.53724739001E+01  0.85317241190E+02  0.20893596770E+02  0.15294425653E+03  0.12509000000E+03 0.  0.
         25    1    4    4    0    0  0.11007000591E+02 -0.51765898570E+02 -0.20236688943E+02  0.13732404741E+03  0.12509000000E+03 0.  0.
<mgrwt>
<rscale>  2 0.44405227E+03</rscale>
<asrwt>0</asrwt>
<pdfrwt beam="1">  1       21 0.26002674E-01 0.44405227E+03</pdfrwt>
<pdfrwt beam="2">  1       21 0.40998916E-01 0.44405227E+03</pdfrwt>
<totfact> 0.74809412E+04</totfact>
</mgrwt>
</event>
<event>
 7    0  0.4709932E-002  0.4460368E+03  0.7546771E-02  0.1028911E+00
         21   -1    0    0  502  501  0.00000000000E+00  0.00000000000E+00  0.11763349149E+03  0.11763349149E+03  0.00000000000E+00 0.  1.
         21   -1    0    0  501  502 -0.00000000000E+00 -0.00000000000E+00 -0.42281493322E+03  0.42281493322E+03  0.00000000000E+00 0.  1.
      99926    2    1    2    0    0  0.00000000000E+00  0.00000000000E+00 -0.30518144173E+03  0.54044842471E+03  0.44603675566E+03 0.  0.
      99925    2    3    3    0    0  0.38010149799E+02  0.77738111503E+02 -0.26477947102E+03  0.38307049486E+03  0.26295788692E+03 0.  0.
         25    1    4    4    0    0  0.97914459435E+01  0.94876717963E+00 -0.98754982283E+02  0.15967725949E+03  0.12509000000E+03 0.  0.
         25    1    3    3    0    0 -0.38010149799E+02 -0.77738111503E+02 -0.40401970709E+02  0.15737792985E+03  0.12509000000E+03 0.  0.
         25    1    4    4    0    0  0.28218703855E+02  0.76789344323E+02 -0.16602448873E+03  0.22339323537E+03  0.12509000000E+03 0.  0.
<mgrwt>
<rscale>  2 0.44603676E+03</rscale>
<asrwt>0</asrwt>
<pdfrwt beam="1">  1       21 0.17299043E-01 0.44603676E+03</pdfrwt>
<pdfrwt beam="2">  1       21 0.62178666E-01 0.44603676E+03</pdfrwt>
<totfact> 0.67139260E+04</totfact>
</mgrwt>
</event>
<event>
 7    0  0.4709932E-002  0.4582003E+03  0.7546771E-02  0.1025304E+00
         21   -1    0    0  502  501  0.00000000000E+00  0.00000000000E+00  0.55284435420E+02  0.55284435420E+02  0.00000000000E+00 0. -1.
         21   -1    0    0  501  502 -0.00000000000E+00 -0.00000000000E+00 -0.94939690932E+03  0.94939690932E+03  0.00000000000E+00 0. -1.
      99926    2    1    2    0    0 -0.17763568394E-14 -0.35527136788E-14 -0.89411247390E+03  0.10046813447E+04  0.45820027115E+03 0.  0.
      99925    2    3    3    0    0  0.12321606998E+02  0.17158360115E+02 -0.31043828806E+03  0.40737966666E+03  0.26294491970E+03 0.  0.
         25    1    4    4    0    0  0.15183165484E+02 -0.20290716353E+02 -0.11193033950E+03  0.16975909603E+03  0.12509000000E+03 0.  0.
         25    1    4    4    0    0 -0.28615584858E+01  0.37449076468E+02 -0.19850794856E+03  0.23762057063E+03  0.12509000000E+03 0.  0.
         25    1    3    3    0    0 -0.12321606998E+02 -0.17158360115E+02 -0.58367418584E+03  0.59730167808E+03  0.12509000000E+03 0.  0.
<mgrwt>
<rscale>  2 0.45820027E+03</rscale>
<asrwt>0</asrwt>
<pdfrwt beam="1">  1       21 0.81300651E-02 0.45820027E+03</pdfrwt>
<pdfrwt beam="2">  1       21 0.13961717E+00 0.45820027E+03</pdfrwt>
<totfact> 0.38025937E+04</totfact>
</mgrwt>
</event>
<event>
 7    0  0.4709932E-002  0.4491282E+03  0.7546771E-02  0.1027982E+00
         21   -1    0    0  502  501  0.00000000000E+00  0.00000000000E+00  0.76204814775E+03  0.76204814775E+03  0.00000000000E+00 0.  1.
         21   -1    0    0  501  502 -0.00000000000E+00 -0.00000000000E+00 -0.66175667440E+02  0.66175667440E+02  0.00000000000E+00 0.  1.
      99926    2    1    2    0    0  0.00000000000E+00  0.17763568394E-14  0.69587248031E+03  0.82822381519E+03  0.44912824360E+03 0.  0.
      99925    2    3    3    0    0  0.91123730607E+02 -0.12235794036E+02  0.54300257219E+03  0.61034778199E+03  0.26309574804E+03 0.  0.
         25    1    4    4    0    0  0.33853922184E+02 -0.36716502876E+01  0.34948916552E+03  0.37275964639E+03  0.12509000000E+03 0.  0.
         25    1    3    3    0    0 -0.91123730607E+02  0.12235794036E+02  0.15286990813E+03  0.21787603321E+03  0.12509000000E+03 0.  0.
         25    1    4    4    0    0  0.57269808423E+02 -0.85641437488E+01  0.19351340667E+03  0.23758813559E+03  0.12509000000E+03 0.  0.
<mgrwt>
<rscale>  2 0.44912824E+03</rscale>
<asrwt>0</asrwt>
<pdfrwt beam="1">  1       21 0.11206590E+00 0.44912824E+03</pdfrwt>
<pdfrwt beam="2">  1       21 0.97317162E-02 0.44912824E+03</pdfrwt>
<totfact> 0.48631851E+04</totfact>
</mgrwt>
</event>
<event>
 7    0  0.4709932E-002  0.4621648E+03  0.7546771E-02  0.1024155E+00
         21   -1    0    0  502  501  0.00000000000E+00  0.00000000000E+00  0.11669364677E+04  0.11669364677E+04  0.00000000000E+00 0.  1.
         21   -1    0    0  501  502 -0.00000000000E+00 -0.00000000000E+00 -0.45760052622E+02  0.45760052622E+02  0.00000000000E+00 0.  1.
      99926    2    1    2    0    0 -0.14210854715E-13  0.00000000000E+00  0.11211764151E+04  0.12126965204E+04  0.46216479386E+03 0.  0.
      99925    2    3    3    0    0 -0.11124068042E+03  0.21990639857E+02  0.80100904468E+03  0.85073971297E+03  0.26321947563E+03 0.  0.
         25    1    4    4    0    0 -0.55413510400E+02 -0.23781878667E+02  0.45728892264E+03  0.47790888437E+03  0.12509000000E+03 0.  0.
         25    1    4    4    0    0 -0.55827170022E+02  0.45772518524E+02  0.34372012203E+03  0.37283082860E+03  0.12509000000E+03 0.  0.
         25    1    3    3    0    0  0.11124068042E+03 -0.21990639857E+02  0.32016737045E+03  0.36195680740E+03  0.12509000000E+03 0.  0.
<mgrwt>
<rscale>  2 0.46216479E+03</rscale>
<asrwt>0</asrwt>
<pdfrwt beam="1">  1       21 0.17160829E+00 0.46216479E+03</pdfrwt>
<pdfrwt beam="2">  1       21 0.67294202E-02 0.46216479E+03</pdfrwt>
<totfact> 0.30044101E+04</totfact>
</mgrwt>
</event>
<event>
 7    0  0.4709932E-002  0.4500771E+03  0.7546771E-02  0.1027699E+00
         21   -1    0    0  502  501  0.00000000000E+00  0.00000000000E+00  0.10222478998E+03  0.10222478998E+03  0.00000000000E+00 0. -1.
         21   -1    0    0  501  502 -0.00000000000E+00 -0.00000000000E+00 -0.49540177807E+03  0.49540177807E+03  0.00000000000E+00 0. -1.
      99926    2    1    2    0    0  0.00000000000E+00  0.71054273576E-14 -0.39317698809E+03  0.59762656804E+03  0.45007707214E+03 0.  0.
      99925    2    3    3    0    0  0.84931632463E+02 -0.59841829814E+02 -0.20716694501E+03  0.35056044124E+03  0.26302101259E+03 0.  0.
         25    1    4    4    0    0  0.63970042530E+01 -0.14668032579E+02 -0.11516486328E+03  0.17078210292E+03  0.12509000000E+03 0.  0.
         25    1    3    3    0    0 -0.84931632463E+02  0.59841829814E+02 -0.18601004308E+03  0.24706612681E+03  0.12509000000E+03 0.  0.
         25    1    4    4    0    0  0.78534628210E+02 -0.45173797235E+02 -0.92002081728E+02  0.17977833831E+03  0.12509000000E+03 0.  0.
<mgrwt>
<rscale>  2 0.45007707E+03</rscale>
<asrwt>0</asrwt>
<pdfrwt beam="1">  1       21 0.15033057E-01 0.45007707E+03</pdfrwt>
<pdfrwt beam="2">  1       21 0.72853203E-01 0.45007707E+03</pdfrwt>
<totfact> 0.61169536E+04</totfact>
</mgrwt>
</event>
<event>
 7    0  0.4709932E-002  0.4524504E+03  0.7546771E-02  0.1026994E+00
         21   -1    0    0  502  501  0.00000000000E+00  0.00000000000E+00  0.29595445372E+04  0.29595445372E+04  0.00000000000E+00 0. -1.
         21   -1    0    0  501  502 -0.00000000000E+00 -0.00000000000E+00 -0.17292475565E+02  0.17292475565E+02  0.00000000000E+00 0. -1.
      99926    2    1    2    0    0  0.35527136788E-14  0.00000000000E+00  0.29422520616E+04  0.29768370127E+04  0.45245044632E+03 0.  0.
      99925    2    3    3    0    0 -0.14015058905E+02 -0.42787285023E+02  0.11869741786E+04  0.12165316051E+04  0.26270567524E+03 0.  0.
         25    1    4    4    0    0 -0.34389548088E+02 -0.45459914825E+02  0.69684398671E+03  0.71027339440E+03  0.12509000000E+03 0.  0.
         25    1    3    3    0    0  0.14015058905E+02  0.42787285023E+02  0.17552778830E+04  0.17603054077E+04  0.12509000000E+03 0.  0.
         25    1    4    4    0    0  0.20374489184E+02  0.26726298017E+01  0.49013019189E+03  0.50625821066E+03  0.12509000000E+03 0.  0.
<mgrwt>
<rscale>  2 0.45245045E+03</rscale>
<asrwt>0</asrwt>
<pdfrwt beam="1">  1       21 0.43522679E+00 0.45245045E+03</pdfrwt>
<pdfrwt beam="2">  1       21 0.25430132E-02 0.45245045E+03</pdfrwt>
<totfact> 0.34461858E+03</totfact>
</mgrwt>
</event>
<event>
 7    0  0.4709932E-002  0.4562202E+03  0.7546771E-02  0.1025883E+00
         21   -1    0    0  502  501  0.00000000000E+00  0.00000000000E+00  0.13589584497E+03  0.13589584497E+03  0.00000000000E+00 0.  1.
         21   -1    0    0  501  502 -0.00000000000E+00 -0.00000000000E+00 -0.38289783546E+03  0.38289783546E+03  0.00000000000E+00 0.  1.
      99926    2    1    2    0    0  0.00000000000E+00  0.00000000000E+00 -0.24700199049E+03  0.51879368043E+03  0.45622023142E+03 0.  0.
      99925    2    3    3    0    0  0.52237478624E+01 -0.10349715867E+03 -0.10044415885E+03  0.30001147021E+03  0.26301882788E+03 0.  0.
         25    1    4    4    0    0 -0.19724688245E+01 -0.46810038078E+02 -0.70282419785E+01  0.13376088585E+03  0.12509000000E+03 0.  0.
         25    1    3    3    0    0 -0.52237478624E+01  0.10349715867E+03 -0.14655783164E+03  0.21878221022E+03  0.12509000000E+03 0.  0.
         25    1    4    4    0    0  0.71962166869E+01 -0.56687120594E+02 -0.93415916871E+02  0.16625058436E+03  0.12509000000E+03 0.  0.
<mgrwt>
<rscale>  2 0.45622023E+03</rscale>
<asrwt>0</asrwt>
<pdfrwt beam="1">  1       21 0.19984684E-01 0.45622023E+03</pdfrwt>
<pdfrwt beam="2">  1       21 0.56308504E-01 0.45622023E+03</pdfrwt>
<totfact> 0.63353939E+04</totfact>
</mgrwt>
</event>
<event>
 7    0  0.4709932E-002  0.4568162E+03  0.7546771E-02  0.1025709E+00
         21   -1    0    0  502  501  0.00000000000E+00  0.00000000000E+00  0.57000722826E+02  0.57000722826E+02  0.00000000000E+00 0.  1.
         21   -1    0    0  501  502 -0.00000000000E+00 -0.00000000000E+00 -0.91525624598E+03  0.91525624598E+03  0.00000000000E+00 0.  1.
      99926    2    1    2    0    0  0.00000000000E+00  0.71054273576E-14 -0.85825552315E+03  0.97225696880E+03  0.45681623260E+03 0.  0.
      99925    2    3    3    0    0 -0.62337705971E+02  0.36950519518E+02 -0.72909752289E+03  0.77839973368E+03  0.26281479606E+03 0.  0.
         25    1    4    4    0    0 -0.11398797488E+02 -0.14812867572E+02 -0.38107600623E+03  0.40151685426E+03  0.12509000000E+03 0.  0.
         25    1    4    4    0    0 -0.50938908483E+02  0.51763387089E+02 -0.34802151667E+03  0.37688287942E+03  0.12509000000E+03 0.  0.
         25    1    3    3    0    0  0.62337705971E+02 -0.36950519518E+02 -0.12915800026E+03  0.19385723512E+03  0.12509000000E+03 0.  0.
<mgrwt>
<rscale>  2 0.45681623E+03</rscale>
<asrwt>0</asrwt>
<pdfrwt beam="1">  1       21 0.83824596E-02 0.45681623E+03</pdfrwt>
<pdfrwt beam="2">  1       21 0.13459650E+00 0.45681623E+03</pdfrwt>
<totfact> 0.39685955E+04</totfact>
</mgrwt>
</event>
<event>
 7    0  0.4709932E-002  0.4568888E+03  0.7546771E-02  0.1025687E+00
         21   -1    0    0  502  501  0.00000000000E+00  0.00000000000E+00  0.40916694589E+02  0.40916694589E+02  0.00000000000E+00 0.  1.
         21   -1    0    0  501  502 -0.00000000000E+00 -0.00000000000E+00 -0.12754415801E+04  0.12754415801E+04  0.00000000000E+00 0.  1.
      99926    2    1    2    0    0  0.00000000000E+00  0.00000000000E+00 -0.12345248855E+04  0.13163582747E+04  0.45688884249E+03 0.  0.
      99925    2    3    3    0    0  0.10531063943E+02  0.35061110794E+02 -0.46141966591E+03  0.53234336828E+03  0.26294708377E+03 0.  0.
         25    1    3    3    0    0 -0.10531063943E+02 -0.35061110794E+02 -0.77310521958E+03  0.78401490639E+03  0.12509000000E+03 0.  0.
         25    1    4    4    0    0  0.13449853424E+01  0.34249862241E+02 -0.30787301980E+03  0.33407808439E+03  0.12509000000E+03 0.  0.
         25    1    4    4    0    0  0.91860786005E+01  0.81124855288E+00 -0.15354664611E+03  0.19826528389E+03  0.12509000000E+03 0.  0.
<mgrwt>
<rscale>  2 0.45688884E+03</rscale>
<asrwt>0</asrwt>
<pdfrwt beam="1">  1       21 0.60171616E-02 0.45688884E+03</pdfrwt>
<pdfrwt beam="2">  1       21 0.18756492E+00 0.45688884E+03</pdfrwt>
<totfact> 0.28226426E+04</totfact>
</mgrwt>
</event>
<event>
 7    0  0.4709932E-002  0.4604870E+03  0.7546771E-02  0.1024640E+00
         21   -1    0    0  502  501  0.00000000000E+00  0.00000000000E+00  0.18214080179E+03  0.18214080179E+03  0.00000000000E+00 0. -1.
         21   -1    0    0  501  502 -0.00000000000E+00 -0.00000000000E+00 -0.29104991146E+03  0.29104991146E+03  0.00000000000E+00 0. -1.
      99926    2    1    2    0    0  0.13322676296E-14  0.00000000000E+00 -0.10890910967E+03  0.47319071325E+03  0.46048697803E+03 0.  0.
      99925    2    3    3    0    0  0.35216998826E+01 -0.10765351824E+03 -0.17990340306E+02  0.28473537880E+03  0.26296178664E+03 0.  0.
         25    1    4    4    0    0  0.24762153568E+02 -0.17944721816E+02 -0.86559070321E+01  0.12906436424E+03  0.12509000000E+03 0.  0.
         25    1    4    4    0    0 -0.21240453686E+02 -0.89708796426E+02 -0.93344332734E+01  0.15567101456E+03  0.12509000000E+03 0.  0.
         25    1    3    3    0    0 -0.35216998826E+01  0.10765351824E+03 -0.90918769364E+02  0.18845533445E+03  0.12509000000E+03 0.  0.
<mgrwt>
<rscale>  2 0.46048698E+03</rscale>
<asrwt>0</asrwt>
<pdfrwt beam="1">  1       21 0.26785412E-01 0.46048698E+03</pdfrwt>
<pdfrwt beam="2">  1       21 0.42801457E-01 0.46048698E+03</pdfrwt>
<totfact> 0.64352217E+04</totfact>
</mgrwt>
</event>
<event>
 7    0  0.4709932E-002  0.4626252E+03  0.7546771E-02  0.1024023E+00
         21   -1    0    0  502  501  0.00000000000E+00  0.00000000000E+00  0.51371306850E+03  0.51371306850E+03  0.00000000000E+00 0. -1.
         21   -1    0    0  501  502 -0.00000000000E+00 -0.00000000000E+00 -0.10415446419E+03  0.10415446419E+03  0.00000000000E+00 0. -1.
      99926    2    1    2    0    0  0.00000000000E+00 -0.35527136788E-14  0.40955860431E+03  0.61786753269E+03  0.46262515883E+03 0.  0.
      99925    2    3    3    0    0  0.11780662187E+03 -0.23677591805E+02  0.26040567612E+03  0.38910317227E+03  0.26296603204E+03 0.  0.
         25    1    4    4    0    0  0.75902844951E+02  0.21693208880E+02  0.11292978792E+03  0.18609804481E+03  0.12509000000E+03 0.  0.
         25    1    3    3    0    0 -0.11780662187E+03  0.23677591805E+02  0.14915292820E+03  0.22876436042E+03  0.12509000000E+03 0.  0.
         25    1    4    4    0    0  0.41903776914E+02 -0.45370800685E+02  0.14747588820E+03  0.20300512746E+03  0.12509000000E+03 0.  0.
<mgrwt>
<rscale>  2 0.46262516E+03</rscale>
<asrwt>0</asrwt>
<pdfrwt beam="1">  1       21 0.75546038E-01 0.46262516E+03</pdfrwt>
<pdfrwt beam="2">  1       21 0.15316833E-01 0.46262516E+03</pdfrwt>
<totfact> 0.54250279E+04</totfact>
</mgrwt>
</event>
<event>
 7    0  0.4709932E-002  0.4203153E+03  0.7546771E-02  0.1036964E+00
         21   -1    0    0  502  501  0.00000000000E+00  0.00000000000E+00  0.34510833655E+03  0.34510833655E+03  0.00000000000E+00 0.  1.
         21   -1    0    0  501  502 -0.00000000000E+00 -0.00000000000E+00 -0.12797791686E+03  0.12797791686E+03  0.00000000000E+00 0.  1.
      99926    2    1    2    0    0  0.17763568394E-14  0.14210854715E-13  0.21713041969E+03  0.47308625341E+03  0.42031533877E+03 0.  0.
      99925    2    3    3    0    0  0.13943798867E+02  0.69576168739E+02  0.17210237227E+03  0.32238686410E+03  0.26320864503E+03 0.  0.
         25    1    3    3    0    0 -0.13943798867E+02 -0.69576168739E+02  0.45028047423E+02  0.15069938931E+03  0.12509000000E+03 0.  0.
         25    1    4    4    0    0  0.88423739296E+00  0.70902010173E+02  0.67720933487E+02  0.15893869842E+03  0.12509000000E+03 0.  0.
         25    1    4    4    0    0  0.13059561474E+02 -0.13258414338E+01  0.10438143878E+03  0.16344816568E+03  0.12509000000E+03 0.  0.
<mgrwt>
<rscale>  2 0.42031534E+03</rscale>
<asrwt>0</asrwt>
<pdfrwt beam="1">  1       21 0.50751226E-01 0.42031534E+03</pdfrwt>
<pdfrwt beam="2">  1       21 0.18820282E-01 0.42031534E+03</pdfrwt>
<totfact> 0.89399703E+04</totfact>
</mgrwt>
</event>
<event>
 7    0  0.4709932E-002  0.4510736E+03  0.7546771E-02  0.1027402E+00
         21   -1    0    0  502  501  0.00000000000E+00  0.00000000000E+00  0.67529590300E+03  0.67529590300E+03  0.00000000000E+00 0.  1.
         21   -1    0    0  501  502 -0.00000000000E+00 -0.00000000000E+00 -0.75325263444E+02  0.75325263444E+02  0.00000000000E+00 0.  1.
      99926    2    1    2    0    0 -0.17763568394E-14 -0.14210854715E-13  0.59997063955E+03  0.75062116644E+03  0.45107357181E+03 0.  0.
      99925    2    3    3    0    0  0.89167569208E+01  0.10581483453E+03  0.42340062032E+03  0.50958015841E+03  0.26292121404E+03 0.  0.
         25    1    3    3    0    0 -0.89167569208E+01 -0.10581483453E+03  0.17657001923E+03  0.24104100803E+03  0.12509000000E+03 0.  0.
         25    1    4    4    0    0 -0.14740193866E+01  0.83760628822E+02  0.17856582536E+03  0.23356214967E+03  0.12509000000E+03 0.  0.
         25    1    4    4    0    0  0.10390776307E+02  0.22054205712E+02  0.24483479497E+03  0.27601800874E+03  0.12509000000E+03 0.  0.
<mgrwt>
<rscale>  2 0.45107357E+03</rscale>
<asrwt>0</asrwt>
<pdfrwt beam="1">  1       21 0.99308218E-01 0.45107357E+03</pdfrwt>
<pdfrwt beam="2">  1       21 0.11077245E-01 0.45107357E+03</pdfrwt>
<totfact> 0.51819930E+04</totfact>
</mgrwt>
</event>
<event>
 7    0  0.4709932E-002  0.4524150E+03  0.7546771E-02  0.1027004E+00
         21   -1    0    0  502  501  0.00000000000E+00  0.00000000000E+00  0.33063209417E+03  0.33063209417E+03  0.00000000000E+00 0.  1.
         21   -1    0    0  501  502 -0.00000000000E+00 -0.00000000000E+00 -0.15476367211E+03  0.15476367211E+03  0.00000000000E+00 0.  1.
      99926    2    1    2    0    0  0.00000000000E+00  0.00000000000E+00  0.17586842206E+03  0.48539576628E+03  0.45241501748E+03 0.  0.
      99925    2    3    3    0    0  0.66859292140E+02  0.60140987195E+01  0.16263647590E+02  0.27178975873E+03  0.26286656765E+03 0.  0.
         25    1    4    4    0    0  0.64315523097E+02  0.93262801124E+00 -0.18411047578E+02  0.14185848963E+03  0.12509000000E+03 0.  0.
         25    1    3    3    0    0 -0.66859292140E+02 -0.60140987195E+01  0.15960477447E+03  0.21360600755E+03  0.12509000000E+03 0.  0.
         25    1    4    4    0    0  0.25437690433E+01  0.50814707082E+01  0.34674695168E+02  0.12993126910E+03  0.12509000000E+03 0.  0.
<mgrwt>
<rscale>  2 0.45241502E+03</rscale>
<asrwt>0</asrwt>
<pdfrwt beam="1">  1       21 0.48622367E-01 0.45241502E+03</pdfrwt>
<pdfrwt beam="2">  1       21 0.22759363E-01 0.45241502E+03</pdfrwt>
<totfact> 0.67687772E+04</totfact>
</mgrwt>
</event>
<event>
 7    0  0.4709932E-002  0.4550576E+03  0.7546771E-02  0.1026224E+00
         21   -1    0    0  502  501  0.00000000000E+00  0.00000000000E+00  0.47414221764E+03  0.47414221764E+03  0.00000000000E+00 0.  1.
         21   -1    0    0  501  502 -0.00000000000E+00 -0.00000000000E+00 -0.10918527592E+03  0.10918527592E+03  0.00000000000E+00 0.  1.
      99926    2    1    2    0    0 -0.35527136788E-14  0.00000000000E+00  0.36495694172E+03  0.58332749355E+03  0.45505757375E+03 0.  0.
      99925    2    3    3    0    0  0.18430291962E+02  0.81197519244E+02  0.13126559419E+03  0.30549325016E+03  0.26298813069E+03 0.  0.
         25    1    3    3    0    0 -0.18430291962E+02 -0.81197519244E+02  0.23369134753E+03  0.27783424339E+03  0.12509000000E+03 0.  0.
         25    1    4    4    0    0 -0.22407432410E+02  0.66545768250E+02  0.67503294057E+02  0.15853906493E+03  0.12509000000E+03 0.  0.
         25    1    4    4    0    0  0.40837724372E+02  0.14651750994E+02  0.63762300135E+02  0.14695418523E+03  0.12509000000E+03 0.  0.
<mgrwt>
<rscale>  2 0.45505757E+03</rscale>
<asrwt>0</asrwt>
<pdfrwt beam="1">  1       21 0.69726796E-01 0.45505757E+03</pdfrwt>
<pdfrwt beam="2">  1       21 0.16056658E-01 0.45505757E+03</pdfrwt>
<totfact> 0.59689249E+04</totfact>
</mgrwt>
</event>
<event>
 7    0  0.4709932E-002  0.4696902E+03  0.7546771E-02  0.1022008E+00
         21   -1    0    0  502  501  0.00000000000E+00  0.00000000000E+00  0.16071769748E+03  0.16071769748E+03  0.00000000000E+00 0. -1.
         21   -1    0    0  501  502 -0.00000000000E+00 -0.00000000000E+00 -0.34316208604E+03  0.34316208604E+03  0.00000000000E+00 0. -1.
      99926    2    1    2    0    0 -0.14210854715E-13 -0.71054273576E-14 -0.18244438856E+03  0.50387978352E+03  0.46969019718E+03 0.  0.
      99925    2    3    3    0    0 -0.11213478886E+03 -0.55965928409E+02 -0.94404990104E+02  0.30613034662E+03  0.26286325523E+03 0.  0.
         25    1    3    3    0    0  0.11213478886E+03  0.55965928409E+02 -0.88039398453E+02  0.19774943690E+03  0.12509000000E+03 0.  0.
         25    1    4    4    0    0 -0.30388896149E+02 -0.17072059385E+00 -0.20569547785E+02  0.13036153018E+03  0.12509000000E+03 0.  0.
         25    1    4    4    0    0 -0.81745892714E+02 -0.55795207815E+02 -0.73835442319E+02  0.17576881644E+03  0.12509000000E+03 0.  0.
<mgrwt>
<rscale>  2 0.46969020E+03</rscale>
<asrwt>0</asrwt>
<pdfrwt beam="1">  1       21 0.23634956E-01 0.46969020E+03</pdfrwt>
<pdfrwt beam="2">  1       21 0.50465011E-01 0.46969020E+03</pdfrwt>
<totfact> 0.57941446E+04</totfact>
</mgrwt>
</event>
<event>
 7    0  0.4709932E-002  0.4555047E+03  0.7546771E-02  0.1026093E+00
         21   -1    0    0  502  501  0.00000000000E+00  0.00000000000E+00  0.25221596205E+03  0.25221596205E+03  0.00000000000E+00 0. -1.
         21   -1    0    0  501  502 -0.00000000000E+00 -0.00000000000E+00 -0.20566154803E+03  0.20566154803E+03  0.00000000000E+00 0. -1.
      99926    2    1    2    0    0  0.71054273576E-14 -0.71054273576E-14  0.46554414021E+02  0.45787751009E+03  0.45550466604E+03 0.  0.
      99925    2    3    3    0    0  0.44539546393E+02  0.28502578119E+02  0.13045824705E+03  0.29824189549E+03  0.26293099066E+03 0.  0.
         25    1    4    4    0    0  0.11810948316E+02 -0.14181258865E+02  0.32653344376E+02  0.13059232597E+03  0.12509000000E+03 0.  0.
         25    1    3    3    0    0 -0.44539546393E+02 -0.28502578119E+02 -0.83903833032E+02  0.15963561460E+03  0.12509000000E+03 0.  0.
         25    1    4    4    0    0  0.32728598077E+02  0.42683836984E+02  0.97804902676E+02  0.16764956952E+03  0.12509000000E+03 0.  0.
<mgrwt>
<rscale>  2 0.45550467E+03</rscale>
<asrwt>0</asrwt>
<pdfrwt beam="1">  1       21 0.37090583E-01 0.45550467E+03</pdfrwt>
<pdfrwt beam="2">  1       21 0.30244345E-01 0.45550467E+03</pdfrwt>
<totfact> 0.68061022E+04</totfact>
</mgrwt>
</event>
<event>
 7    0  0.4709932E-002  0.4357143E+03  0.7546771E-02  0.1032070E+00
         21   -1    0    0  502  501  0.00000000000E+00  0.00000000000E+00  0.13940633746E+02  0.13940633746E+02  0.00000000000E+00 0. -1.
         21   -1    0    0  501  502 -0.00000000000E+00 -0.00000000000E+00 -0.34045612254E+04  0.34045612254E+04  0.00000000000E+00 0. -1.
      99926    2    1    2    0    0  0.00000000000E+00  0.00000000000E+00 -0.33906205917E+04  0.34185018592E+04  0.43571431516E+03 0.  0.
      99925    2    3    3    0    0  0.71561740899E+02 -0.20692548372E+02 -0.26223525892E+04  0.26365603677E+04  0.26299849094E+03 0.  0.
         25    1    4    4    0    0 -0.18072962357E+01 -0.24566795615E+02 -0.13265257410E+04  0.13326383018E+04  0.12509000000E+03 0.  0.
         25    1    4    4    0    0  0.73369037135E+02  0.38742472431E+01 -0.12958268481E+04  0.13039220659E+04  0.12509000000E+03 0.  0.
         25    1    3    3    0    0 -0.71561740899E+02  0.20692548372E+02 -0.76826800253E+03  0.78194149150E+03  0.12509000000E+03 0.  0.
<mgrwt>
<rscale>  2 0.43571432E+03</rscale>
<asrwt>0</asrwt>
<pdfrwt beam="1">  1       21 0.20500902E-02 0.43571432E+03</pdfrwt>
<pdfrwt beam="2">  1       21 0.50067151E+00 0.43571432E+03</pdfrwt>
<totfact> 0.17606407E+03</totfact>
</mgrwt>
</event>
<event>
 7    0  0.4709932E-002  0.4523270E+03  0.7546771E-02  0.1027030E+00
         21   -1    0    0  502  501  0.00000000000E+00  0.00000000000E+00  0.11753807204E+03  0.11753807204E+03  0.00000000000E+00 0. -1.
         21   -1    0    0  501  502 -0.00000000000E+00 -0.00000000000E+00 -0.43517762205E+03  0.43517762205E+03  0.00000000000E+00 0. -1.
      99926    2    1    2    0    0 -0.35527136788E-14  0.00000000000E+00 -0.31763955001E+03  0.55271569409E+03  0.45232704403E+03 0.  0.
      99925    2    3    3    0    0  0.31179008933E+02  0.10446850063E+03 -0.22346359010E+03  0.36192151769E+03  0.26299317604E+03 0.  0.
         25    1    4    4    0    0  0.57172883940E+01  0.51498731109E+02 -0.16068323324E+03  0.21012238395E+03  0.12509000000E+03 0.  0.
         25    1    4    4    0    0  0.25461720539E+02  0.52969769526E+02 -0.62780356868E+02  0.15179913374E+03  0.12509000000E+03 0.  0.
         25    1    3    3    0    0 -0.31179008933E+02 -0.10446850063E+03 -0.94175959905E+02  0.19079417640E+03  0.12509000000E+03 0.  0.
<mgrwt>
<rscale>  2 0.45232704E+03</rscale>
<asrwt>0</asrwt>
<pdfrwt beam="1">  1       21 0.17285011E-01 0.45232704E+03</pdfrwt>
<pdfrwt beam="2">  1       21 0.63996709E-01 0.45232704E+03</pdfrwt>
<totfact> 0.63009311E+04</totfact>
</mgrwt>
</event>
<event>
 7    0  0.4709932E-002  0.4493455E+03  0.7546771E-02  0.1027917E+00
         21   -1    0    0  502  501  0.00000000000E+00  0.00000000000E+00  0.91964302954E+02  0.91964302954E+02  0.00000000000E+00 0. -1.
         21   -1    0    0  501  502 -0.00000000000E+00 -0.00000000000E+00 -0.54888512629E+03  0.54888512629E+03  0.00000000000E+00 0. -1.
      99926    2    1    2    0    0  0.00000000000E+00  0.00000000000E+00 -0.45692082333E+03  0.64084942924E+03  0.44934547084E+03 0.  0.
      99925    2    3    3    0    0 -0.75669796706E+02 -0.61661891356E+02 -0.21973296297E+03  0.35548353047E+03  0.26183555610E+03 0.  0.
         25    1    3    3    0    0  0.75669796706E+02  0.61661891356E+02 -0.23718786036E+03  0.28536589877E+03  0.12509000000E+03 0.  0.
         25    1    4    4    0    0 -0.19150084670E+02 -0.48289868814E+02 -0.72058762635E+02  0.15342297920E+03  0.12509000000E+03 0.  0.
         25    1    4    4    0    0 -0.56519712037E+02 -0.13372022542E+02 -0.14767420033E+03  0.20206055127E+03  0.12509000000E+03 0.  0.
<mgrwt>
<rscale>  2 0.44934547E+03</rscale>
<asrwt>0</asrwt>
<pdfrwt beam="1">  1       21 0.13524162E-01 0.44934547E+03</pdfrwt>
<pdfrwt beam="2">  1       21 0.80718404E-01 0.44934547E+03</pdfrwt>
<totfact> 0.58812337E+04</totfact>
</mgrwt>
</event>
<event>
 7    0  0.4709932E-002  0.4662344E+03  0.7546771E-02  0.1022988E+00
         21   -1    0    0  502  501  0.00000000000E+00  0.00000000000E+00  0.30740046571E+03  0.30740046571E+03  0.00000000000E+00 0.  1.
         21   -1    0    0  501  502 -0.00000000000E+00 -0.00000000000E+00 -0.17678445543E+03  0.17678445543E+03  0.00000000000E+00 0.  1.
      99926    2    1    2    0    0  0.00000000000E+00  0.14210854715E-13  0.13061601027E+03  0.48418492114E+03  0.46623437853E+03 0.  0.
      99925    2    3    3    0    0 -0.20905228161E+02  0.89638189526E+02  0.16683242390E+03  0.32471338669E+03  0.26293286642E+03 0.  0.
         25    1    3    3    0    0  0.20905228161E+02 -0.89638189526E+02 -0.36216413623E+02  0.15947153446E+03  0.12509000000E+03 0.  0.
         25    1    4    4    0    0 -0.41049014992E+02  0.69860480365E+02  0.10525071690E+03  0.18245747411E+03  0.12509000000E+03 0.  0.
         25    1    4    4    0    0  0.20143786831E+02  0.19777709161E+02  0.61581706996E+02  0.14225591258E+03  0.12509000000E+03 0.  0.
<mgrwt>
<rscale>  2 0.46623438E+03</rscale>
<asrwt>0</asrwt>
<pdfrwt beam="1">  1       21 0.45205951E-01 0.46623438E+03</pdfrwt>
<pdfrwt beam="2">  1       21 0.25997714E-01 0.46623438E+03</pdfrwt>
<totfact> 0.60792692E+04</totfact>
</mgrwt>
</event>
<event>
 7    0  0.4709932E-002  0.4611919E+03  0.7546771E-02  0.1024436E+00
         21   -1    0    0  502  501  0.00000000000E+00  0.00000000000E+00  0.43401294787E+03  0.43401294787E+03  0.00000000000E+00 0.  1.
         21   -1    0    0  501  502 -0.00000000000E+00 -0.00000000000E+00 -0.12251821504E+03  0.12251821504E+03  0.00000000000E+00 0.  1.
      99926    2    1    2    0    0  0.00000000000E+00  0.00000000000E+00  0.31149473283E+03  0.55653116291E+03  0.46119189792E+03 0.  0.
      99925    2    3    3    0    0 -0.97887314929E+02 -0.59194217517E+02  0.23413823860E+03  0.37020505870E+03  0.26295472785E+03 0.  0.
         25    1    4    4    0    0 -0.31477358804E+02  0.92915088185E+01  0.11098620988E+03  0.17041890487E+03  0.12509000000E+03 0.  0.
         25    1    4    4    0    0 -0.66409956125E+02 -0.68485726336E+02  0.12315202872E+03  0.19978615383E+03  0.12509000000E+03 0.  0.
         25    1    3    3    0    0  0.97887314929E+02  0.59194217517E+02  0.77356494235E+02  0.18632610421E+03  0.12509000000E+03 0.  0.
<mgrwt>
<rscale>  2 0.46119190E+03</rscale>
<asrwt>0</asrwt>
<pdfrwt beam="1">  1       21 0.63825433E-01 0.46119190E+03</pdfrwt>
<pdfrwt beam="2">  1       21 0.18017385E-01 0.46119190E+03</pdfrwt>
<totfact> 0.58517546E+04</totfact>
</mgrwt>
</event>
<event>
 7    0  0.4709932E-002  0.4598751E+03  0.7546771E-02  0.1024817E+00
         21   -1    0    0  502  501  0.00000000000E+00  0.00000000000E+00  0.71811888412E+02  0.71811888412E+02  0.00000000000E+00 0. -1.
         21   -1    0    0  501  502 -0.00000000000E+00 -0.00000000000E+00 -0.73624680949E+03  0.73624680949E+03  0.00000000000E+00 0. -1.
      99926    2    1    2    0    0  0.00000000000E+00  0.00000000000E+00 -0.66443492108E+03  0.80805869790E+03  0.45987508620E+03 0.  0.
      99925    2    3    3    0    0 -0.10826316373E+03 -0.44071350855E+02 -0.44023008493E+03  0.52596205978E+03  0.26300259326E+03 0.  0.
         25    1    4    4    0    0 -0.30491615506E+02 -0.42342625418E+02 -0.25987151968E+03  0.29309273513E+03  0.12509000000E+03 0.  0.
         25    1    4    4    0    0 -0.77771548227E+02 -0.17287254370E+01 -0.18035856524E+03  0.23286932465E+03  0.12509000000E+03 0.  0.
         25    1    3    3    0    0  0.10826316373E+03  0.44071350855E+02 -0.22420483616E+03  0.28209663813E+03  0.12509000000E+03 0.  0.
<mgrwt>
<rscale>  2 0.45987509E+03</rscale>
<asrwt>0</asrwt>
<pdfrwt beam="1">  1       21 0.10560572E-01 0.45987509E+03</pdfrwt>
<pdfrwt beam="2">  1       21 0.10827159E+00 0.45987509E+03</pdfrwt>
<totfact> 0.45607515E+04</totfact>
</mgrwt>
</event>
<event>
 7    0  0.4709932E-002  0.4548979E+03  0.7546771E-02  0.1026271E+00
         21   -1    0    0  502  501  0.00000000000E+00  0.00000000000E+00  0.54311440356E+03  0.54311440356E+03  0.00000000000E+00 0. -1.
         21   -1    0    0  501  502 -0.00000000000E+00 -0.00000000000E+00 -0.95252517080E+02  0.95252517080E+02  0.00000000000E+00 0. -1.
      99926    2    1    2    0    0 -0.71054273576E-14  0.00000000000E+00  0.44786188648E+03  0.63836692064E+03  0.45489785227E+03 0.  0.
      99925    2    3    3    0    0 -0.58235282769E+02  0.83900005853E+02  0.35002239178E+03  0.44955316594E+03  0.26296732708E+03 0.  0.
         25    1    3    3    0    0  0.58235282769E+02 -0.83900005853E+02  0.97839494693E+02  0.18881375470E+03  0.12509000000E+03 0.  0.
         25    1    4    4    0    0  0.74233562047E+01  0.27720070343E+02  0.13564295253E+03  0.18673517930E+03  0.12509000000E+03 0.  0.
         25    1    4    4    0    0 -0.65658638973E+02  0.56179935510E+02  0.21437943926E+03  0.26281798664E+03  0.12509000000E+03 0.  0.
<mgrwt>
<rscale>  2 0.45489785E+03</rscale>
<asrwt>0</asrwt>
<pdfrwt beam="1">  1       21 0.79869763E-01 0.45489785E+03</pdfrwt>
<pdfrwt beam="2">  1       21 0.14007723E-01 0.45489785E+03</pdfrwt>
<totfact> 0.56422166E+04</totfact>
</mgrwt>
</event>
<event>
 7    0  0.4709932E-002  0.4570130E+03  0.7546771E-02  0.1025651E+00
         21   -1    0    0  502  501  0.00000000000E+00  0.00000000000E+00  0.19632446889E+03  0.19632446889E+03  0.00000000000E+00 0. -1.
         21   -1    0    0  501  502 -0.00000000000E+00 -0.00000000000E+00 -0.26596394100E+03  0.26596394100E+03  0.00000000000E+00 0. -1.
      99926    2    1    2    0    0  0.00000000000E+00 -0.88817841970E-15 -0.69639472113E+02  0.46228840989E+03  0.45701303903E+03 0.  0.
      99925    2    3    3    0    0  0.75786871743E+02  0.79927123066E+01  0.43463995643E+02  0.27722778227E+03  0.26298021021E+03 0.  0.
         25    1    3    3    0    0 -0.75786871743E+02 -0.79927123066E+01 -0.11310346776E+03  0.18506062762E+03  0.12509000000E+03 0.  0.
         25    1    4    4    0    0  0.22132255840E+02 -0.20094081812E+02  0.50256684211E+02  0.13808276967E+03  0.12509000000E+03 0.  0.
         25    1    4    4    0    0  0.53654615902E+02  0.28086794119E+02 -0.67926885685E+01  0.13914501259E+03  0.12509000000E+03 0.  0.
<mgrwt>
<rscale>  2 0.45701304E+03</rscale>
<asrwt>0</asrwt>
<pdfrwt beam="1">  1       21 0.28871246E-01 0.45701304E+03</pdfrwt>
<pdfrwt beam="2">  1       21 0.39112344E-01 0.45701304E+03</pdfrwt>
<totfact> 0.66933145E+04</totfact>
</mgrwt>
</event>
<event>
 7    0  0.4709932E-002  0.4527412E+03  0.7546771E-02  0.1026908E+00
         21   -1    0    0  502  501  0.00000000000E+00  0.00000000000E+00  0.23310220964E+03  0.23310220964E+03  0.00000000000E+00 0.  1.
         21   -1    0    0  501  502 -0.00000000000E+00 -0.00000000000E+00 -0.21983340113E+03  0.21983340113E+03  0.00000000000E+00 0.  1.
      99926    2    1    2    0    0 -0.35527136788E-14 -0.14210854715E-13  0.13268808507E+02  0.45293561077E+03  0.45274121331E+03 0.  0.
      99925    2    3    3    0    0  0.23783798934E+02  0.96264412174E+02 -0.41980047440E+02  0.28402009838E+03  0.26281663905E+03 0.  0.
         25    1    3    3    0    0 -0.23783798934E+02 -0.96264412174E+02  0.55248855947E+02  0.16891551239E+03  0.12509000000E+03 0.  0.
         25    1    4    4    0    0 -0.18224115238E+02  0.50539408313E+02 -0.47690001343E+02  0.14425045753E+03  0.12509000000E+03 0.  0.
         25    1    4    4    0    0  0.42007914172E+02  0.45725003861E+02  0.57099539031E+01  0.13976964086E+03  0.12509000000E+03 0.  0.
<mgrwt>
<rscale>  2 0.45274121E+03</rscale>
<asrwt>0</asrwt>
<pdfrwt beam="1">  1       21 0.34279737E-01 0.45274121E+03</pdfrwt>
<pdfrwt beam="2">  1       21 0.32328442E-01 0.45274121E+03</pdfrwt>
<totfact> 0.69949506E+04</totfact>
</mgrwt>
</event>
<event>
 7    0  0.4709932E-002  0.4412307E+03  0.7546771E-02  0.1030370E+00
         21   -1    0    0  502  501  0.00000000000E+00  0.00000000000E+00  0.35214200061E+03  0.35214200061E+03  0.00000000000E+00 0. -1.
         21   -1    0    0  501  502 -0.00000000000E+00 -0.00000000000E+00 -0.13821450381E+03  0.13821450381E+03  0.00000000000E+00 0. -1.
      99926    2    1    2    0    0 -0.71054273576E-14  0.00000000000E+00  0.21392749680E+03  0.49035650442E+03  0.44123069651E+03 0.  0.
      99925    2    3    3    0    0  0.21953235113E+02 -0.97229541626E+02  0.13959848546E+03  0.31398236141E+03  0.26298604114E+03 0.  0.
         25    1    4    4    0    0  0.45828751712E+02 -0.38976854780E+02  0.49040087796E+02  0.14721381730E+03  0.12509000000E+03 0.  0.
         25    1    3    3    0    0 -0.21953235113E+02  0.97229541626E+02  0.74329011342E+02  0.17637414301E+03  0.12509000000E+03 0.  0.
         25    1    4    4    0    0 -0.23875516599E+02 -0.58252686846E+02  0.90558397661E+02  0.16676854411E+03  0.12509000000E+03 0.  0.
<mgrwt>
<rscale>  2 0.44123070E+03</rscale>
<asrwt>0</asrwt>
<pdfrwt beam="1">  1       21 0.51785588E-01 0.44123070E+03</pdfrwt>
<pdfrwt beam="2">  1       21 0.20325662E-01 0.44123070E+03</pdfrwt>
<totfact> 0.73684113E+04</totfact>
</mgrwt>
</event>
<event>
 7    0  0.4709932E-002  0.4607199E+03  0.7546771E-02  0.1024573E+00
         21   -1    0    0  502  501  0.00000000000E+00  0.00000000000E+00  0.11928028188E+04  0.11928028188E+04  0.00000000000E+00 0. -1.
         21   -1    0    0  501  502 -0.00000000000E+00 -0.00000000000E+00 -0.44488245745E+02  0.44488245745E+02  0.00000000000E+00 0. -1.
      99926    2    1    2    0    0 -0.88817841970E-15  0.88817841970E-15  0.11483145731E+04  0.12372910646E+04  0.46071989290E+03 0.  0.
      99925    2    3    3    0    0 -0.69495025670E+01 -0.20729223307E+01  0.40124081223E+03  0.47978244756E+03  0.26295325629E+03 0.  0.
         25    1    4    4    0    0 -0.25630609431E+02 -0.30469021282E+02  0.17123277653E+03  0.21576251124E+03  0.12509000000E+03 0.  0.
         25    1    3    3    0    0  0.69495025670E+01  0.20729223307E+01  0.74707376084E+03  0.75750861700E+03  0.12509000000E+03 0.  0.
         25    1    4    4    0    0  0.18681106864E+02  0.28396098951E+02  0.23000803570E+03  0.26401993632E+03  0.12509000000E+03 0.  0.
<mgrwt>
<rscale>  2 0.46071989E+03</rscale>
<asrwt>0</asrwt>
<pdfrwt beam="1">  1       21 0.17541216E+00 0.46071989E+03</pdfrwt>
<pdfrwt beam="2">  1       21 0.65423898E-02 0.46071989E+03</pdfrwt>
<totfact> 0.29649179E+04</totfact>
</mgrwt>
</event>
<event>
 7    0  0.4709932E-002  0.4512941E+03  0.7546771E-02  0.1027337E+00
         21   -1    0    0  502  501  0.00000000000E+00  0.00000000000E+00  0.18289839155E+03  0.18289839155E+03  0.00000000000E+00 0. -1.
         21   -1    0    0  501  502 -0.00000000000E+00 -0.00000000000E+00 -0.27838726945E+03  0.27838726945E+03  0.00000000000E+00 0. -1.
      99926    2    1    2    0    0 -0.35527136788E-14  0.00000000000E+00 -0.95488877901E+02  0.46128566101E+03  0.45129406738E+03 0.  0.
      99925    2    3    3    0    0 -0.18836524790E+02  0.98761395703E+02 -0.15434530779E+02  0.28194008805E+03  0.26295125130E+03 0.  0.
         25    1    4    4    0    0  0.13431660762E+02  0.24931856396E+02  0.17786036706E+02  0.12948304204E+03  0.12509000000E+03 0.  0.
         25    1    3    3    0    0  0.18836524790E+02 -0.98761395703E+02 -0.80054347122E+02  0.17934557296E+03  0.12509000000E+03 0.  0.
         25    1    4    4    0    0 -0.32268185552E+02  0.73829539307E+02 -0.33220567485E+02  0.15245704601E+03  0.12509000000E+03 0.  0.
<mgrwt>
<rscale>  2 0.45129407E+03</rscale>
<asrwt>0</asrwt>
<pdfrwt beam="1">  1       21 0.26896822E-01 0.45129407E+03</pdfrwt>
<pdfrwt beam="2">  1       21 0.40939304E-01 0.45129407E+03</pdfrwt>
<totfact> 0.70128931E+04</totfact>
</mgrwt>
</event>
<event>
 7    0  0.4709932E-002  0.4564958E+03  0.7546771E-02  0.1025802E+00
         21   -1    0    0  502  501  0.00000000000E+00  0.00000000000E+00  0.49130275347E+02  0.49130275347E+02  0.00000000000E+00 0.  1.
         21   -1    0    0  501  502 -0.00000000000E+00 -0.00000000000E+00 -0.10603869853E+04  0.10603869853E+04  0.00000000000E+00 0.  1.
      99926    2    1    2    0    0 -0.14210854715E-13  0.00000000000E+00 -0.10112567100E+04  0.11095172606E+04  0.45649580310E+03 0.  0.
      99925    2    3    3    0    0 -0.11129577834E+03 -0.11560896458E+02 -0.57559711431E+03  0.64264769001E+03  0.26298975432E+03 0.  0.
         25    1    3    3    0    0  0.11129577834E+03  0.11560896458E+02 -0.43565959565E+03  0.46686957063E+03  0.12509000000E+03 0.  0.
         25    1    4    4    0    0 -0.22603202495E+02 -0.26966551692E+02 -0.29893753391E+03  0.32595898048E+03  0.12509000000E+03 0.  0.
         25    1    4    4    0    0 -0.88692575849E+02  0.15405655234E+02 -0.27665958039E+03  0.31668870954E+03  0.12509000000E+03 0.  0.
<mgrwt>
<rscale>  2 0.45649580E+03</rscale>
<asrwt>0</asrwt>
<pdfrwt beam="1">  1       21 0.72250414E-02 0.45649580E+03</pdfrwt>
<pdfrwt beam="2">  1       21 0.15593924E+00 0.45649580E+03</pdfrwt>
<totfact> 0.34755880E+04</totfact>
</mgrwt>
</event>
<event>
 7    0  0.4709932E-002  0.4578840E+03  0.7546771E-02  0.1025397E+00
         21   -1    0    0  502  501  0.00000000000E+00  0.00000000000E+00  0.16361267315E+03  0.16361267315E+03  0.00000000000E+00 0. -1.
         21   -1    0    0  501  502 -0.00000000000E+00 -0.00000000000E+00 -0.32035679955E+03  0.32035679955E+03  0.00000000000E+00 0. -1.
      99926    2    1    2    0    0  0.35527136788E-14  0.14210854715E-13 -0.15674412640E+03  0.48396947270E+03  0.45788396930E+03 0.  0.
      99925    2    3    3    0    0  0.24003106254E+02  0.10412078806E+03 -0.51076697101E+02  0.28844351194E+03  0.26300863670E+03 0.  0.
         25    1    4    4    0    0 -0.16046577090E+02  0.54405082856E+02 -0.54993076661E+02  0.14794983020E+03  0.12509000000E+03 0.  0.
         25    1    4    4    0    0  0.40049683343E+02  0.49715705202E+02  0.39163795605E+01  0.14049368174E+03  0.12509000000E+03 0.  0.
         25    1    3    3    0    0 -0.24003106254E+02 -0.10412078806E+03 -0.10566742930E+03  0.19552596076E+03  0.12509000000E+03 0.  0.
<mgrwt>
<rscale>  2 0.45788397E+03</rscale>
<asrwt>0</asrwt>
<pdfrwt beam="1">  1       21 0.24060688E-01 0.45788397E+03</pdfrwt>
<pdfrwt beam="2">  1       21 0.47111293E-01 0.45788397E+03</pdfrwt>
<totfact> 0.64913444E+04</totfact>
</mgrwt>
</event>
<event>
 7    0  0.4709932E-002  0.4275353E+03  0.7546771E-02  0.1034641E+00
         21   -1    0    0  502  501  0.00000000000E+00  0.00000000000E+00  0.62437318791E+02  0.62437318791E+02  0.00000000000E+00 0. -1.
         21   -1    0    0  501  502 -0.00000000000E+00 -0.00000000000E+00 -0.73187964470E+03  0.73187964470E+03  0.00000000000E+00 0. -1.
      99926    2    1    2    0    0  0.00000000000E+00  0.00000000000E+00 -0.66944232591E+03  0.79431696349E+03  0.42753527430E+03 0.  0.
      99925    2    3    3    0    0 -0.75779371432E+02 -0.36572187407E+02 -0.40938621399E+03  0.49372300568E+03  0.26284081895E+03 0.  0.
         25    1    4    4    0    0 -0.47434726693E+02 -0.22014168163E+02 -0.27925593808E+03  0.31042883878E+03  0.12509000000E+03 0.  0.
         25    1    3    3    0    0  0.75779371432E+02  0.36572187407E+02 -0.26005611192E+03  0.30059395781E+03  0.12509000000E+03 0.  0.
         25    1    4    4    0    0 -0.28344644738E+02 -0.14558019244E+02 -0.13013027591E+03  0.18329416690E+03  0.12509000000E+03 0.  0.
<mgrwt>
<rscale>  2 0.42753527E+03</rscale>
<asrwt>0</asrwt>
<pdfrwt beam="1">  1       21 0.91819582E-02 0.42753527E+03</pdfrwt>
<pdfrwt beam="2">  1       21 0.10762936E+00 0.42753527E+03</pdfrwt>
<totfact> 0.59957719E+04</totfact>
</mgrwt>
</event>
<event>
 7    0  0.4709932E-002  0.4538351E+03  0.7546771E-02  0.1026585E+00
         21   -1    0    0  502  501  0.00000000000E+00  0.00000000000E+00  0.20981389563E+04  0.20981389563E+04  0.00000000000E+00 0. -1.
         21   -1    0    0  501  502 -0.00000000000E+00 -0.00000000000E+00 -0.24541544173E+02  0.24541544173E+02  0.00000000000E+00 0. -1.
      99926    2    1    2    0    0  0.00000000000E+00  0.00000000000E+00  0.20735974121E+04  0.21226805005E+04  0.45383507964E+03 0.  0.
      99925    2    3    3    0    0  0.64288229115E+02 -0.91728877650E+02  0.13301947429E+04  0.13605504590E+04  0.26293028365E+03 0.  0.
         25    1    4    4    0    0 -0.43634260127E+01 -0.22575976645E+02  0.60422099717E+03  0.61746193059E+03  0.12509000000E+03 0.  0.
         25    1    4    4    0    0  0.68651655127E+02 -0.69152901005E+02  0.72597374571E+03  0.74308852840E+03  0.12509000000E+03 0.  0.
         25    1    3    3    0    0 -0.64288229115E+02  0.91728877650E+02  0.74340266926E+03  0.76213004150E+03  0.12509000000E+03 0.  0.
<mgrwt>
<rscale>  2 0.45383508E+03</rscale>
<asrwt>0</asrwt>
<pdfrwt beam="1">  1       21 0.30854972E+00 0.45383508E+03</pdfrwt>
<pdfrwt beam="2">  1       21 0.36090521E-02 0.45383508E+03</pdfrwt>
<totfact> 0.11915727E+04</totfact>
</mgrwt>
</event>
<event>
 7    0  0.4709932E-002  0.4525756E+03  0.7546771E-02  0.1026957E+00
         21   -1    0    0  502  501  0.00000000000E+00  0.00000000000E+00  0.84049202249E+02  0.84049202249E+02  0.00000000000E+00 0. -1.
         21   -1    0    0  501  502 -0.00000000000E+00 -0.00000000000E+00 -0.60924039882E+03  0.60924039882E+03  0.00000000000E+00 0. -1.
      99926    2    1    2    0    0  0.71054273576E-14 -0.14210854715E-13 -0.52519119657E+03  0.69328960107E+03  0.45257560473E+03 0.  0.
      99925    2    3    3    0    0 -0.63622521454E+02  0.88203565947E+02 -0.36476806707E+03  0.46261497554E+03  0.26292428294E+03 0.  0.
         25    1    3    3    0    0  0.63622521454E+02 -0.88203565947E+02 -0.16042312950E+03  0.23067462552E+03  0.12509000000E+03 0.  0.
         25    1    4    4    0    0 -0.57363974887E+02  0.64895034213E+02 -0.15503730084E+03  0.21722353425E+03  0.12509000000E+03 0.  0.
         25    1    4    4    0    0 -0.62585465674E+01  0.23308531734E+02 -0.20973076623E+03  0.24539144130E+03  0.12509000000E+03 0.  0.
<mgrwt>
<rscale>  2 0.45257560E+03</rscale>
<asrwt>0</asrwt>
<pdfrwt beam="1">  1       21 0.12360177E-01 0.45257560E+03</pdfrwt>
<pdfrwt beam="2">  1       21 0.89594175E-01 0.45257560E+03</pdfrwt>
<totfact> 0.54297615E+04</totfact>
</mgrwt>
</event>
<event>
 7    0  0.4709932E-002  0.5080361E+03  0.7546771E-02  0.1011702E+00
         21   -1    0    0  502  501  0.00000000000E+00  0.00000000000E+00  0.27377375731E+02  0.27377375731E+02  0.00000000000E+00 0.  1.
         21   -1    0    0  501  502 -0.00000000000E+00 -0.00000000000E+00 -0.23568791064E+04  0.23568791064E+04  0.00000000000E+00 0.  1.
      99926    2    1    2    0    0  0.00000000000E+00  0.00000000000E+00 -0.23295017306E+04  0.23842564821E+04  0.50803608080E+03 0.  0.
      99925    2    3    3    0    0 -0.13345938537E+03  0.56693195656E+02 -0.16980421374E+04  0.17243972153E+04  0.26300785124E+03 0.  0.
         25    1    4    4    0    0 -0.67228452297E+02  0.12460253542E+02 -0.61841963936E+03  0.63463791343E+03  0.12509000000E+03 0.  0.
         25    1    4    4    0    0 -0.66230933069E+02  0.44232942114E+02 -0.10796224980E+04  0.10897593018E+04  0.12509000000E+03 0.  0.
         25    1    3    3    0    0  0.13345938537E+03 -0.56693195656E+02 -0.63145959327E+03  0.65985926682E+03  0.12509000000E+03 0.  0.
<mgrwt>
<rscale>  2 0.50803608E+03</rscale>
<asrwt>0</asrwt>
<pdfrwt beam="1">  1       21 0.40260858E-02 0.50803608E+03</pdfrwt>
<pdfrwt beam="2">  1       21 0.34659977E+00 0.50803608E+03</pdfrwt>
<totfact> 0.56708671E+03</totfact>
</mgrwt>
</event>
<event>
 7    0  0.4709932E-002  0.4566468E+03  0.7546771E-02  0.1025758E+00
         21   -1    0    0  502  501  0.00000000000E+00  0.00000000000E+00  0.67008394935E+02  0.67008394935E+02  0.00000000000E+00 0. -1.
         21   -1    0    0  501  502 -0.00000000000E+00 -0.00000000000E+00 -0.77798579453E+03  0.77798579453E+03  0.00000000000E+00 0. -1.
      99926    2    1    2    0    0  0.00000000000E+00 -0.35527136788E-14 -0.71097739960E+03  0.84499418947E+03  0.45664681921E+03 0.  0.
      99925    2    3    3    0    0  0.98329756532E+02  0.18079521333E+02 -0.55078264487E+03  0.61848706452E+03  0.26300022238E+03 0.  0.
         25    1    3    3    0    0 -0.98329756532E+02 -0.18079521333E+02 -0.16019475473E+03  0.22650712495E+03  0.12509000000E+03 0.  0.
         25    1    4    4    0    0  0.20188629317E+02  0.36926394507E+02 -0.28071985043E+03  0.31019716616E+03  0.12509000000E+03 0.  0.
         25    1    4    4    0    0  0.78141127214E+02 -0.18846873173E+02 -0.27006279444E+03  0.30828989836E+03  0.12509000000E+03 0.  0.
<mgrwt>
<rscale>  2 0.45664682E+03</rscale>
<asrwt>0</asrwt>
<pdfrwt beam="1">  1       21 0.98541750E-02 0.45664682E+03</pdfrwt>
<pdfrwt beam="2">  1       21 0.11440968E+00 0.45664682E+03</pdfrwt>
<totfact> 0.45078923E+04</totfact>
</mgrwt>
</event>
<event>
 7    0  0.4709932E-002  0.4255443E+03  0.7546771E-02  0.1035277E+00
         21   -1    0    0  502  501  0.00000000000E+00  0.00000000000E+00  0.86631202448E+02  0.86631202448E+02  0.00000000000E+00 0. -1.
         21   -1    0    0  501  502 -0.00000000000E+00 -0.00000000000E+00 -0.52258295552E+03  0.52258295552E+03  0.00000000000E+00 0. -1.
      99926    2    1    2    0    0  0.00000000000E+00  0.00000000000E+00 -0.43595175307E+03  0.60921415796E+03  0.42554430940E+03 0.  0.
      99925    2    3    3    0    0 -0.74193038497E+02 -0.18703200900E+02 -0.23782818407E+03  0.36272912114E+03  0.26297481533E+03 0.  0.
         25    1    4    4    0    0 -0.35155940300E+02  0.44261313304E+01 -0.16807240110E+03  0.21248851943E+03  0.12509000000E+03 0.  0.
         25    1    4    4    0    0 -0.39037098197E+02 -0.23129332230E+02 -0.69755782969E+02  0.15024060171E+03  0.12509000000E+03 0.  0.
         25    1    3    3    0    0  0.74193038497E+02  0.18703200900E+02 -0.19812356900E+03  0.24648503682E+03  0.12509000000E+03 0.  0.
<mgrwt>
<rscale>  2 0.42554431E+03</rscale>
<asrwt>0</asrwt>
<pdfrwt beam="1">  1       21 0.12739883E-01 0.42554431E+03</pdfrwt>
<pdfrwt beam="2">  1       21 0.76850434E-01 0.42554431E+03</pdfrwt>
<totfact> 0.73852384E+04</totfact>
</mgrwt>
</event>
<event>
 7    0  0.4709932E-002  0.4573476E+03  0.7546771E-02  0.1025553E+00
         21   -1    0    0  502  501  0.00000000000E+00  0.00000000000E+00  0.25126137755E+02  0.25126137755E+02  0.00000000000E+00 0. -1.
         21   -1    0    0  501  502 -0.00000000000E+00 -0.00000000000E+00 -0.20811675930E+04  0.20811675930E+04  0.00000000000E+00 0. -1.
      99926    2    1    2    0    0  0.00000000000E+00  0.00000000000E+00 -0.20560414552E+04  0.21062937307E+04  0.45734758612E+03 0.  0.
      99925    2    3    3    0    0  0.47957604325E+02  0.10245647311E+03 -0.13963672724E+04  0.14254010841E+04  0.26292476175E+03 0.  0.
         25    1    3    3    0    0 -0.47957604325E+02 -0.10245647311E+03 -0.65967418283E+03  0.68089264667E+03  0.12509000000E+03 0.  0.
         25    1    4    4    0    0  0.40923323592E+02  0.73108539994E+02 -0.90636724802E+03  0.91878652222E+03  0.12509000000E+03 0.  0.
         25    1    4    4    0    0  0.70342807334E+01  0.29347933118E+02 -0.49000002437E+03  0.50661456184E+03  0.12509000000E+03 0.  0.
<mgrwt>
<rscale>  2 0.45734759E+03</rscale>
<asrwt>0</asrwt>
<pdfrwt beam="1">  1       21 0.36950214E-02 0.45734759E+03</pdfrwt>
<pdfrwt beam="2">  1       21 0.30605396E+00 0.45734759E+03</pdfrwt>
<totfact> 0.11833684E+04</totfact>
</mgrwt>
</event>
<event>
 7    0  0.4709932E-002  0.4564544E+03  0.7546771E-02  0.1025815E+00
         21   -1    0    0  502  501  0.00000000000E+00  0.00000000000E+00  0.87964066654E+03  0.87964066654E+03  0.00000000000E+00 0.  1.
         21   -1    0    0  501  502 -0.00000000000E+00 -0.00000000000E+00 -0.59214685386E+02  0.59214685386E+02  0.00000000000E+00 0.  1.
      99926    2    1    2    0    0 -0.17763568394E-14  0.00000000000E+00  0.82042598116E+03  0.93885535193E+03  0.45645435838E+03 0.  0.
      99925    2    3    3    0    0 -0.95479428173E+01  0.12081148232E+02  0.28178951683E+03  0.38567015133E+03  0.26286691781E+03 0.  0.
         25    1    4    4    0    0 -0.30185512554E+02  0.16710408871E+01  0.18711617028E+03  0.22709893620E+03  0.12509000000E+03 0.  0.
         25    1    4    4    0    0  0.20637569737E+02  0.10410107345E+02  0.94673346548E+02  0.15857121513E+03  0.12509000000E+03 0.  0.
         25    1    3    3    0    0  0.95479428173E+01 -0.12081148232E+02  0.53863646433E+03  0.55318520060E+03  0.12509000000E+03 0.  0.
<mgrwt>
<rscale>  2 0.45645436E+03</rscale>
<asrwt>0</asrwt>
<pdfrwt beam="1">  1       21 0.12935891E+00 0.45645436E+03</pdfrwt>
<pdfrwt beam="2">  1       21 0.87080425E-02 0.45645436E+03</pdfrwt>
<totfact> 0.41125640E+04</totfact>
</mgrwt>
</event>
<event>
 7    0  0.4709932E-002  0.4553382E+03  0.7546771E-02  0.1026142E+00
         21   -1    0    0  502  501  0.00000000000E+00  0.00000000000E+00  0.13110170167E+03  0.13110170167E+03  0.00000000000E+00 0. -1.
         21   -1    0    0  501  502 -0.00000000000E+00 -0.00000000000E+00 -0.39536655062E+03  0.39536655062E+03  0.00000000000E+00 0. -1.
      99926    2    1    2    0    0 -0.14210854715E-13  0.66613381478E-15 -0.26426484895E+03  0.52646825229E+03  0.45533823723E+03 0.  0.
      99925    2    3    3    0    0 -0.94646970257E+02  0.12295370752E+01 -0.23896980151E+03  0.36757549517E+03  0.26276532853E+03 0.  0.
         25    1    3    3    0    0  0.94646970257E+02 -0.12295370752E+01 -0.25295047437E+02  0.15889275712E+03  0.12509000000E+03 0.  0.
         25    1    4    4    0    0 -0.61446980522E+02 -0.26705205839E+02 -0.88911026968E+02  0.16745619801E+03  0.12509000000E+03 0.  0.
         25    1    4    4    0    0 -0.33199989735E+02  0.27934742915E+02 -0.15005877454E+03  0.20011929716E+03  0.12509000000E+03 0.  0.
<mgrwt>
<rscale>  2 0.45533824E+03</rscale>
<asrwt>0</asrwt>
<pdfrwt beam="1">  1       21 0.19279662E-01 0.45533824E+03</pdfrwt>
<pdfrwt beam="2">  1       21 0.58142140E-01 0.45533824E+03</pdfrwt>
<totfact> 0.63276417E+04</totfact>
</mgrwt>
</event>
<event>
 7    0  0.4709932E-002  0.4542450E+03  0.7546771E-02  0.1026464E+00
         21   -1    0    0  502  501  0.00000000000E+00  0.00000000000E+00  0.17507271462E+04  0.17507271462E+04  0.00000000000E+00 0. -1.
         21   -1    0    0  501  502 -0.00000000000E+00 -0.00000000000E+00 -0.29464682620E+02  0.29464682620E+02  0.00000000000E+00 0. -1.
      99926    2    1    2    0    0  0.14210854715E-13 -0.17763568394E-14  0.17212624636E+04  0.17801918288E+04  0.45424495470E+03 0.  0.
      99925    2    3    3    0    0 -0.10163307829E+03  0.14706687017E+02  0.12630813351E+04  0.12942669130E+04  0.26307187934E+03 0.  0.
         25    1    3    3    0    0  0.10163307829E+03 -0.14706687017E+02  0.45818112849E+03  0.48592491586E+03  0.12509000000E+03 0.  0.
         25    1    4    4    0    0 -0.85041093748E+02  0.29231501835E+02  0.75410986939E+03  0.76968543674E+03  0.12509000000E+03 0.  0.
         25    1    4    4    0    0 -0.16591984540E+02 -0.14524814819E+02  0.50897146571E+03  0.52458147623E+03  0.12509000000E+03 0.  0.
<mgrwt>
<rscale>  2 0.45424495E+03</rscale>
<asrwt>0</asrwt>
<pdfrwt beam="1">  1       21 0.25745980E+00 0.45424495E+03</pdfrwt>
<pdfrwt beam="2">  1       21 0.43330427E-02 0.45424495E+03</pdfrwt>
<totfact> 0.17746983E+04</totfact>
</mgrwt>
</event>
<event>
 7    0  0.4709932E-002  0.4540575E+03  0.7546771E-02  0.1026519E+00
         21   -1    0    0  502  501  0.00000000000E+00  0.00000000000E+00  0.62731994446E+03  0.62731994446E+03  0.00000000000E+00 0.  1.
         21   -1    0    0  501  502 -0.00000000000E+00 -0.00000000000E+00 -0.82162319847E+02  0.82162319847E+02  0.00000000000E+00 0.  1.
      99926    2    1    2    0    0 -0.35527136788E-14  0.00000000000E+00  0.54515762462E+03  0.70948226431E+03  0.45405753786E+03 0.  0.
      99925    2    3    3    0    0  0.18091742025E+02  0.10244067983E+03  0.27704612596E+03  0.39586994340E+03  0.26293925565E+03 0.  0.
         25    1    4    4    0    0  0.40028618996E+02  0.27352779220E+02  0.11475753160E+03  0.17654252753E+03  0.12509000000E+03 0.  0.
         25    1    3    3    0    0 -0.18091742025E+02 -0.10244067983E+03  0.26811149866E+03  0.31361232091E+03  0.12509000000E+03 0.  0.
         25    1    4    4    0    0 -0.21936876972E+02  0.75087900614E+02  0.16228859436E+03  0.21932741586E+03  0.12509000000E+03 0.  0.
<mgrwt>
<rscale>  2 0.45405754E+03</rscale>
<asrwt>0</asrwt>
<pdfrwt beam="1">  1       21 0.92252931E-01 0.45405754E+03</pdfrwt>
<pdfrwt beam="2">  1       21 0.12082694E-01 0.45405754E+03</pdfrwt>
<totfact> 0.52781454E+04</totfact>
</mgrwt>
</event>
<event>
 7    0  0.4709932E-002  0.4576414E+03  0.7546771E-02  0.1025467E+00
         21   -1    0    0  502  501  0.00000000000E+00  0.00000000000E+00  0.60910575015E+02  0.60910575015E+02  0.00000000000E+00 0.  1.
         21   -1    0    0  501  502 -0.00000000000E+00 -0.00000000000E+00 -0.85960310769E+03  0.85960310769E+03  0.00000000000E+00 0.  1.
      99926    2    1    2    0    0  0.00000000000E+00  0.71054273576E-14 -0.79869253267E+03  0.92051368270E+03  0.45764142983E+03 0.  0.
      99925    2    3    3    0    0 -0.22595676722E+02  0.38455035742E+02 -0.28671761778E+03  0.39159480805E+03  0.26296415529E+03 0.  0.
         25    1    4    4    0    0  0.14160570024E+02 -0.12306529811E+02 -0.14571712073E+03  0.19295844059E+03  0.12509000000E+03 0.  0.
         25    1    3    3    0    0  0.22595676722E+02 -0.38455035742E+02 -0.51197491489E+03  0.52891887465E+03  0.12509000000E+03 0.  0.
         25    1    4    4    0    0 -0.36756246746E+02  0.50761565554E+02 -0.14100049705E+03  0.19863636747E+03  0.12509000000E+03 0.  0.
<mgrwt>
<rscale>  2 0.45764143E+03</rscale>
<asrwt>0</asrwt>
<pdfrwt beam="1">  1       21 0.89574379E-02 0.45764143E+03</pdfrwt>
<pdfrwt beam="2">  1       21 0.12641222E+00 0.45764143E+03</pdfrwt>
<totfact> 0.41494211E+04</totfact>
</mgrwt>
</event>
<event>
 7    0  0.4709932E-002  0.4477103E+03  0.7546771E-02  0.1028407E+00
         21   -1    0    0  502  501  0.00000000000E+00  0.00000000000E+00  0.11270034088E+03  0.11270034088E+03  0.00000000000E+00 0.  1.
         21   -1    0    0  501  502 -0.00000000000E+00 -0.00000000000E+00 -0.44464048823E+03  0.44464048823E+03  0.00000000000E+00 0.  1.
      99926    2    1    2    0    0  0.00000000000E+00  0.00000000000E+00 -0.33194014735E+03  0.55734082911E+03  0.44771032863E+03 0.  0.
      99925    2    3    3    0    0  0.78209387728E+02  0.42982455436E+02 -0.28246383795E+03  0.39591092761E+03  0.26266983658E+03 0.  0.
         25    1    3    3    0    0 -0.78209387728E+02 -0.42982455436E+02 -0.49476309403E+02  0.16142990149E+03  0.12509000000E+03 0.  0.
         25    1    4    4    0    0  0.12400608814E+01  0.80205645562E+01 -0.11081548821E+03  0.16731242552E+03  0.12509000000E+03 0.  0.
         25    1    4    4    0    0  0.76969326847E+02  0.34961890880E+02 -0.17164834975E+03  0.22859850209E+03  0.12509000000E+03 0.  0.
<mgrwt>
<rscale>  2 0.44771033E+03</rscale>
<asrwt>0</asrwt>
<pdfrwt beam="1">  1       21 0.16573580E-01 0.44771033E+03</pdfrwt>
<pdfrwt beam="2">  1       21 0.65388304E-01 0.44771033E+03</pdfrwt>
<totfact> 0.65054945E+04</totfact>
</mgrwt>
</event>
<event>
 7    0  0.4709932E-002  0.4577581E+03  0.7546771E-02  0.1025433E+00
         21   -1    0    0  502  501  0.00000000000E+00  0.00000000000E+00  0.10260472247E+04  0.10260472247E+04  0.00000000000E+00 0.  1.
         21   -1    0    0  501  502 -0.00000000000E+00 -0.00000000000E+00 -0.51055748186E+02  0.51055748186E+02  0.00000000000E+00 0.  1.
      99926    2    1    2    0    0  0.00000000000E+00  0.00000000000E+00  0.97499147656E+03  0.10771029729E+04  0.45775805283E+03 0.  0.
      99925    2    3    3    0    0  0.41673938163E+02  0.38235126541E+02  0.37558772424E+03  0.46217939360E+03  0.26333440953E+03 0.  0.
         25    1    4    4    0    0  0.14285992919E+02  0.37529628348E+02  0.12793194281E+03  0.18337571456E+03  0.12509000000E+03 0.  0.
         25    1    3    3    0    0 -0.41673938163E+02 -0.38235126541E+02  0.59940375232E+03  0.61492357933E+03  0.12509000000E+03 0.  0.
         25    1    4    4    0    0  0.27387945244E+02  0.70549819246E+00  0.24765578143E+03  0.27880367904E+03  0.12509000000E+03 0.  0.
<mgrwt>
<rscale>  2 0.45775805E+03</rscale>
<asrwt>0</asrwt>
<pdfrwt beam="1">  1       21 0.15088929E+00 0.45775805E+03</pdfrwt>
<pdfrwt beam="2">  1       21 0.75081989E-02 0.45775805E+03</pdfrwt>
<totfact> 0.35527574E+04</totfact>
</mgrwt>
</event>
<event>
 7    0  0.4709932E-002  0.4521324E+03  0.7546771E-02  0.1027088E+00
         21   -1    0    0  502  501  0.00000000000E+00  0.00000000000E+00  0.32265356801E+03  0.32265356801E+03  0.00000000000E+00 0. -1.
         21   -1    0    0  501  502 -0.00000000000E+00 -0.00000000000E+00 -0.15839258491E+03  0.15839258491E+03  0.00000000000E+00 0. -1.
      99926    2    1    2    0    0  0.00000000000E+00  0.17763568394E-14  0.16426098310E+03  0.48104615292E+03  0.45213242603E+03 0.  0.
      99925    2    3    3    0    0  0.10458104461E+03 -0.12599352601E+02  0.68280651380E+02  0.29142634711E+03  0.26300404913E+03 0.  0.
         25    1    3    3    0    0 -0.10458104461E+03  0.12599352601E+02  0.95980331723E+02  0.18961980581E+03  0.12509000000E+03 0.  0.
         25    1    4    4    0    0  0.34719908556E+02 -0.15955277864E+02 -0.41207798613E+01  0.13086073463E+03  0.12509000000E+03 0.  0.
         25    1    4    4    0    0  0.69861136050E+02  0.33559252633E+01  0.72401431241E+02  0.16056561248E+03  0.12509000000E+03 0.  0.
<mgrwt>
<rscale>  2 0.45213243E+03</rscale>
<asrwt>0</asrwt>
<pdfrwt beam="1">  1       21 0.47449054E-01 0.45213243E+03</pdfrwt>
<pdfrwt beam="2">  1       21 0.23293027E-01 0.45213243E+03</pdfrwt>
<totfact> 0.68162435E+04</totfact>
</mgrwt>
</event>
<event>
 7    0  0.4709932E-002  0.4633040E+03  0.7546771E-02  0.1023827E+00
         21   -1    0    0  502  501  0.00000000000E+00  0.00000000000E+00  0.17900367543E+03  0.17900367543E+03  0.00000000000E+00 0.  1.
         21   -1    0    0  501  502 -0.00000000000E+00 -0.00000000000E+00 -0.29978512615E+03  0.29978512615E+03  0.00000000000E+00 0.  1.
      99926    2    1    2    0    0 -0.14210854715E-13  0.00000000000E+00 -0.12078145072E+03  0.47878880158E+03  0.46330395819E+03 0.  0.
      99925    2    3    3    0    0  0.96704100086E+02 -0.66513355796E+02 -0.45931796924E+02  0.29163729011E+03  0.26299594966E+03 0.  0.
         25    1    3    3    0    0 -0.96704100086E+02  0.66513355796E+02 -0.74849653791E+02  0.18715151147E+03  0.12509000000E+03 0.  0.
         25    1    4    4    0    0  0.69341374770E+02 -0.68174742967E+02 -0.40146881246E+02  0.16344816306E+03  0.12509000000E+03 0.  0.
         25    1    4    4    0    0  0.27362725316E+02  0.16613871714E+01 -0.57849156783E+01  0.12818912705E+03  0.12509000000E+03 0.  0.
<mgrwt>
<rscale>  2 0.46330396E+03</rscale>
<asrwt>0</asrwt>
<pdfrwt beam="1">  1       21 0.26324070E-01 0.46330396E+03</pdfrwt>
<pdfrwt beam="2">  1       21 0.44086048E-01 0.46330396E+03</pdfrwt>
<totfact> 0.62563098E+04</totfact>
</mgrwt>
</event>
<event>
 7    0  0.4709932E-002  0.4460570E+03  0.7546771E-02  0.1028904E+00
         21   -1    0    0  502  501  0.00000000000E+00  0.00000000000E+00  0.14367314992E+03  0.14367314992E+03  0.00000000000E+00 0.  1.
         21   -1    0    0  501  502 -0.00000000000E+00 -0.00000000000E+00 -0.34621431312E+03  0.34621431312E+03  0.00000000000E+00 0.  1.
      99926    2    1    2    0    0  0.00000000000E+00  0.00000000000E+00 -0.20254116319E+03  0.48988746304E+03  0.44605695114E+03 0.  0.
      99925    2    3    3    0    0 -0.56262781435E+02  0.85142820356E+02 -0.15330286919E+03  0.32110737497E+03  0.26304633836E+03 0.  0.
         25    1    3    3    0    0  0.56262781435E+02 -0.85142820356E+02 -0.49238294000E+02  0.16878008807E+03  0.12509000000E+03 0.  0.
         25    1    4    4    0    0 -0.14883660609E+02  0.81294967426E+02 -0.72927210830E+02  0.16672216788E+03  0.12509000000E+03 0.  0.
         25    1    4    4    0    0 -0.41379120826E+02  0.38478529299E+01 -0.80375658364E+02  0.15438520710E+03  0.12509000000E+03 0.  0.
<mgrwt>
<rscale>  2 0.44605695E+03</rscale>
<asrwt>0</asrwt>
<pdfrwt beam="1">  1       21 0.21128405E-01 0.44605695E+03</pdfrwt>
<pdfrwt beam="2">  1       21 0.50913869E-01 0.44605695E+03</pdfrwt>
<totfact> 0.70887635E+04</totfact>
</mgrwt>
</event>
<event>
 7    0  0.4709932E-002  0.4485729E+03  0.7546771E-02  0.1028148E+00
         21   -1    0    0  502  501  0.00000000000E+00  0.00000000000E+00  0.71809575168E+03  0.71809575168E+03  0.00000000000E+00 0.  1.
         21   -1    0    0  501  502 -0.00000000000E+00 -0.00000000000E+00 -0.70052515333E+02  0.70052515333E+02  0.00000000000E+00 0.  1.
      99926    2    1    2    0    0  0.00000000000E+00  0.35527136788E-14  0.64804323635E+03  0.78814826702E+03  0.44857290892E+03 0.  0.
      99925    2    3    3    0    0  0.91120793105E+02 -0.25130685462E+02  0.32216047185E+03  0.42651083175E+03  0.26303910297E+03 0.  0.
         25    1    4    4    0    0  0.63383544174E+02  0.22371907460E+02  0.14752941973E+03  0.20476917175E+03  0.12509000000E+03 0.  0.
         25    1    3    3    0    0 -0.91120793105E+02  0.25130685462E+02  0.32588276450E+03  0.36163743526E+03  0.12509000000E+03 0.  0.
         25    1    4    4    0    0  0.27737248931E+02 -0.47502592922E+02  0.17463105213E+03  0.22174166000E+03  0.12509000000E+03 0.  0.
<mgrwt>
<rscale>  2 0.44857291E+03</rscale>
<asrwt>0</asrwt>
<pdfrwt beam="1">  1       21 0.10560231E+00 0.44857291E+03</pdfrwt>
<pdfrwt beam="2">  1       21 0.10301841E-01 0.44857291E+03</pdfrwt>
<totfact> 0.50860936E+04</totfact>
</mgrwt>
</event>
<event>
 7    0  0.4709932E-002  0.4423533E+03  0.7546771E-02  0.1030027E+00
         21   -1    0    0  502  501  0.00000000000E+00  0.00000000000E+00  0.11812223871E+03  0.11812223871E+03  0.00000000000E+00 0.  1.
         21   -1    0    0  501  502 -0.00000000000E+00 -0.00000000000E+00 -0.41413967602E+03  0.41413967602E+03  0.00000000000E+00 0.  1.
      99926    2    1    2    0    0 -0.71054273576E-14  0.35527136788E-14 -0.29601743731E+03  0.53226191474E+03  0.44235327815E+03 0.  0.
      99925    2    3    3    0    0  0.38467761463E+02 -0.27848115362E+02 -0.29586480733E+03  0.39846050369E+03  0.26263949167E+03 0.  0.
         25    1    3    3    0    0 -0.38467761463E+02  0.27848115362E+02 -0.15262997117E+00  0.13380141104E+03  0.12509000000E+03 0.  0.
         25    1    4    4    0    0 -0.11067046818E+02 -0.59989304267E+01 -0.18004297442E+03  0.21959382375E+03  0.12509000000E+03 0.  0.
         25    1    4    4    0    0  0.49534808280E+02 -0.21849184936E+02 -0.11582183292E+03  0.17886667994E+03  0.12509000000E+03 0.  0.
<mgrwt>
<rscale>  2 0.44235328E+03</rscale>
<asrwt>0</asrwt>
<pdfrwt beam="1">  1       21 0.17370917E-01 0.44235328E+03</pdfrwt>
<pdfrwt beam="2">  1       21 0.60902894E-01 0.44235328E+03</pdfrwt>
<totfact> 0.69781475E+04</totfact>
</mgrwt>
</event>
<event>
 7    0  0.4709932E-002  0.4348828E+03  0.7546771E-02  0.1032329E+00
         21   -1    0    0  502  501  0.00000000000E+00  0.00000000000E+00  0.15270770603E+03  0.15270770603E+03  0.00000000000E+00 0. -1.
         21   -1    0    0  501  502 -0.00000000000E+00 -0.00000000000E+00 -0.30961606931E+03  0.30961606931E+03  0.00000000000E+00 0. -1.
      99926    2    1    2    0    0  0.00000000000E+00  0.00000000000E+00 -0.15690836328E+03  0.46232377534E+03  0.43488278741E+03 0.  0.
      99925    2    3    3    0    0 -0.86815500939E+02  0.28161512511E+02 -0.81687956796E+02  0.29017378365E+03  0.26305493807E+03 0.  0.
         25    1    3    3    0    0  0.86815500939E+02 -0.28161512511E+02 -0.75220406482E+02  0.17214999170E+03  0.12509000000E+03 0.  0.
         25    1    4    4    0    0 -0.20769595994E+02  0.21606042915E+02 -0.73912415476E+02  0.14835346464E+03  0.12509000000E+03 0.  0.
         25    1    4    4    0    0 -0.66045904945E+02  0.65554695958E+01 -0.77755413198E+01  0.14182031901E+03  0.12509000000E+03 0.  0.
<mgrwt>
<rscale>  2 0.43488279E+03</rscale>
<asrwt>0</asrwt>
<pdfrwt beam="1">  1       21 0.22457016E-01 0.43488279E+03</pdfrwt>
<pdfrwt beam="2">  1       21 0.45531775E-01 0.43488279E+03</pdfrwt>
<totfact> 0.80046134E+04</totfact>
</mgrwt>
</event>
<event>
 7    0  0.4709932E-002  0.4663910E+03  0.7546771E-02  0.1022944E+00
         21   -1    0    0  502  501  0.00000000000E+00  0.00000000000E+00  0.95687214413E+02  0.95687214413E+02  0.00000000000E+00 0. -1.
         21   -1    0    0  501  502 -0.00000000000E+00 -0.00000000000E+00 -0.56831157852E+03  0.56831157852E+03  0.00000000000E+00 0. -1.
      99926    2    1    2    0    0  0.00000000000E+00 -0.14210854715E-13 -0.47262436411E+03  0.66399879294E+03  0.46639104566E+03 0.  0.
      99925    2    3    3    0    0  0.35125650830E+02 -0.11632691235E+03 -0.32704891307E+03  0.43683039300E+03  0.26285744963E+03 0.  0.
         25    1    4    4    0    0 -0.53030905259E+01 -0.30944382320E+02 -0.18342576973E+03  0.22422800598E+03  0.12509000000E+03 0.  0.
         25    1    4    4    0    0  0.40428741356E+02 -0.85382530034E+02 -0.14362314333E+03  0.21260238701E+03  0.12509000000E+03 0.  0.
         25    1    3    3    0    0 -0.35125650830E+02  0.11632691235E+03 -0.14557545104E+03  0.22716839994E+03  0.12509000000E+03 0.  0.
<mgrwt>
<rscale>  2 0.46639105E+03</rscale>
<asrwt>0</asrwt>
<pdfrwt beam="1">  1       21 0.14071650E-01 0.46639105E+03</pdfrwt>
<pdfrwt beam="2">  1       21 0.83575228E-01 0.46639105E+03</pdfrwt>
<totfact> 0.50234749E+04</totfact>
</mgrwt>
</event>
<event>
 7    0  0.4709932E-002  0.4550943E+03  0.7546771E-02  0.1026214E+00
         21   -1    0    0  502  501  0.00000000000E+00  0.00000000000E+00  0.85803495078E+02  0.85803495078E+02  0.00000000000E+00 0.  1.
         21   -1    0    0  501  502 -0.00000000000E+00 -0.00000000000E+00 -0.60344518663E+03  0.60344518663E+03  0.00000000000E+00 0.  1.
      99926    2    1    2    0    0  0.00000000000E+00 -0.22204460493E-15 -0.51764169155E+03  0.68924868170E+03  0.45509430276E+03 0.  0.
      99925    2    3    3    0    0 -0.73932003874E+02 -0.52887158478E+00 -0.19542467086E+03  0.33578363757E+03  0.26285666889E+03 0.  0.
         25    1    4    4    0    0 -0.77530050726E+02  0.82551534412E+01 -0.99037919260E+02  0.17758117545E+03  0.12509000000E+03 0.  0.
         25    1    3    3    0    0  0.73932003874E+02  0.52887158478E+00 -0.32221702069E+03  0.35346504413E+03  0.12509000000E+03 0.  0.
         25    1    4    4    0    0  0.35980468520E+01 -0.87840250259E+01 -0.96386751600E+02  0.15820246212E+03  0.12509000000E+03 0.  0.
<mgrwt>
<rscale>  2 0.45509430E+03</rscale>
<asrwt>0</asrwt>
<pdfrwt beam="1">  1       21 0.12618161E-01 0.45509430E+03</pdfrwt>
<pdfrwt beam="2">  1       21 0.88741936E-01 0.45509430E+03</pdfrwt>
<totfact> 0.53451010E+04</totfact>
</mgrwt>
</event>
<event>
 7    0  0.4709932E-002  0.4567815E+03  0.7546771E-02  0.1025719E+00
         21   -1    0    0  502  501  0.00000000000E+00  0.00000000000E+00  0.19033832068E+02  0.19033832068E+02  0.00000000000E+00 0.  1.
         21   -1    0    0  501  502 -0.00000000000E+00 -0.00000000000E+00 -0.27405067044E+04  0.27405067044E+04  0.00000000000E+00 0.  1.
      99926    2    1    2    0    0  0.00000000000E+00  0.00000000000E+00 -0.27214728723E+04  0.27595405365E+04  0.45678154251E+03 0.  0.
      99925    2    3    3    0    0 -0.49346737829E+02 -0.80103222494E+02 -0.21061686018E+04  0.21246401661E+04  0.26324518922E+03 0.  0.
         25    1    4    4    0    0 -0.24507356929E+02 -0.24606118669E+02 -0.72929187799E+03  0.74075652074E+03  0.12509000000E+03 0.  0.
         25    1    3    3    0    0  0.49346737829E+02  0.80103222494E+02 -0.61530427056E+03  0.63490037034E+03  0.12509000000E+03 0.  0.
         25    1    4    4    0    0 -0.24839380900E+02 -0.55497103825E+02 -0.13768767238E+04  0.13838836454E+04  0.12509000000E+03 0.  0.
<mgrwt>
<rscale>  2 0.45678154E+03</rscale>
<asrwt>0</asrwt>
<pdfrwt beam="1">  1       21 0.27990907E-02 0.45678154E+03</pdfrwt>
<pdfrwt beam="2">  1       21 0.40301601E+00 0.45678154E+03</pdfrwt>
<totfact> 0.47580041E+03</totfact>
</mgrwt>
</event>
<event>
 7    0  0.4709932E-002  0.4423649E+03  0.7546771E-02  0.1030024E+00
         21   -1    0    0  502  501  0.00000000000E+00  0.00000000000E+00  0.17823039592E+03  0.17823039592E+03  0.00000000000E+00 0. -1.
         21   -1    0    0  501  502 -0.00000000000E+00 -0.00000000000E+00 -0.27448564196E+03  0.27448564196E+03  0.00000000000E+00 0. -1.
      99926    2    1    2    0    0  0.14210854715E-13  0.00000000000E+00 -0.96255246038E+02  0.45271603787E+03  0.44236493821E+03 0.  0.
      99925    2    3    3    0    0  0.79553694205E+02 -0.45303220333E+02 -0.10530048900E+03  0.29744048747E+03  0.26268132512E+03 0.  0.
         25    1    4    4    0    0  0.47164982244E+02 -0.62567622923E+02 -0.61686795393E+02  0.15997503497E+03  0.12509000000E+03 0.  0.
         25    1    3    3    0    0 -0.79553694205E+02  0.45303220333E+02  0.90452429629E+01  0.15527555041E+03  0.12509000000E+03 0.  0.
         25    1    4    4    0    0  0.32388711961E+02  0.17264402591E+02 -0.43613693608E+02  0.13746545249E+03  0.12509000000E+03 0.  0.
<mgrwt>
<rscale>  2 0.44236494E+03</rscale>
<asrwt>0</asrwt>
<pdfrwt beam="1">  1       21 0.26210353E-01 0.44236494E+03</pdfrwt>
<pdfrwt beam="2">  1       21 0.40365535E-01 0.44236494E+03</pdfrwt>
<totfact> 0.76087593E+04</totfact>
</mgrwt>
</event>
<event>
 7    0  0.4709932E-002  0.4582626E+03  0.7546771E-02  0.1025286E+00
         21   -1    0    0  502  501  0.00000000000E+00  0.00000000000E+00  0.12564804074E+03  0.12564804074E+03  0.00000000000E+00 0. -1.
         21   -1    0    0  501  502 -0.00000000000E+00 -0.00000000000E+00 -0.41784294112E+03  0.41784294112E+03  0.00000000000E+00 0. -1.
      99926    2    1    2    0    0  0.00000000000E+00  0.00000000000E+00 -0.29219490038E+03  0.54349098186E+03  0.45826257490E+03 0.  0.
      99925    2    3    3    0    0  0.83772561856E+02  0.36917096261E+02 -0.26810319747E+03  0.38661959388E+03  0.26308681412E+03 0.  0.
         25    1    3    3    0    0 -0.83772561856E+02 -0.36917096261E+02 -0.24091702906E+02  0.15687138797E+03  0.12509000000E+03 0.  0.
         25    1    4    4    0    0  0.28227468708E+02  0.48241285707E+02 -0.16739781697E+03  0.21631816582E+03  0.12509000000E+03 0.  0.
         25    1    4    4    0    0  0.55545093147E+02 -0.11324189447E+02 -0.10070538050E+03  0.17030142807E+03  0.12509000000E+03 0.  0.
<mgrwt>
<rscale>  2 0.45826257E+03</rscale>
<asrwt>0</asrwt>
<pdfrwt beam="1">  1       21 0.18477653E-01 0.45826257E+03</pdfrwt>
<pdfrwt beam="2">  1       21 0.61447490E-01 0.45826257E+03</pdfrwt>
<totfact> 0.60715901E+04</totfact>
</mgrwt>
</event>
<event>
 7    0  0.4709932E-002  0.4553121E+03  0.7546771E-02  0.1026150E+00
         21   -1    0    0  502  501  0.00000000000E+00  0.00000000000E+00  0.11831297168E+04  0.11831297168E+04  0.00000000000E+00 0. -1.
         21   -1    0    0  501  502 -0.00000000000E+00 -0.00000000000E+00 -0.43805227275E+02  0.43805227275E+02  0.00000000000E+00 0. -1.
      99926    2    1    2    0    0  0.00000000000E+00  0.00000000000E+00  0.11393244895E+04  0.12269349441E+04  0.45531205185E+03 0.  0.
      99925    2    3    3    0    0 -0.10309781590E+03  0.14998519972E+02  0.83837666334E+03  0.88477822935E+03  0.26287443819E+03 0.  0.
         25    1    4    4    0    0 -0.56387711402E+02  0.28262476945E+02  0.32011224768E+03  0.34942481425E+03  0.12509000000E+03 0.  0.
         25    1    4    4    0    0 -0.46710104500E+02 -0.13263956973E+02  0.51826441566E+03  0.53535341510E+03  0.12509000000E+03 0.  0.
         25    1    3    3    0    0  0.10309781590E+03 -0.14998519972E+02  0.30094782618E+03  0.34215671472E+03  0.12509000000E+03 0.  0.
<mgrwt>
<rscale>  2 0.45531205E+03</rscale>
<asrwt>0</asrwt>
<pdfrwt beam="1">  1       21 0.17398964E+00 0.45531205E+03</pdfrwt>
<pdfrwt beam="2">  1       21 0.64419459E-02 0.45531205E+03</pdfrwt>
<totfact> 0.31236696E+04</totfact>
</mgrwt>
</event>
<event>
 7    0  0.4709932E-002  0.4538915E+03  0.7546771E-02  0.1026568E+00
         21   -1    0    0  502  501  0.00000000000E+00  0.00000000000E+00  0.89861250077E+02  0.89861250077E+02  0.00000000000E+00 0.  1.
         21   -1    0    0  501  502 -0.00000000000E+00 -0.00000000000E+00 -0.57315439054E+03  0.57315439054E+03  0.00000000000E+00 0.  1.
      99926    2    1    2    0    0  0.00000000000E+00 -0.71054273576E-14 -0.48329314047E+03  0.66301564062E+03  0.45389148492E+03 0.  0.
      99925    2    3    3    0    0  0.90627054220E+02 -0.34827398651E+02 -0.38632181356E+03  0.47733538590E+03  0.26301771108E+03 0.  0.
         25    1    3    3    0    0 -0.90627054220E+02  0.34827398651E+02 -0.96971326904E+02  0.18568025473E+03  0.12509000000E+03 0.  0.
         25    1    4    4    0    0  0.62762736228E+02 -0.48847227711E+02 -0.24225446442E+03  0.28400694770E+03  0.12509000000E+03 0.  0.
         25    1    4    4    0    0  0.27864317992E+02  0.14019829059E+02 -0.14406734915E+03  0.19332843819E+03  0.12509000000E+03 0.  0.
<mgrwt>
<rscale>  2 0.45389148E+03</rscale>
<asrwt>0</asrwt>
<pdfrwt beam="1">  1       21 0.13214889E-01 0.45389148E+03</pdfrwt>
<pdfrwt beam="2">  1       21 0.84287413E-01 0.45389148E+03</pdfrwt>
<totfact> 0.55440047E+04</totfact>
</mgrwt>
</event>
<event>
 7    0  0.4709932E-002  0.4487884E+03  0.7546771E-02  0.1028084E+00
         21   -1    0    0  502  501  0.00000000000E+00  0.00000000000E+00  0.21275841661E+03  0.21275841661E+03  0.00000000000E+00 0.  1.
         21   -1    0    0  501  502 -0.00000000000E+00 -0.00000000000E+00 -0.23666639704E+03  0.23666639704E+03  0.00000000000E+00 0.  1.
      99926    2    1    2    0    0  0.14210854715E-13 -0.17763568394E-14 -0.23907980425E+02  0.44942481365E+03  0.44878844860E+03 0.  0.
      99925    2    3    3    0    0 -0.83179024094E+02  0.14482178269E+02 -0.81683454095E+02  0.28782655563E+03  0.26276121464E+03 0.  0.
         25    1    4    4    0    0 -0.89544189702E+01  0.28734340946E+02 -0.24983825248E+02  0.13106312827E+03  0.12509000000E+03 0.  0.
         25    1    4    4    0    0 -0.74224605124E+02 -0.14252162677E+02 -0.56699628847E+02  0.15676342736E+03  0.12509000000E+03 0.  0.
         25    1    3    3    0    0  0.83179024094E+02 -0.14482178269E+02  0.57775473670E+02  0.16159825802E+03  0.12509000000E+03 0.  0.
<mgrwt>
<rscale>  2 0.44878845E+03</rscale>
<asrwt>0</asrwt>
<pdfrwt beam="1">  1       21 0.31288003E-01 0.44878845E+03</pdfrwt>
<pdfrwt beam="2">  1       21 0.34803882E-01 0.44878845E+03</pdfrwt>
<totfact> 0.72482442E+04</totfact>
</mgrwt>
</event>
<event>
 7    0  0.4709932E-002  0.4539996E+03  0.7546771E-02  0.1026536E+00
         21   -1    0    0  502  501  0.00000000000E+00  0.00000000000E+00  0.50668281536E+02  0.50668281536E+02  0.00000000000E+00 0. -1.
         21   -1    0    0  501  502 -0.00000000000E+00 -0.00000000000E+00 -0.10169853198E+04  0.10169853198E+04  0.00000000000E+00 0. -1.
      99926    2    1    2    0    0  0.00000000000E+00  0.00000000000E+00 -0.96631703830E+03  0.10676536014E+04  0.45399955288E+03 0.  0.
      99925    2    3    3    0    0 -0.29531195124E+02 -0.70841888878E+02 -0.41629648576E+03  0.49839023436E+03  0.26305778252E+03 0.  0.
         25    1    4    4    0    0  0.10626893943E+02 -0.26891376659E+02 -0.14431110686E+03  0.19315610442E+03  0.12509000000E+03 0.  0.
         25    1    4    4    0    0 -0.40158089067E+02 -0.43950512219E+02 -0.27198537890E+03  0.30523412994E+03  0.12509000000E+03 0.  0.
         25    1    3    3    0    0  0.29531195124E+02  0.70841888878E+02 -0.55002055253E+03  0.56926336700E+03  0.12509000000E+03 0.  0.
<mgrwt>
<rscale>  2 0.45399955E+03</rscale>
<asrwt>0</asrwt>
<pdfrwt beam="1">  1       21 0.74512182E-02 0.45399955E+03</pdfrwt>
<pdfrwt beam="2">  1       21 0.14955666E+00 0.45399955E+03</pdfrwt>
<totfact> 0.36923658E+04</totfact>
</mgrwt>
</event>
<event>
 7    0  0.4709932E-002  0.4412168E+03  0.7546771E-02  0.1030374E+00
         21   -1    0    0  502  501  0.00000000000E+00  0.00000000000E+00  0.51185963531E+03  0.51185963531E+03  0.00000000000E+00 0.  1.
         21   -1    0    0  501  502 -0.00000000000E+00 -0.00000000000E+00 -0.95080892358E+02  0.95080892358E+02  0.00000000000E+00 0.  1.
      99926    2    1    2    0    0  0.35527136788E-14  0.35527136788E-14  0.41677874296E+03  0.60694052767E+03  0.44121682147E+03 0.  0.
      99925    2    3    3    0    0  0.15991828345E+02  0.23857492110E+02  0.39679798989E+03  0.47704958458E+03  0.26325414122E+03 0.  0.
         25    1    3    3    0    0 -0.15991828345E+02 -0.23857492110E+02  0.19980753069E+02  0.12989094309E+03  0.12509000000E+03 0.  0.
         25    1    4    4    0    0 -0.22861981858E+02  0.36199924442E+02  0.21996709686E+03  0.25664398794E+03  0.12509000000E+03 0.  0.
         25    1    4    4    0    0  0.38853810203E+02 -0.12342432332E+02  0.17683089302E+03  0.22040559664E+03  0.12509000000E+03 0.  0.
<mgrwt>
<rscale>  2 0.44121682E+03</rscale>
<asrwt>0</asrwt>
<pdfrwt beam="1">  1       21 0.75273474E-01 0.44121682E+03</pdfrwt>
<pdfrwt beam="2">  1       21 0.13982484E-01 0.44121682E+03</pdfrwt>
<totfact> 0.65051445E+04</totfact>
</mgrwt>
</event>
<event>
 7    0  0.4709932E-002  0.4502598E+03  0.7546771E-02  0.1027645E+00
         21   -1    0    0  502  501  0.00000000000E+00  0.00000000000E+00  0.82132942939E+02  0.82132942939E+02  0.00000000000E+00 0. -1.
         21   -1    0    0  501  502 -0.00000000000E+00 -0.00000000000E+00 -0.61709067981E+03  0.61709067981E+03  0.00000000000E+00 0. -1.
      99926    2    1    2    0    0  0.35527136788E-14  0.00000000000E+00 -0.53495773687E+03  0.69922362275E+03  0.45025980764E+03 0.  0.
      99925    2    3    3    0    0 -0.23262521756E+02 -0.40329233576E+01 -0.50286542108E+03  0.56794211521E+03  0.26292053005E+03 0.  0.
         25    1    4    4    0    0 -0.20570778892E+02  0.37247273375E+02 -0.25947980076E+03  0.29118343260E+03  0.12509000000E+03 0.  0.
         25    1    4    4    0    0 -0.26917428647E+01 -0.41280196732E+02 -0.24338562032E+03  0.27675868261E+03  0.12509000000E+03 0.  0.
         25    1    3    3    0    0  0.23262521756E+02  0.40329233576E+01 -0.32092315793E+02  0.13128150754E+03  0.12509000000E+03 0.  0.
<mgrwt>
<rscale>  2 0.45025981E+03</rscale>
<asrwt>0</asrwt>
<pdfrwt beam="1">  1       21 0.12078374E-01 0.45025981E+03</pdfrwt>
<pdfrwt beam="2">  1       21 0.90748630E-01 0.45025981E+03</pdfrwt>
<totfact> 0.54967142E+04</totfact>
</mgrwt>
</event>
<event>
 7    0  0.4709932E-002  0.4554950E+03  0.7546771E-02  0.1026096E+00
         21   -1    0    0  502  501  0.00000000000E+00  0.00000000000E+00  0.90384520781E+02  0.90384520781E+02  0.00000000000E+00 0.  1.
         21   -1    0    0  501  502 -0.00000000000E+00 -0.00000000000E+00 -0.57386946615E+03  0.57386946615E+03  0.00000000000E+00 0.  1.
      99926    2    1    2    0    0 -0.35527136788E-14  0.00000000000E+00 -0.48348494537E+03  0.66425398693E+03  0.45549496897E+03 0.  0.
      99925    2    3    3    0    0 -0.24271236822E+02 -0.53061499259E+02 -0.16195469835E+03  0.31434853757E+03  0.26302293268E+03 0.  0.
         25    1    4    4    0    0  0.20761596449E+02 -0.13044049079E+02 -0.10137441942E+03  0.16286642415E+03  0.12509000000E+03 0.  0.
         25    1    3    3    0    0  0.24271236822E+02  0.53061499259E+02 -0.32153024702E+03  0.34990544936E+03  0.12509000000E+03 0.  0.
         25    1    4    4    0    0 -0.45032833271E+02 -0.40017450181E+02 -0.60580278924E+02  0.15148211342E+03  0.12509000000E+03 0.  0.
<mgrwt>
<rscale>  2 0.45549497E+03</rscale>
<asrwt>0</asrwt>
<pdfrwt beam="1">  1       21 0.13291841E-01 0.45549497E+03</pdfrwt>
<pdfrwt beam="2">  1       21 0.84392569E-01 0.45549497E+03</pdfrwt>
<totfact> 0.54673142E+04</totfact>
</mgrwt>
</event>
<event>
 7    0  0.4709932E-002  0.4563730E+03  0.7546771E-02  0.1025838E+00
         21   -1    0    0  502  501  0.00000000000E+00  0.00000000000E+00  0.11727926026E+04  0.11727926026E+04  0.00000000000E+00 0.  1.
         21   -1    0    0  501  502 -0.00000000000E+00 -0.00000000000E+00 -0.44397520867E+02  0.44397520867E+02  0.00000000000E+00 0.  1.
      99926    2    1    2    0    0  0.00000000000E+00  0.00000000000E+00  0.11283950818E+04  0.12171901235E+04  0.45637302307E+03 0.  0.
      99925    2    3    3    0    0 -0.36857813028E+02 -0.10694993268E+03  0.75406508740E+03  0.80662071491E+03  0.26310840962E+03 0.  0.
         25    1    3    3    0    0  0.36857813028E+02  0.10694993268E+03  0.37432999435E+03  0.41056940857E+03  0.12509000000E+03 0.  0.
         25    1    4    4    0    0 -0.21202755738E+02 -0.60496321441E+02  0.27183562293E+03  0.30602528613E+03  0.12509000000E+03 0.  0.
         25    1    4    4    0    0 -0.15655057290E+02 -0.46453611237E+02  0.48222946447E+03  0.50059542878E+03  0.12509000000E+03 0.  0.
<mgrwt>
<rscale>  2 0.45637302E+03</rscale>
<asrwt>0</asrwt>
<pdfrwt beam="1">  1       21 0.17246948E+00 0.45637302E+03</pdfrwt>
<pdfrwt beam="2">  1       21 0.65290479E-02 0.45637302E+03</pdfrwt>
<totfact> 0.31279964E+04</totfact>
</mgrwt>
</event>
<event>
 7    0  0.4709932E-002  0.4546852E+03  0.7546771E-02  0.1026334E+00
         21   -1    0    0  502  501  0.00000000000E+00  0.00000000000E+00  0.10051655397E+03  0.10051655397E+03  0.00000000000E+00 0.  1.
         21   -1    0    0  501  502 -0.00000000000E+00 -0.00000000000E+00 -0.51419044089E+03  0.51419044089E+03  0.00000000000E+00 0.  1.
      99926    2    1    2    0    0  0.00000000000E+00  0.00000000000E+00 -0.41367388692E+03  0.61470699487E+03  0.45468517110E+03 0.  0.
      99925    2    3    3    0    0  0.60941752130E+02  0.94719963681E+02 -0.26983585971E+03  0.39329639249E+03  0.26303021212E+03 0.  0.
         25    1    4    4    0    0  0.30508629250E+02  0.62270621853E+01 -0.10570563012E+03  0.16670555210E+03  0.12509000000E+03 0.  0.
         25    1    4    4    0    0  0.30433122881E+02  0.88492901496E+02 -0.16413022960E+03  0.22659084039E+03  0.12509000000E+03 0.  0.
         25    1    3    3    0    0 -0.60941752130E+02 -0.94719963681E+02 -0.14383802721E+03  0.22141060237E+03  0.12509000000E+03 0.  0.
<mgrwt>
<rscale>  2 0.45468517E+03</rscale>
<asrwt>0</asrwt>
<pdfrwt beam="1">  1       21 0.14781846E-01 0.45468517E+03</pdfrwt>
<pdfrwt beam="2">  1       21 0.75616241E-01 0.45468517E+03</pdfrwt>
<totfact> 0.57925923E+04</totfact>
</mgrwt>
</event>
<event>
 7    0  0.4709932E-002  0.4582963E+03  0.7546771E-02  0.1025277E+00
         21   -1    0    0  502  501  0.00000000000E+00  0.00000000000E+00  0.50665612187E+03  0.50665612187E+03  0.00000000000E+00 0.  1.
         21   -1    0    0  501  502 -0.00000000000E+00 -0.00000000000E+00 -0.10363807350E+03  0.10363807350E+03  0.00000000000E+00 0.  1.
      99926    2    1    2    0    0  0.00000000000E+00 -0.14210854715E-13  0.40301804838E+03  0.61029419537E+03  0.45829625526E+03 0.  0.
      99925    2    3    3    0    0 -0.89313184079E+02 -0.73287415386E+02  0.23574731039E+03  0.37160004381E+03  0.26298651695E+03 0.  0.
         25    1    3    3    0    0  0.89313184079E+02  0.73287415386E+02  0.16727073798E+03  0.23869415156E+03  0.12509000000E+03 0.  0.
         25    1    4    4    0    0 -0.41740873110E+02 -0.78150512331E+02  0.12883311679E+03  0.20023806618E+03  0.12509000000E+03 0.  0.
         25    1    4    4    0    0 -0.47572310970E+02  0.48630969457E+01  0.10691419360E+03  0.17136197763E+03  0.12509000000E+03 0.  0.
<mgrwt>
<rscale>  2 0.45829626E+03</rscale>
<asrwt>0</asrwt>
<pdfrwt beam="1">  1       21 0.74508252E-01 0.45829626E+03</pdfrwt>
<pdfrwt beam="2">  1       21 0.15240893E-01 0.45829626E+03</pdfrwt>
<totfact> 0.56561909E+04</totfact>
</mgrwt>
</event>
<event>
 7    0  0.4709932E-002  0.4595425E+03  0.7546771E-02  0.1024914E+00
         21   -1    0    0  502  501  0.00000000000E+00  0.00000000000E+00  0.94640650296E+02  0.94640650296E+02  0.00000000000E+00 0.  1.
         21   -1    0    0  501  502 -0.00000000000E+00 -0.00000000000E+00 -0.55784523599E+03  0.55784523599E+03  0.00000000000E+00 0.  1.
      99926    2    1    2    0    0  0.00000000000E+00  0.00000000000E+00 -0.46320458570E+03  0.65248588629E+03  0.45954253731E+03 0.  0.
      99925    2    3    3    0    0 -0.65785416713E+02 -0.81750137531E+02 -0.36471964686E+03  0.46180920361E+03  0.26312832173E+03 0.  0.
         25    1    4    4    0    0 -0.63315892631E+02 -0.47581468449E+02 -0.14864981846E+03  0.20980270500E+03  0.12509000000E+03 0.  0.
         25    1    3    3    0    0  0.65785416713E+02  0.81750137531E+02 -0.98484938840E+02  0.19067668268E+03  0.12509000000E+03 0.  0.
         25    1    4    4    0    0 -0.24695240824E+01 -0.34168669082E+02 -0.21606982840E+03  0.25200649861E+03  0.12509000000E+03 0.  0.
<mgrwt>
<rscale>  2 0.45954254E+03</rscale>
<asrwt>0</asrwt>
<pdfrwt beam="1">  1       21 0.13917743E-01 0.45954254E+03</pdfrwt>
<pdfrwt beam="2">  1       21 0.82036062E-01 0.45954254E+03</pdfrwt>
<totfact> 0.53611393E+04</totfact>
</mgrwt>
</event>
<event>
 7    0  0.4709932E-002  0.4566806E+03  0.7546771E-02  0.1025748E+00
         21   -1    0    0  502  501  0.00000000000E+00  0.00000000000E+00  0.17725195508E+04  0.17725195508E+04  0.00000000000E+00 0.  1.
         21   -1    0    0  501  502 -0.00000000000E+00 -0.00000000000E+00 -0.29415359366E+02  0.29415359366E+02  0.00000000000E+00 0.  1.
      99926    2    1    2    0    0  0.00000000000E+00  0.00000000000E+00  0.17431041914E+04  0.18019349101E+04  0.45668063050E+03 0.  0.
      99925    2    3    3    0    0  0.37437617063E+02  0.53763771883E+02  0.72272938796E+03  0.77183570815E+03  0.26286968979E+03 0.  0.
         25    1    4    4    0    0  0.33955331965E+02  0.20190486169E+02  0.46816960809E+03  0.48620048369E+03  0.12509000000E+03 0.  0.
         25    1    3    3    0    0 -0.37437617063E+02 -0.53763771883E+02  0.10203748034E+04  0.10300992020E+04  0.12509000000E+03 0.  0.
         25    1    4    4    0    0  0.34822850984E+01  0.33573285714E+02  0.25455977988E+03  0.28563522446E+03  0.12509000000E+03 0.  0.
<mgrwt>
<rscale>  2 0.45668063E+03</rscale>
<asrwt>0</asrwt>
<pdfrwt beam="1">  1       21 0.26066457E+00 0.45668063E+03</pdfrwt>
<pdfrwt beam="2">  1       21 0.43257893E-02 0.45668063E+03</pdfrwt>
<totfact> 0.16999425E+04</totfact>
</mgrwt>
</event>
<event>
 7    0  0.4709932E-002  0.4592031E+03  0.7546771E-02  0.1025013E+00
         21   -1    0    0  502  501  0.00000000000E+00  0.00000000000E+00  0.59238500012E+03  0.59238500012E+03  0.00000000000E+00 0.  1.
         21   -1    0    0  501  502 -0.00000000000E+00 -0.00000000000E+00 -0.88990876498E+02  0.88990876498E+02  0.00000000000E+00 0.  1.
      99926    2    1    2    0    0  0.00000000000E+00  0.71054273576E-14  0.50339412362E+03  0.68137587662E+03  0.45920305045E+03 0.  0.
      99925    2    3    3    0    0  0.10744068912E+03  0.42216607070E+02  0.34497480083E+03  0.44884645155E+03  0.26292542720E+03 0.  0.
         25    1    4    4    0    0  0.84313732432E+02  0.42682661295E+02  0.22310632601E+03  0.27268031806E+03  0.12509000000E+03 0.  0.
         25    1    3    3    0    0 -0.10744068912E+03 -0.42216607070E+02  0.15841932279E+03  0.23252942507E+03  0.12509000000E+03 0.  0.
         25    1    4    4    0    0  0.23126956688E+02 -0.46605422531E+00  0.12186847483E+03  0.17616613349E+03  0.12509000000E+03 0.  0.
<mgrwt>
<rscale>  2 0.45920305E+03</rscale>
<asrwt>0</asrwt>
<pdfrwt beam="1">  1       21 0.87115439E-01 0.45920305E+03</pdfrwt>
<pdfrwt beam="2">  1       21 0.13086894E-01 0.45920305E+03</pdfrwt>
<totfact> 0.52176960E+04</totfact>
</mgrwt>
</event>
<event>
 7    0  0.4709932E-002  0.4562672E+03  0.7546771E-02  0.1025869E+00
         21   -1    0    0  502  501  0.00000000000E+00  0.00000000000E+00  0.17715041392E+03  0.17715041392E+03  0.00000000000E+00 0.  1.
         21   -1    0    0  501  502 -0.00000000000E+00 -0.00000000000E+00 -0.29378950589E+03  0.29378950589E+03  0.00000000000E+00 0.  1.
      99926    2    1    2    0    0  0.14210854715E-13  0.00000000000E+00 -0.11663909198E+03  0.47093991981E+03  0.45626716986E+03 0.  0.
      99925    2    3    3    0    0  0.64335075358E+02  0.81265872580E+02 -0.12335240433E+03  0.30834926623E+03  0.26290741786E+03 0.  0.
         25    1    4    4    0    0 -0.53576271774E+01  0.34050013480E+02 -0.75702101795E+02  0.15022124984E+03  0.12509000000E+03 0.  0.
         25    1    4    4    0    0  0.69692702535E+02  0.47215859100E+02 -0.47650302537E+02  0.15812801639E+03  0.12509000000E+03 0.  0.
         25    1    3    3    0    0 -0.64335075358E+02 -0.81265872580E+02  0.67133123524E+01  0.16259065358E+03  0.12509000000E+03 0.  0.
<mgrwt>
<rscale>  2 0.45626717E+03</rscale>
<asrwt>0</asrwt>
<pdfrwt beam="1">  1       21 0.26051532E-01 0.45626717E+03</pdfrwt>
<pdfrwt beam="2">  1       21 0.43204338E-01 0.45626717E+03</pdfrwt>
<totfact> 0.66692920E+04</totfact>
</mgrwt>
</event>
<event>
 7    0  0.4709932E-002  0.4508565E+03  0.7546771E-02  0.1027467E+00
         21   -1    0    0  502  501  0.00000000000E+00  0.00000000000E+00  0.39945268664E+03  0.39945268664E+03  0.00000000000E+00 0. -1.
         21   -1    0    0  501  502 -0.00000000000E+00 -0.00000000000E+00 -0.12721880438E+03  0.12721880438E+03  0.00000000000E+00 0. -1.
      99926    2    1    2    0    0  0.00000000000E+00 -0.35527136788E-14  0.27223388226E+03  0.52667149103E+03  0.45085648804E+03 0.  0.
      99925    2    3    3    0    0 -0.98216945506E+02 -0.26018714735E+02  0.12483552217E+03  0.30827431486E+03  0.26291748459E+03 0.  0.
         25    1    3    3    0    0  0.98216945506E+02  0.26018714735E+02  0.14739836009E+03  0.21839717617E+03  0.12509000000E+03 0.  0.
         25    1    4    4    0    0 -0.47659875691E+02 -0.29911743139E+02  0.10302838072E+03  0.17154746125E+03  0.12509000000E+03 0.  0.
         25    1    4    4    0    0 -0.50557069816E+02  0.38930284039E+01  0.21807141448E+02  0.13672685360E+03  0.12509000000E+03 0.  0.
<mgrwt>
<rscale>  2 0.45085649E+03</rscale>
<asrwt>0</asrwt>
<pdfrwt beam="1">  1       21 0.58743042E-01 0.45085649E+03</pdfrwt>
<pdfrwt beam="2">  1       21 0.18708648E-01 0.45085649E+03</pdfrwt>
<totfact> 0.65559065E+04</totfact>
</mgrwt>
</event>
<event>
 7    0  0.4709932E-002  0.4628236E+03  0.7546771E-02  0.1023965E+00
         21   -1    0    0  502  501  0.00000000000E+00  0.00000000000E+00  0.40603381435E+03  0.40603381435E+03  0.00000000000E+00 0.  1.
         21   -1    0    0  501  502 -0.00000000000E+00 -0.00000000000E+00 -0.13188905897E+03  0.13188905897E+03  0.00000000000E+00 0.  1.
      99926    2    1    2    0    0  0.17763568394E-14  0.00000000000E+00  0.27414475538E+03  0.53792287332E+03  0.46282358490E+03 0.  0.
      99925    2    3    3    0    0 -0.90358687797E+01  0.11684117183E+03  0.13933538075E+03  0.31985274252E+03  0.26297893872E+03 0.  0.
         25    1    4    4    0    0 -0.40170197217E+02  0.80015318687E+02  0.76106880225E+02  0.17162709951E+03  0.12509000000E+03 0.  0.
         25    1    4    4    0    0  0.31134328437E+02  0.36825853147E+02  0.63228500527E+02  0.14822564301E+03  0.12509000000E+03 0.  0.
         25    1    3    3    0    0  0.90358687797E+01 -0.11684117183E+03  0.13480937462E+03  0.21807013080E+03  0.12509000000E+03 0.  0.
<mgrwt>
<rscale>  2 0.46282358E+03</rscale>
<asrwt>0</asrwt>
<pdfrwt beam="1">  1       21 0.59710855E-01 0.46282358E+03</pdfrwt>
<pdfrwt beam="2">  1       21 0.19395450E-01 0.46282358E+03</pdfrwt>
<totfact> 0.58933539E+04</totfact>
</mgrwt>
</event>
<event>
 7    0  0.4709932E-002  0.4411091E+03  0.7546771E-02  0.1030407E+00
         21   -1    0    0  502  501  0.00000000000E+00  0.00000000000E+00  0.20886216880E+04  0.20886216880E+04  0.00000000000E+00 0. -1.
         21   -1    0    0  501  502 -0.00000000000E+00 -0.00000000000E+00 -0.23290150578E+02  0.23290150578E+02  0.00000000000E+00 0. -1.
      99926    2    1    2    0    0  0.00000000000E+00  0.00000000000E+00  0.20653315375E+04  0.21119118386E+04  0.44110911854E+03 0.  0.
      99925    2    3    3    0    0 -0.79267548117E+02 -0.60180266783E+02  0.13210673298E+04  0.13506748666E+04  0.26305645144E+03 0.  0.
         25    1    4    4    0    0 -0.63867773365E+02 -0.46066839399E+02  0.56343343339E+03  0.58249977522E+03  0.12509000000E+03 0.  0.
         25    1    4    4    0    0 -0.15399774752E+02 -0.14113427384E+02  0.75763389642E+03  0.76817509137E+03  0.12509000000E+03 0.  0.
         25    1    3    3    0    0  0.79267548117E+02  0.60180266783E+02  0.74426420764E+03  0.76123697202E+03  0.12509000000E+03 0.  0.
<mgrwt>
<rscale>  2 0.44110912E+03</rscale>
<asrwt>0</asrwt>
<pdfrwt beam="1">  1       21 0.30715012E+00 0.44110912E+03</pdfrwt>
<pdfrwt beam="2">  1       21 0.34250235E-02 0.44110912E+03</pdfrwt>
<totfact> 0.13350274E+04</totfact>
</mgrwt>
</event>
<event>
 7    0  0.4709932E-002  0.4553965E+03  0.7546771E-02  0.1026125E+00
         21   -1    0    0  502  501  0.00000000000E+00  0.00000000000E+00  0.63520207188E+03  0.63520207188E+03  0.00000000000E+00 0. -1.
         21   -1    0    0  501  502 -0.00000000000E+00 -0.00000000000E+00 -0.81622032142E+02  0.81622032142E+02  0.00000000000E+00 0. -1.
      99926    2    1    2    0    0  0.00000000000E+00  0.00000000000E+00  0.55358003974E+03  0.71682410402E+03  0.45539645992E+03 0.  0.
      99925    2    3    3    0    0  0.38218779907E+02 -0.84398409087E+02  0.45155865994E+03  0.53070683822E+03  0.26298433066E+03 0.  0.
         25    1    4    4    0    0 -0.66701171996E+01 -0.43596477858E+02  0.28050281863E+03  0.31028129610E+03  0.12509000000E+03 0.  0.
         25    1    3    3    0    0 -0.38218779907E+02  0.84398409087E+02  0.10202137980E+03  0.18611726580E+03  0.12509000000E+03 0.  0.
         25    1    4    4    0    0  0.44888897106E+02 -0.40801931228E+02  0.17105584130E+03  0.22042554212E+03  0.12509000000E+03 0.  0.
<mgrwt>
<rscale>  2 0.45539646E+03</rscale>
<asrwt>0</asrwt>
<pdfrwt beam="1">  1       21 0.93412067E-01 0.45539646E+03</pdfrwt>
<pdfrwt beam="2">  1       21 0.12003240E-01 0.45539646E+03</pdfrwt>
<totfact> 0.51837201E+04</totfact>
</mgrwt>
</event>
<event>
 7    0  0.4709932E-002  0.4589438E+03  0.7546771E-02  0.1025088E+00
         21   -1    0    0  502  501  0.00000000000E+00  0.00000000000E+00  0.32157478362E+03  0.32157478362E+03  0.00000000000E+00 0.  1.
         21   -1    0    0  501  502 -0.00000000000E+00 -0.00000000000E+00 -0.16374837873E+03  0.16374837873E+03  0.00000000000E+00 0.  1.
      99926    2    1    2    0    0 -0.88817841970E-15 -0.14210854715E-13  0.15782640488E+03  0.48532316235E+03  0.45894378505E+03 0.  0.
      99925    2    3    3    0    0  0.22535772358E+01  0.11439628845E+03  0.12374486111E+03  0.31240512065E+03  0.26304482381E+03 0.  0.
         25    1    4    4    0    0  0.11081142985E+02  0.71879428389E+02  0.10476037283E+03  0.17863842748E+03  0.12509000000E+03 0.  0.
         25    1    3    3    0    0 -0.22535772358E+01 -0.11439628845E+03  0.34081543770E+02  0.17291804170E+03  0.12509000000E+03 0.  0.
         25    1    4    4    0    0 -0.88275657494E+01  0.42516860060E+02  0.18984488281E+02  0.13376669317E+03  0.12509000000E+03 0.  0.
<mgrwt>
<rscale>  2 0.45894379E+03</rscale>
<asrwt>0</asrwt>
<pdfrwt beam="1">  1       21 0.47290409E-01 0.45894379E+03</pdfrwt>
<pdfrwt beam="2">  1       21 0.24080644E-01 0.45894379E+03</pdfrwt>
<totfact> 0.64278610E+04</totfact>
</mgrwt>
</event>
<event>
 7    0  0.4709932E-002  0.4452059E+03  0.7546771E-02  0.1029161E+00
         21   -1    0    0  502  501  0.00000000000E+00  0.00000000000E+00  0.69492183181E+03  0.69492183181E+03  0.00000000000E+00 0.  1.
         21   -1    0    0  501  502 -0.00000000000E+00 -0.00000000000E+00 -0.71305962708E+02  0.71305962708E+02  0.00000000000E+00 0.  1.
      99926    2    1    2    0    0  0.11102230246E-14  0.00000000000E+00  0.62361586910E+03  0.76622779451E+03  0.44520588596E+03 0.  0.
      99925    2    3    3    0    0  0.11941301950E+01  0.90841831273E+02  0.48170439727E+03  0.55637060929E+03  0.26316432940E+03 0.  0.
         25    1    4    4    0    0 -0.11471821002E+02  0.60274695515E+02  0.17645816567E+03  0.22483245746E+03  0.12509000000E+03 0.  0.
         25    1    4    4    0    0  0.12665951197E+02  0.30567135757E+02  0.30524623160E+03  0.33153815183E+03  0.12509000000E+03 0.  0.
         25    1    3    3    0    0 -0.11941301950E+01 -0.90841831273E+02  0.14191147183E+03  0.20985718523E+03  0.12509000000E+03 0.  0.
<mgrwt>
<rscale>  2 0.44520589E+03</rscale>
<asrwt>0</asrwt>
<pdfrwt beam="1">  1       21 0.10219438E+00 0.44520589E+03</pdfrwt>
<pdfrwt beam="2">  1       21 0.10486171E-01 0.44520589E+03</pdfrwt>
<totfact> 0.53433116E+04</totfact>
</mgrwt>
</event>
<event>
 7    0  0.4709932E-002  0.4543977E+03  0.7546771E-02  0.1026419E+00
         21   -1    0    0  502  501  0.00000000000E+00  0.00000000000E+00  0.20012004285E+04  0.20012004285E+04  0.00000000000E+00 0. -1.
         21   -1    0    0  501  502 -0.00000000000E+00 -0.00000000000E+00 -0.25794174722E+02  0.25794174722E+02  0.00000000000E+00 0. -1.
      99926    2    1    2    0    0 -0.71054273576E-14  0.00000000000E+00  0.19754062538E+04  0.20269946032E+04  0.45439768268E+03 0.  0.
      99925    2    3    3    0    0  0.49755803572E+02  0.81787464937E+02  0.15082945540E+04  0.15340385427E+04  0.26297710839E+03 0.  0.
         25    1    4    4    0    0 -0.10729703027E+02  0.18920411156E+02  0.72555875879E+03  0.73658409502E+03  0.12509000000E+03 0.  0.
         25    1    4    4    0    0  0.60485506599E+02  0.62867053780E+02  0.78273579521E+03  0.79745444771E+03  0.12509000000E+03 0.  0.
         25    1    3    3    0    0 -0.49755803572E+02 -0.81787464937E+02  0.46711169980E+03  0.49295606051E+03  0.12509000000E+03 0.  0.
<mgrwt>
<rscale>  2 0.45439768E+03</rscale>
<asrwt>0</asrwt>
<pdfrwt beam="1">  1       21 0.29429408E+00 0.45439768E+03</pdfrwt>
<pdfrwt beam="2">  1       21 0.37932623E-02 0.45439768E+03</pdfrwt>
<totfact> 0.13336177E+04</totfact>
</mgrwt>
</event>
<event>
 7    0  0.4709932E-002  0.4534996E+03  0.7546771E-02  0.1026684E+00
         21   -1    0    0  502  501  0.00000000000E+00  0.00000000000E+00  0.66951711940E+03  0.66951711940E+03  0.00000000000E+00 0.  1.
         21   -1    0    0  501  502 -0.00000000000E+00 -0.00000000000E+00 -0.76794871601E+02  0.76794871601E+02  0.00000000000E+00 0.  1.
      99926    2    1    2    0    0  0.00000000000E+00  0.00000000000E+00  0.59272224780E+03  0.74631199100E+03  0.45349964154E+03 0.  0.
      99925    2    3    3    0    0  0.20534629637E+02  0.41061371138E+02  0.54092779917E+03  0.60335087663E+03  0.26329012363E+03 0.  0.
         25    1    4    4    0    0 -0.28948648652E+02  0.79219305295E+01  0.26777626084E+03  0.29707308059E+03  0.12509000000E+03 0.  0.
         25    1    4    4    0    0  0.49483278289E+02  0.33139440609E+02  0.27315153833E+03  0.30627779604E+03  0.12509000000E+03 0.  0.
         25    1    3    3    0    0 -0.20534629637E+02 -0.41061371138E+02  0.51794448630E+02  0.14296111437E+03  0.12509000000E+03 0.  0.
<mgrwt>
<rscale>  2 0.45349964E+03</rscale>
<asrwt>0</asrwt>
<pdfrwt beam="1">  1       21 0.98458397E-01 0.45349964E+03</pdfrwt>
<pdfrwt beam="2">  1       21 0.11293364E-01 0.45349964E+03</pdfrwt>
<totfact> 0.51059073E+04</totfact>
</mgrwt>
</event>
<event>
 7    0  0.4709932E-002  0.4435240E+03  0.7546771E-02  0.1029671E+00
         21   -1    0    0  502  501  0.00000000000E+00  0.00000000000E+00  0.37274967237E+03  0.37274967237E+03  0.00000000000E+00 0.  1.
         21   -1    0    0  501  502 -0.00000000000E+00 -0.00000000000E+00 -0.13193409643E+03  0.13193409643E+03  0.00000000000E+00 0.  1.
      99926    2    1    2    0    0  0.00000000000E+00  0.00000000000E+00  0.24081557594E+03  0.50468376880E+03  0.44352402965E+03 0.  0.
      99925    2    3    3    0    0 -0.23022704499E+02  0.52751511011E+02  0.56976997778E+02  0.27499507130E+03  0.26279867604E+03 0.  0.
         25    1    4    4    0    0  0.18281554907E+02  0.40885940311E+02  0.52372443347E+01  0.13296921521E+03  0.12509000000E+03 0.  0.
         25    1    3    3    0    0  0.23022704499E+02 -0.52751511011E+02  0.18383857816E+03  0.22968869749E+03  0.12509000000E+03 0.  0.
         25    1    4    4    0    0 -0.41304259406E+02  0.11865570701E+02  0.51739753444E+02  0.14202585610E+03  0.12509000000E+03 0.  0.
<mgrwt>
<rscale>  2 0.44352403E+03</rscale>
<asrwt>0</asrwt>
<pdfrwt beam="1">  1       21 0.54816128E-01 0.44352403E+03</pdfrwt>
<pdfrwt beam="2">  1       21 0.19402073E-01 0.44352403E+03</pdfrwt>
<totfact> 0.71210528E+04</totfact>
</mgrwt>
</event>
<event>
 7    0  0.4709932E-002  0.4603404E+03  0.7546771E-02  0.1024683E+00
         21   -1    0    0  502  501  0.00000000000E+00  0.00000000000E+00  0.10210071870E+03  0.10210071870E+03  0.00000000000E+00 0. -1.
         21   -1    0    0  501  502 -0.00000000000E+00 -0.00000000000E+00 -0.51888292659E+03  0.51888292659E+03  0.00000000000E+00 0. -1.
      99926    2    1    2    0    0  0.88817841970E-15  0.71054273576E-14 -0.41678220789E+03  0.62098364529E+03  0.46034039460E+03 0.  0.
      99925    2    3    3    0    0 -0.53653502004E+01  0.61715601795E+02 -0.12536862031E+03  0.29786294088E+03  0.26299703060E+03 0.  0.
         25    1    4    4    0    0  0.64795326309E+01 -0.37455015220E+01 -0.36115352748E+02  0.13041410939E+03  0.12509000000E+03 0.  0.
         25    1    4    4    0    0 -0.11844882831E+02  0.65461103317E+02 -0.89253267560E+02  0.16744883149E+03  0.12509000000E+03 0.  0.
         25    1    3    3    0    0  0.53653502004E+01 -0.61715601795E+02 -0.29141358758E+03  0.32312070440E+03  0.12509000000E+03 0.  0.
<mgrwt>
<rscale>  2 0.46034039E+03</rscale>
<asrwt>0</asrwt>
<pdfrwt beam="1">  1       21 0.15014812E-01 0.46034039E+03</pdfrwt>
<pdfrwt beam="2">  1       21 0.76306313E-01 0.46034039E+03</pdfrwt>
<totfact> 0.55046566E+04</totfact>
</mgrwt>
</event>
<event>
 7    0  0.4709932E-002  0.4579024E+03  0.7546771E-02  0.1025391E+00
         21   -1    0    0  502  501  0.00000000000E+00  0.00000000000E+00  0.59670342196E+03  0.59670342196E+03  0.00000000000E+00 0.  1.
         21   -1    0    0  501  502 -0.00000000000E+00 -0.00000000000E+00 -0.87847059306E+02  0.87847059306E+02  0.00000000000E+00 0.  1.
      99926    2    1    2    0    0 -0.17763568394E-14  0.00000000000E+00  0.50885636265E+03  0.68455048127E+03  0.45790235159E+03 0.  0.
      99925    2    3    3    0    0  0.14942103222E+02  0.90573668084E+02  0.42503546423E+03  0.50819769021E+03  0.26302640683E+03 0.  0.
         25    1    4    4    0    0  0.41827925254E+02  0.50849378551E+02  0.17938209412E+03  0.22838712403E+03  0.12509000000E+03 0.  0.
         25    1    3    3    0    0 -0.14942103222E+02 -0.90573668084E+02  0.83820898426E+02  0.17635279105E+03  0.12509000000E+03 0.  0.
         25    1    4    4    0    0 -0.26885822032E+02  0.39724289533E+02  0.24565337010E+03  0.27981056619E+03  0.12509000000E+03 0.  0.
<mgrwt>
<rscale>  2 0.45790235E+03</rscale>
<asrwt>0</asrwt>
<pdfrwt beam="1">  1       21 0.87750502E-01 0.45790235E+03</pdfrwt>
<pdfrwt beam="2">  1       21 0.12918685E-01 0.45790235E+03</pdfrwt>
<totfact> 0.52539145E+04</totfact>
</mgrwt>
</event>
<event>
 7    0  0.4709932E-002  0.4616305E+03  0.7546771E-02  0.1024309E+00
         21   -1    0    0  502  501  0.00000000000E+00  0.00000000000E+00  0.90536874426E+02  0.90536874426E+02  0.00000000000E+00 0.  1.
         21   -1    0    0  501  502 -0.00000000000E+00 -0.00000000000E+00 -0.58844173451E+03  0.58844173451E+03  0.00000000000E+00 0.  1.
      99926    2    1    2    0    0 -0.71054273576E-14  0.00000000000E+00 -0.49790486009E+03  0.67897860894E+03  0.46163048177E+03 0.  0.
      99925    2    3    3    0    0 -0.37963831932E+02  0.85185079360E+02 -0.20092811168E+03  0.34350812220E+03  0.26254137516E+03 0.  0.
         25    1    3    3    0    0  0.37963831932E+02 -0.85185079360E+02 -0.29697674841E+03  0.33547048674E+03  0.12509000000E+03 0.  0.
         25    1    4    4    0    0 -0.46131239506E+02  0.33473860928E+02 -0.13522390487E+03  0.19282531777E+03  0.12509000000E+03 0.  0.
         25    1    4    4    0    0  0.81674075733E+01  0.51711218432E+02 -0.65704206807E+02  0.15068280443E+03  0.12509000000E+03 0.  0.
<mgrwt>
<rscale>  2 0.46163048E+03</rscale>
<asrwt>0</asrwt>
<pdfrwt beam="1">  1       21 0.13314246E-01 0.46163048E+03</pdfrwt>
<pdfrwt beam="2">  1       21 0.86535548E-01 0.46163048E+03</pdfrwt>
<totfact> 0.51324831E+04</totfact>
</mgrwt>
</event>
<event>
 7    0  0.4709932E-002  0.4586747E+03  0.7546771E-02  0.1025166E+00
         21   -1    0    0  502  501  0.00000000000E+00  0.00000000000E+00  0.23879404743E+03  0.23879404743E+03  0.00000000000E+00 0.  1.
         21   -1    0    0  501  502 -0.00000000000E+00 -0.00000000000E+00 -0.22025519743E+03  0.22025519743E+03  0.00000000000E+00 0.  1.
      99926    2    1    2    0    0  0.00000000000E+00  0.00000000000E+00  0.18538850002E+02  0.45904924486E+03  0.45867474342E+03 0.  0.
      99925    2    3    3    0    0 -0.78478617922E+02 -0.66263622998E+02  0.67071244089E+02  0.29007391359E+03  0.26285844547E+03 0.  0.
         25    1    4    4    0    0 -0.84056638773E+01 -0.40719462023E+01  0.38353839986E+02  0.13117073253E+03  0.12509000000E+03 0.  0.
         25    1    4    4    0    0 -0.70072954045E+02 -0.62191676796E+02  0.28717404102E+02  0.15890318106E+03  0.12509000000E+03 0.  0.
         25    1    3    3    0    0  0.78478617922E+02  0.66263622998E+02 -0.48532394087E+02  0.16897533128E+03  0.12509000000E+03 0.  0.
<mgrwt>
<rscale>  2 0.45867474E+03</rscale>
<asrwt>0</asrwt>
<pdfrwt beam="1">  1       21 0.35116772E-01 0.45867474E+03</pdfrwt>
<pdfrwt beam="2">  1       21 0.32390470E-01 0.45867474E+03</pdfrwt>
<totfact> 0.66285246E+04</totfact>
</mgrwt>
</event>
<event>
 7    0  0.4709932E-002  0.4514958E+03  0.7546771E-02  0.1027277E+00
         21   -1    0    0  502  501  0.00000000000E+00  0.00000000000E+00  0.49829530019E+03  0.49829530019E+03  0.00000000000E+00 0. -1.
         21   -1    0    0  501  502 -0.00000000000E+00 -0.00000000000E+00 -0.10227292280E+03  0.10227292280E+03  0.00000000000E+00 0. -1.
      99926    2    1    2    0    0 -0.14210854715E-13  0.00000000000E+00  0.39602237739E+03  0.60056822298E+03  0.45149581068E+03 0.  0.
      99925    2    3    3    0    0 -0.84392958497E+02  0.69346349534E+02  0.26392039645E+03  0.38836659927E+03  0.26314169592E+03 0.  0.
         25    1    4    4    0    0 -0.52712702039E+02  0.60661543448E+02  0.18308268974E+03  0.23585001843E+03  0.12509000000E+03 0.  0.
         25    1    3    3    0    0  0.84392958497E+02 -0.69346349534E+02  0.13210198094E+03  0.21220162371E+03  0.12509000000E+03 0.  0.
         25    1    4    4    0    0 -0.31680256458E+02  0.86848060865E+01  0.80837706707E+02  0.15251658084E+03  0.12509000000E+03 0.  0.
<mgrwt>
<rscale>  2 0.45149581E+03</rscale>
<asrwt>0</asrwt>
<pdfrwt beam="1">  1       21 0.73278720E-01 0.45149581E+03</pdfrwt>
<pdfrwt beam="2">  1       21 0.15040136E-01 0.45149581E+03</pdfrwt>
<totfact> 0.60295419E+04</totfact>
</mgrwt>
</event>
<event>
 7    0  0.4709932E-002  0.4542180E+03  0.7546771E-02  0.1026472E+00
         21   -1    0    0  502  501  0.00000000000E+00  0.00000000000E+00  0.41626850459E+03  0.41626850459E+03  0.00000000000E+00 0. -1.
         21   -1    0    0  501  502 -0.00000000000E+00 -0.00000000000E+00 -0.12390678011E+03  0.12390678011E+03  0.00000000000E+00 0. -1.
      99926    2    1    2    0    0 -0.14210854715E-13  0.00000000000E+00  0.29236172448E+03  0.54017528470E+03  0.45421796559E+03 0.  0.
      99925    2    3    3    0    0 -0.67821780546E+02  0.81159322485E+02  0.13909508937E+03  0.31584338978E+03  0.26310259108E+03 0.  0.
         25    1    3    3    0    0  0.67821780546E+02 -0.81159322485E+02  0.15326663511E+03  0.22433189493E+03  0.12509000000E+03 0.  0.
         25    1    4    4    0    0  0.35936631427E+01  0.20714235703E+02  0.52920444904E+02  0.13744117129E+03  0.12509000000E+03 0.  0.
         25    1    4    4    0    0 -0.71415443689E+02  0.60445086782E+02  0.86174644465E+02  0.17840221849E+03  0.12509000000E+03 0.  0.
<mgrwt>
<rscale>  2 0.45421797E+03</rscale>
<asrwt>0</asrwt>
<pdfrwt beam="1">  1       21 0.61215956E-01 0.45421797E+03</pdfrwt>
<pdfrwt beam="2">  1       21 0.18221585E-01 0.45421797E+03</pdfrwt>
<totfact> 0.62908879E+04</totfact>
</mgrwt>
</event>
<event>
 7    0  0.4709932E-002  0.4563799E+03  0.7546771E-02  0.1025836E+00
         21   -1    0    0  502  501  0.00000000000E+00  0.00000000000E+00  0.86967860202E+03  0.86967860202E+03  0.00000000000E+00 0.  1.
         21   -1    0    0  501  502 -0.00000000000E+00 -0.00000000000E+00 -0.59873441911E+02  0.59873441911E+02  0.00000000000E+00 0.  1.
      99926    2    1    2    0    0 -0.26090241079E-14  0.00000000000E+00  0.80980516011E+03  0.92955204393E+03  0.45637989114E+03 0.  0.
      99925    2    3    3    0    0  0.41202868194E+00  0.57912511608E+02  0.70976242716E+03  0.75922857143E+03  0.26327037794E+03 0.  0.
         25    1    3    3    0    0 -0.41202868194E+00 -0.57912511608E+02  0.10004273295E+03  0.17032347250E+03  0.12509000000E+03 0.  0.
         25    1    4    4    0    0  0.25453084864E+02  0.14298577807E+02  0.42821078523E+03  0.44706184532E+03  0.12509000000E+03 0.  0.
         25    1    4    4    0    0 -0.25041056182E+02  0.43613933801E+02  0.28155164193E+03  0.31216672611E+03  0.12509000000E+03 0.  0.
<mgrwt>
<rscale>  2 0.45637989E+03</rscale>
<asrwt>0</asrwt>
<pdfrwt beam="1">  1       21 0.12789390E+00 0.45637989E+03</pdfrwt>
<pdfrwt beam="2">  1       21 0.88049185E-02 0.45637989E+03</pdfrwt>
<totfact> 0.41530072E+04</totfact>
</mgrwt>
</event>
<event>
 7    0  0.4709932E-002  0.4530553E+03  0.7546771E-02  0.1026815E+00
         21   -1    0    0  502  501  0.00000000000E+00  0.00000000000E+00  0.82907282550E+02  0.82907282550E+02  0.00000000000E+00 0.  1.
         21   -1    0    0  501  502 -0.00000000000E+00 -0.00000000000E+00 -0.61894183692E+03  0.61894183692E+03  0.00000000000E+00 0.  1.
      99926    2    1    2    0    0  0.00000000000E+00  0.00000000000E+00 -0.53603455437E+03  0.70184911947E+03  0.45305534212E+03 0.  0.
      99925    2    3    3    0    0 -0.94550991093E+02 -0.41252294977E+02 -0.27212277413E+03  0.39210958759E+03  0.26278790445E+03 0.  0.
         25    1    3    3    0    0  0.94550991093E+02  0.41252294977E+02 -0.26391178024E+03  0.30973953188E+03  0.12509000000E+03 0.  0.
         25    1    4    4    0    0 -0.13054652069E+02  0.54279748748E+01 -0.12178550393E+03  0.17515451441E+03  0.12509000000E+03 0.  0.
         25    1    4    4    0    0 -0.81496339024E+02 -0.46680269852E+02 -0.15033727020E+03  0.21695507318E+03  0.12509000000E+03 0.  0.
<mgrwt>
<rscale>  2 0.45305534E+03</rscale>
<asrwt>0</asrwt>
<pdfrwt beam="1">  1       21 0.12192247E-01 0.45305534E+03</pdfrwt>
<pdfrwt beam="2">  1       21 0.91020860E-01 0.45305534E+03</pdfrwt>
<totfact> 0.53618508E+04</totfact>
</mgrwt>
</event>
<event>
 7    0  0.4709932E-002  0.4461989E+03  0.7546771E-02  0.1028862E+00
         21   -1    0    0  502  501  0.00000000000E+00  0.00000000000E+00  0.64055562318E+03  0.64055562318E+03  0.00000000000E+00 0. -1.
         21   -1    0    0  501  502 -0.00000000000E+00 -0.00000000000E+00 -0.77703435951E+02  0.77703435951E+02  0.00000000000E+00 0. -1.
      99926    2    1    2    0    0  0.00000000000E+00  0.00000000000E+00  0.56285218722E+03  0.71825905913E+03  0.44619893697E+03 0.  0.
      99925    2    3    3    0    0 -0.28654619909E+02 -0.62915252468E+02  0.23045904143E+03  0.35644124903E+03  0.26298208683E+03 0.  0.
         25    1    3    3    0    0  0.28654619909E+02  0.62915252468E+02  0.33239314580E+03  0.36181781010E+03  0.12509000000E+03 0.  0.
         25    1    4    4    0    0  0.24203531705E+01 -0.27690550928E+02  0.16124161548E+03  0.20595871281E+03  0.12509000000E+03 0.  0.
         25    1    4    4    0    0 -0.31074973079E+02 -0.35224701540E+02  0.69217425949E+02  0.15048253621E+03  0.12509000000E+03 0.  0.
<mgrwt>
<rscale>  2 0.44619894E+03</rscale>
<asrwt>0</asrwt>
<pdfrwt beam="1">  1       21 0.94199354E-01 0.44619894E+03</pdfrwt>
<pdfrwt beam="2">  1       21 0.11426976E-01 0.44619894E+03</pdfrwt>
<totfact> 0.55678363E+04</totfact>
</mgrwt>
</event>
<event>
 7    0  0.4709932E-002  0.4544905E+03  0.7546771E-02  0.1026391E+00
         21   -1    0    0  502  501  0.00000000000E+00  0.00000000000E+00  0.10702825294E+03  0.10702825294E+03  0.00000000000E+00 0. -1.
         21   -1    0    0  501  502 -0.00000000000E+00 -0.00000000000E+00 -0.48249329018E+03  0.48249329018E+03  0.00000000000E+00 0. -1.
      99926    2    1    2    0    0  0.00000000000E+00  0.00000000000E+00 -0.37546503724E+03  0.58952154312E+03  0.45449054513E+03 0.  0.
      99925    2    3    3    0    0 -0.35315149239E+01 -0.36602683682E+02 -0.98228022787E+02  0.28315558820E+03  0.26301352554E+03 0.  0.
         25    1    4    4    0    0  0.22030513711E+01 -0.57180933707E+02 -0.64016742618E+02  0.15172397322E+03  0.12509000000E+03 0.  0.
         25    1    3    3    0    0  0.35315149239E+01  0.36602683682E+02 -0.27723701446E+03  0.30636595492E+03  0.12509000000E+03 0.  0.
         25    1    4    4    0    0 -0.57345662950E+01  0.20578250025E+02 -0.34211280169E+02  0.13143161498E+03  0.12509000000E+03 0.  0.
<mgrwt>
<rscale>  2 0.45449055E+03</rscale>
<asrwt>0</asrwt>
<pdfrwt beam="1">  1       21 0.15739449E-01 0.45449055E+03</pdfrwt>
<pdfrwt beam="2">  1       21 0.70954896E-01 0.45449055E+03</pdfrwt>
<totfact> 0.59567410E+04</totfact>
</mgrwt>
</event>
<event>
 7    0  0.4709932E-002  0.4533407E+03  0.7546771E-02  0.1026730E+00
         21   -1    0    0  502  501  0.00000000000E+00  0.00000000000E+00  0.37761515142E+02  0.37761515142E+02  0.00000000000E+00 0.  1.
         21   -1    0    0  501  502 -0.00000000000E+00 -0.00000000000E+00 -0.13606299935E+04  0.13606299935E+04  0.00000000000E+00 0.  1.
      99926    2    1    2    0    0 -0.17763568394E-14 -0.14210854715E-13 -0.13228684784E+04  0.13983915087E+04  0.45334071118E+03 0.  0.
      99925    2    3    3    0    0  0.14060239058E+02  0.10742961836E+03 -0.77154697621E+03  0.82276861121E+03  0.26443267171E+03 0.  0.
         25    1    3    3    0    0 -0.14060239058E+02 -0.10742961836E+03 -0.55132150219E+03  0.57562289748E+03  0.12509000000E+03 0.  0.
         25    1    4    4    0    0  0.13296504150E+02  0.99312381527E+02 -0.42009291622E+03  0.44962797122E+03  0.12509000000E+03 0.  0.
         25    1    4    4    0    0  0.76373490791E+00  0.81172368286E+01 -0.35145405999E+03  0.37314063999E+03  0.12509000000E+03 0.  0.
<mgrwt>
<rscale>  2 0.45334071E+03</rscale>
<asrwt>0</asrwt>
<pdfrwt beam="1">  1       21 0.55531641E-02 0.45334071E+03</pdfrwt>
<pdfrwt beam="2">  1       21 0.20009264E+00 0.45334071E+03</pdfrwt>
<totfact> 0.26717756E+04</totfact>
</mgrwt>
</event>
<event>
 7    0  0.4709932E-002  0.4633001E+03  0.7546771E-02  0.1023828E+00
         21   -1    0    0  502  501  0.00000000000E+00  0.00000000000E+00  0.27426574674E+02  0.27426574674E+02  0.00000000000E+00 0. -1.
         21   -1    0    0  501  502 -0.00000000000E+00 -0.00000000000E+00 -0.19565602813E+04  0.19565602813E+04  0.00000000000E+00 0. -1.
      99926    2    1    2    0    0  0.00000000000E+00  0.00000000000E+00 -0.19291337066E+04  0.19839868560E+04  0.46330010430E+03 0.  0.
      99925    2    3    3    0    0  0.52146083621E+02  0.26419966679E+02 -0.16576531250E+04  0.16794110149E+04  0.26304038742E+03 0.  0.
         25    1    4    4    0    0  0.52117614898E+02  0.33809479167E+02 -0.71994411004E+03  0.73336645433E+03  0.12509000000E+03 0.  0.
         25    1    4    4    0    0  0.28468722924E-01 -0.73895124884E+01 -0.93770901495E+03  0.94604456054E+03  0.12509000000E+03 0.  0.
         25    1    3    3    0    0 -0.52146083621E+02 -0.26419966679E+02 -0.27148058163E+03  0.30457584109E+03  0.12509000000E+03 0.  0.
<mgrwt>
<rscale>  2 0.46330010E+03</rscale>
<asrwt>0</asrwt>
<pdfrwt beam="1">  1       21 0.40333184E-02 0.46330010E+03</pdfrwt>
<pdfrwt beam="2">  1       21 0.28772955E+00 0.46330010E+03</pdfrwt>
<totfact> 0.13107970E+04</totfact>
</mgrwt>
</event>
<event>
 7    0  0.4709932E-002  0.4688883E+03  0.7546771E-02  0.1022234E+00
         21   -1    0    0  502  501  0.00000000000E+00  0.00000000000E+00  0.14119155219E+04  0.14119155219E+04  0.00000000000E+00 0.  1.
         21   -1    0    0  501  502 -0.00000000000E+00 -0.00000000000E+00 -0.38928714339E+02  0.38928714339E+02  0.00000000000E+00 0.  1.
      99926    2    1    2    0    0  0.00000000000E+00  0.00000000000E+00  0.13729868075E+04  0.14508442362E+04  0.46888828529E+03 0.  0.
      99925    2    3    3    0    0  0.75904561156E+02 -0.93045599265E+02  0.74035171483E+03  0.79487651249E+03  0.26322808077E+03 0.  0.
         25    1    3    3    0    0 -0.75904561156E+02  0.93045599265E+02  0.63263509271E+03  0.65596772373E+03  0.12509000000E+03 0.  0.
         25    1    4    4    0    0  0.31082979114E+02 -0.86739188448E+02  0.43047571552E+03  0.45765345859E+03  0.12509000000E+03 0.  0.
         25    1    4    4    0    0  0.44821582042E+02 -0.63064108165E+01  0.30987599931E+03  0.33722305390E+03  0.12509000000E+03 0.  0.
<mgrwt>
<rscale>  2 0.46888829E+03</rscale>
<asrwt>0</asrwt>
<pdfrwt beam="1">  1       21 0.20763460E+00 0.46888829E+03</pdfrwt>
<pdfrwt beam="2">  1       21 0.57248119E-02 0.46888829E+03</pdfrwt>
<totfact> 0.22482438E+04</totfact>
</mgrwt>
</event>
<event>
 7    0  0.4709932E-002  0.4546451E+03  0.7546771E-02  0.1026346E+00
         21   -1    0    0  502  501  0.00000000000E+00  0.00000000000E+00  0.10510289228E+03  0.10510289228E+03  0.00000000000E+00 0. -1.
         21   -1    0    0  501  502 -0.00000000000E+00 -0.00000000000E+00 -0.49166632333E+03  0.49166632333E+03  0.00000000000E+00 0. -1.
      99926    2    1    2    0    0  0.00000000000E+00  0.00000000000E+00 -0.38656343105E+03  0.59676921560E+03  0.45464514785E+03 0.  0.
      99925    2    3    3    0    0 -0.47286714852E+02  0.10196431339E+03 -0.25644110852E+03  0.38413788788E+03  0.26299642613E+03 0.  0.
         25    1    4    4    0    0 -0.47524550777E+02  0.82542323028E+02 -0.11824128231E+03  0.19672398674E+03  0.12509000000E+03 0.  0.
         25    1    3    3    0    0  0.47286714852E+02 -0.10196431339E+03 -0.13012232253E+03  0.21263132772E+03  0.12509000000E+03 0.  0.
         25    1    4    4    0    0  0.23783592527E+00  0.19421990367E+02 -0.13819982621E+03  0.18741390114E+03  0.12509000000E+03 0.  0.
<mgrwt>
<rscale>  2 0.45464515E+03</rscale>
<asrwt>0</asrwt>
<pdfrwt beam="1">  1       21 0.15456307E-01 0.45464515E+03</pdfrwt>
<pdfrwt beam="2">  1       21 0.72303873E-01 0.45464515E+03</pdfrwt>
<totfact> 0.59042955E+04</totfact>
</mgrwt>
</event>
<event>
 7    0  0.4709932E-002  0.4495694E+03  0.7546771E-02  0.1027851E+00
         21   -1    0    0  502  501  0.00000000000E+00  0.00000000000E+00  0.64959424037E+02  0.64959424037E+02  0.00000000000E+00 0. -1.
         21   -1    0    0  501  502 -0.00000000000E+00 -0.00000000000E+00 -0.77784188290E+03  0.77784188290E+03  0.00000000000E+00 0. -1.
      99926    2    1    2    0    0  0.00000000000E+00  0.00000000000E+00 -0.71288245887E+03  0.84280130694E+03  0.44956939711E+03 0.  0.
      99925    2    3    3    0    0 -0.20995832391E+02  0.90682787609E+02 -0.55363615214E+03  0.61993119398E+03  0.26294011364E+03 0.  0.
         25    1    4    4    0    0 -0.48698119741E+02  0.38861403866E+02 -0.30428318389E+03  0.33483948345E+03  0.12509000000E+03 0.  0.
         25    1    3    3    0    0  0.20995832391E+02 -0.90682787609E+02 -0.15924630672E+03  0.22287011296E+03  0.12509000000E+03 0.  0.
         25    1    4    4    0    0  0.27702287350E+02  0.51821383743E+02 -0.24935296825E+03  0.28509171053E+03  0.12509000000E+03 0.  0.
<mgrwt>
<rscale>  2 0.44956940E+03</rscale>
<asrwt>0</asrwt>
<pdfrwt beam="1">  1       21 0.95528564E-02 0.44956940E+03</pdfrwt>
<pdfrwt beam="2">  1       21 0.11438851E+00 0.44956940E+03</pdfrwt>
<totfact> 0.47765842E+04</totfact>
</mgrwt>
</event>
<event>
 7    0  0.4709932E-002  0.4509798E+03  0.7546771E-02  0.1027430E+00
         21   -1    0    0  502  501  0.00000000000E+00  0.00000000000E+00  0.10483163002E+04  0.10483163002E+04  0.00000000000E+00 0.  1.
         21   -1    0    0  501  502 -0.00000000000E+00 -0.00000000000E+00 -0.48502241224E+02  0.48502241224E+02  0.00000000000E+00 0.  1.
      99926    2    1    2    0    0  0.00000000000E+00 -0.14210854715E-13  0.99981405901E+03  0.10968185415E+04  0.45097977814E+03 0.  0.
      99925    2    3    3    0    0  0.40429416197E+02  0.74593002809E+02  0.79942456330E+03  0.84581632662E+03  0.26292008712E+03 0.  0.
         25    1    4    4    0    0  0.13324057338E+02  0.12540462050E+01  0.43009836301E+03  0.44811964151E+03  0.12509000000E+03 0.  0.
         25    1    3    3    0    0 -0.40429416197E+02 -0.74593002809E+02  0.20038949571E+03  0.25100221484E+03  0.12509000000E+03 0.  0.
         25    1    4    4    0    0  0.27105358859E+02  0.73338956604E+02  0.36932620028E+03  0.39769668511E+03  0.12509000000E+03 0.  0.
<mgrwt>
<rscale>  2 0.45097978E+03</rscale>
<asrwt>0</asrwt>
<pdfrwt beam="1">  1       21 0.15416415E+00 0.45097978E+03</pdfrwt>
<pdfrwt beam="2">  1       21 0.71326832E-02 0.45097978E+03</pdfrwt>
<totfact> 0.36743697E+04</totfact>
</mgrwt>
</event>
<event>
 7    0  0.4709932E-002  0.4425072E+03  0.7546771E-02  0.1029980E+00
         21   -1    0    0  502  501  0.00000000000E+00  0.00000000000E+00  0.11413650633E+03  0.11413650633E+03  0.00000000000E+00 0.  1.
         21   -1    0    0  501  502 -0.00000000000E+00 -0.00000000000E+00 -0.42890006702E+03  0.42890006702E+03  0.00000000000E+00 0.  1.
      99926    2    1    2    0    0  0.00000000000E+00  0.17763568394E-14 -0.31476356069E+03  0.54303657335E+03  0.44250719865E+03 0.  0.
      99925    2    3    3    0    0  0.82325423262E+01 -0.62804061208E+01 -0.77263708531E+02  0.27440875251E+03  0.26310314431E+03 0.  0.
         25    1    4    4    0    0  0.26025247394E+02  0.23215692980E+02 -0.15728502688E+02  0.13080969306E+03  0.12509000000E+03 0.  0.
         25    1    4    4    0    0 -0.17792705067E+02 -0.29496099100E+02 -0.61535205844E+02  0.14359905945E+03  0.12509000000E+03 0.  0.
         25    1    3    3    0    0 -0.82325423262E+01  0.62804061208E+01 -0.23749985216E+03  0.26862782084E+03  0.12509000000E+03 0.  0.
<mgrwt>
<rscale>  2 0.44250720E+03</rscale>
<asrwt>0</asrwt>
<pdfrwt beam="1">  1       21 0.16784780E-01 0.44250720E+03</pdfrwt>
<pdfrwt beam="2">  1       21 0.63073540E-01 0.44250720E+03</pdfrwt>
<totfact> 0.68890998E+04</totfact>
</mgrwt>
</event>
<event>
 7    0  0.4709932E-002  0.4510586E+03  0.7546771E-02  0.1027407E+00
         21   -1    0    0  502  501  0.00000000000E+00  0.00000000000E+00  0.37485790077E+02  0.37485790077E+02  0.00000000000E+00 0.  1.
         21   -1    0    0  501  502 -0.00000000000E+00 -0.00000000000E+00 -0.13568730969E+04  0.13568730969E+04  0.00000000000E+00 0.  1.
      99926    2    1    2    0    0 -0.71054273576E-14  0.00000000000E+00 -0.13193873068E+04  0.13943588870E+04  0.45105857744E+03 0.  0.
      99925    2    3    3    0    0  0.50971979286E+02 -0.87822867016E+02 -0.95861749546E+03  0.99924705023E+03  0.26312766133E+03 0.  0.
         25    1    4    4    0    0  0.63348873008E+02 -0.58098825747E+02 -0.47369344664E+03  0.49741485981E+03  0.12509000000E+03 0.  0.
         25    1    3    3    0    0 -0.50971979286E+02  0.87822867016E+02 -0.36076981136E+03  0.39511183674E+03  0.12509000000E+03 0.  0.
         25    1    4    4    0    0 -0.12376893722E+02 -0.29724041269E+02 -0.48492404881E+03  0.50183219042E+03  0.12509000000E+03 0.  0.
<mgrwt>
<rscale>  2 0.45105858E+03</rscale>
<asrwt>0</asrwt>
<pdfrwt beam="1">  1       21 0.55126168E-02 0.45105858E+03</pdfrwt>
<pdfrwt beam="2">  1       21 0.19954014E+00 0.45105858E+03</pdfrwt>
<totfact> 0.27309696E+04</totfact>
</mgrwt>
</event>
<event>
 7    0  0.4709932E-002  0.4563950E+03  0.7546771E-02  0.1025832E+00
         21   -1    0    0  502  501  0.00000000000E+00  0.00000000000E+00  0.28839216828E+02  0.28839216828E+02  0.00000000000E+00 0. -1.
         21   -1    0    0  501  502 -0.00000000000E+00 -0.00000000000E+00 -0.18056694658E+04  0.18056694658E+04  0.00000000000E+00 0. -1.
      99926    2    1    2    0    0  0.00000000000E+00  0.00000000000E+00 -0.17768302490E+04  0.18345086827E+04  0.45639497475E+03 0.  0.
      99925    2    3    3    0    0  0.62789259417E+02 -0.38138371202E+02 -0.14695396826E+04  0.14946969307E+04  0.26301142469E+03 0.  0.
         25    1    4    4    0    0  0.15100992157E+02 -0.30351384377E+02 -0.52893826459E+03  0.54458465122E+03  0.12509000000E+03 0.  0.
         25    1    3    3    0    0 -0.62789259417E+02  0.38138371202E+02 -0.30729056644E+03  0.33981175197E+03  0.12509000000E+03 0.  0.
         25    1    4    4    0    0  0.47688267260E+02 -0.77869868247E+01 -0.94060141797E+03  0.95011227947E+03  0.12509000000E+03 0.  0.
<mgrwt>
<rscale>  2 0.45639497E+03</rscale>
<asrwt>0</asrwt>
<pdfrwt beam="1">  1       21 0.42410603E-02 0.45639497E+03</pdfrwt>
<pdfrwt beam="2">  1       21 0.26553969E+00 0.45639497E+03</pdfrwt>
<totfact> 0.16427067E+04</totfact>
</mgrwt>
</event>
<event>
 7    0  0.4709932E-002  0.4918163E+03  0.7546771E-02  0.1015937E+00
         21   -1    0    0  502  501  0.00000000000E+00  0.00000000000E+00  0.18250424843E+03  0.18250424843E+03  0.00000000000E+00 0. -1.
         21   -1    0    0  501  502 -0.00000000000E+00 -0.00000000000E+00 -0.33133926470E+03  0.33133926470E+03  0.00000000000E+00 0. -1.
      99926    2    1    2    0    0 -0.14210854715E-13  0.00000000000E+00 -0.14883501627E+03  0.51384351313E+03  0.49181632132E+03 0.  0.
      99925    2    3    3    0    0  0.10566571527E+03  0.98926068616E+01  0.12173065188E+02  0.28398656316E+03  0.26312939305E+03 0.  0.
         25    1    4    4    0    0  0.18857824859E+02  0.19703410563E+02  0.26490231982E+02  0.13074051567E+03  0.12509000000E+03 0.  0.
         25    1    3    3    0    0 -0.10566571527E+03 -0.98926068616E+01 -0.16100808146E+03  0.22985694997E+03  0.12509000000E+03 0.  0.
         25    1    4    4    0    0  0.86807890410E+02 -0.98108037018E+01 -0.14317166794E+02  0.15324604749E+03  0.12509000000E+03 0.  0.
<mgrwt>
<rscale>  2 0.49181632E+03</rscale>
<asrwt>0</asrwt>
<pdfrwt beam="1">  1       21 0.26838861E-01 0.49181632E+03</pdfrwt>
<pdfrwt beam="2">  1       21 0.48726362E-01 0.49181632E+03</pdfrwt>
<totfact> 0.48505997E+04</totfact>
</mgrwt>
</event>
<event>
 7    0  0.4709932E-002  0.4492994E+03  0.7546771E-02  0.1027931E+00
         21   -1    0    0  502  501  0.00000000000E+00  0.00000000000E+00  0.33815217958E+03  0.33815217958E+03  0.00000000000E+00 0.  1.
         21   -1    0    0  501  502 -0.00000000000E+00 -0.00000000000E+00 -0.14924487960E+03  0.14924487960E+03  0.00000000000E+00 0.  1.
      99926    2    1    2    0    0  0.00000000000E+00  0.00000000000E+00  0.18890729999E+03  0.48739705918E+03  0.44929937159E+03 0.  0.
      99925    2    3    3    0    0  0.50034730103E+02 -0.85822873466E+02  0.74195821466E+02  0.29073676519E+03  0.26297111417E+03 0.  0.
         25    1    4    4    0    0  0.38617794787E+02 -0.17598877942E+02  0.65733245867E+02  0.14754464508E+03  0.12509000000E+03 0.  0.
         25    1    4    4    0    0  0.11416935316E+02 -0.68223995523E+02  0.84625755986E+01  0.14319212011E+03  0.12509000000E+03 0.  0.
         25    1    3    3    0    0 -0.50034730103E+02  0.85822873466E+02  0.11471147852E+03  0.19666029399E+03  0.12509000000E+03 0.  0.
<mgrwt>
<rscale>  2 0.44929937E+03</rscale>
<asrwt>0</asrwt>
<pdfrwt beam="1">  1       21 0.49728262E-01 0.44929937E+03</pdfrwt>
<pdfrwt beam="2">  1       21 0.21947776E-01 0.44929937E+03</pdfrwt>
<totfact> 0.69246587E+04</totfact>
</mgrwt>
</event>
<event>
 7    0  0.4709932E-002  0.4499801E+03  0.7546771E-02  0.1027728E+00
         21   -1    0    0  502  501  0.00000000000E+00  0.00000000000E+00  0.24286340685E+03  0.24286340685E+03  0.00000000000E+00 0.  1.
         21   -1    0    0  501  502 -0.00000000000E+00 -0.00000000000E+00 -0.20843206018E+03  0.20843206018E+03  0.00000000000E+00 0.  1.
      99926    2    1    2    0    0  0.14210854715E-13 -0.17763568394E-14  0.34431346669E+02  0.45129546704E+03  0.44998008949E+03 0.  0.
      99925    2    3    3    0    0  0.91923101296E+02 -0.10906292718E+02 -0.34596472053E+02  0.28105695309E+03  0.26311079649E+03 0.  0.
         25    1    4    4    0    0  0.79128800759E+02 -0.30729051196E+02 -0.10813916043E+02  0.15155886836E+03  0.12509000000E+03 0.  0.
         25    1    3    3    0    0 -0.91923101296E+02  0.10906292718E+02  0.69027818722E+02  0.17023851394E+03  0.12509000000E+03 0.  0.
         25    1    4    4    0    0  0.12794300537E+02  0.19822758478E+02 -0.23782556010E+02  0.12949808474E+03  0.12509000000E+03 0.  0.
<mgrwt>
<rscale>  2 0.44998009E+03</rscale>
<asrwt>0</asrwt>
<pdfrwt beam="1">  1       21 0.35715207E-01 0.44998009E+03</pdfrwt>
<pdfrwt beam="2">  1       21 0.30651773E-01 0.44998009E+03</pdfrwt>
<totfact> 0.71644916E+04</totfact>
</mgrwt>
</event>
<event>
 7    0  0.4709932E-002  0.4535736E+03  0.7546771E-02  0.1026662E+00
         21   -1    0    0  502  501  0.00000000000E+00  0.00000000000E+00  0.91179277447E+02  0.91179277447E+02  0.00000000000E+00 0. -1.
         21   -1    0    0  501  502 -0.00000000000E+00 -0.00000000000E+00 -0.56407820498E+03  0.56407820498E+03  0.00000000000E+00 0. -1.
      99926    2    1    2    0    0 -0.52735593670E-15  0.00000000000E+00 -0.47289892753E+03  0.65525748243E+03  0.45357355811E+03 0.  0.
      99925    2    3    3    0    0 -0.21945441572E+00 -0.67984879810E+02 -0.42613667509E+03  0.50540352553E+03  0.26309364439E+03 0.  0.
         25    1    4    4    0    0  0.13388198100E+02 -0.44285182848E+01 -0.24907832574E+03  0.27908130729E+03  0.12509000000E+03 0.  0.
         25    1    4    4    0    0 -0.13607652515E+02 -0.63556361526E+02 -0.17705834935E+03  0.22632221824E+03  0.12509000000E+03 0.  0.
         25    1    3    3    0    0  0.21945441572E+00  0.67984879810E+02 -0.46762252440E+02  0.14985395689E+03  0.12509000000E+03 0.  0.
<mgrwt>
<rscale>  2 0.45357356E+03</rscale>
<asrwt>0</asrwt>
<pdfrwt beam="1">  1       21 0.13408717E-01 0.45357356E+03</pdfrwt>
<pdfrwt beam="2">  1       21 0.82952679E-01 0.45357356E+03</pdfrwt>
<totfact> 0.56027333E+04</totfact>
</mgrwt>
</event>
<event>
 7    0  0.4709932E-002  0.4533593E+03  0.7546771E-02  0.1026725E+00
         21   -1    0    0  502  501  0.00000000000E+00  0.00000000000E+00  0.28077919627E+03  0.28077919627E+03  0.00000000000E+00 0.  1.
         21   -1    0    0  501  502 -0.00000000000E+00 -0.00000000000E+00 -0.18300381212E+03  0.18300381212E+03  0.00000000000E+00 0.  1.
      99926    2    1    2    0    0  0.00000000000E+00 -0.14210854715E-13  0.97775384151E+02  0.46378300839E+03  0.45335929805E+03 0.  0.
      99925    2    3    3    0    0 -0.48860984840E+02  0.94287223889E+02  0.26469100863E+02  0.28487082165E+03  0.26300816584E+03 0.  0.
         25    1    3    3    0    0  0.48860984840E+02 -0.94287223889E+02  0.71306283288E+02  0.17891218674E+03  0.12509000000E+03 0.  0.
         25    1    4    4    0    0 -0.19799707912E+02  0.89409111043E+02  0.18177779325E+02  0.15608958111E+03  0.12509000000E+03 0.  0.
         25    1    4    4    0    0 -0.29061276928E+02  0.48781128458E+01  0.82913215380E+01  0.12878124054E+03  0.12509000000E+03 0.  0.
<mgrwt>
<rscale>  2 0.45335930E+03</rscale>
<asrwt>0</asrwt>
<pdfrwt beam="1">  1       21 0.41291058E-01 0.45335930E+03</pdfrwt>
<pdfrwt beam="2">  1       21 0.26912325E-01 0.45335930E+03</pdfrwt>
<totfact> 0.68792412E+04</totfact>
</mgrwt>
</event>
<event>
 7    0  0.4709932E-002  0.4111540E+03  0.7546771E-02  0.1039984E+00
         21   -1    0    0  502  501  0.00000000000E+00  0.00000000000E+00  0.51516967595E+02  0.51516967595E+02  0.00000000000E+00 0.  1.
         21   -1    0    0  501  502 -0.00000000000E+00 -0.00000000000E+00 -0.82034903392E+03  0.82034903392E+03  0.00000000000E+00 0.  1.
      99926    2    1    2    0    0  0.00000000000E+00  0.00000000000E+00 -0.76883206632E+03  0.87186600151E+03  0.41115395947E+03 0.  0.
      99925    2    3    3    0    0 -0.35947460956E+02  0.38682990067E+02 -0.42831866645E+03  0.50527975346E+03  0.26279679518E+03 0.  0.
         25    1    3    3    0    0  0.35947460956E+02 -0.38682990067E+02 -0.34051339988E+03  0.36658624806E+03  0.12509000000E+03 0.  0.
         25    1    4    4    0    0  0.51101267536E+01  0.11175606037E+02 -0.14663449523E+03  0.19313257327E+03  0.12509000000E+03 0.  0.
         25    1    4    4    0    0 -0.41057587710E+02  0.27507384030E+02 -0.28168417121E+03  0.31214718019E+03  0.12509000000E+03 0.  0.
<mgrwt>
<rscale>  2 0.41115396E+03</rscale>
<asrwt>0</asrwt>
<pdfrwt beam="1">  1       21 0.75760252E-02 0.41115396E+03</pdfrwt>
<pdfrwt beam="2">  1       21 0.12063956E+00 0.41115396E+03</pdfrwt>
<totfact> 0.63678795E+04</totfact>
</mgrwt>
</event>
<event>
 7    0  0.4709932E-002  0.4565384E+03  0.7546771E-02  0.1025790E+00
         21   -1    0    0  502  501  0.00000000000E+00  0.00000000000E+00  0.65116033095E+03  0.65116033095E+03  0.00000000000E+00 0. -1.
         21   -1    0    0  501  502 -0.00000000000E+00 -0.00000000000E+00 -0.80021516028E+02  0.80021516028E+02  0.00000000000E+00 0. -1.
      99926    2    1    2    0    0  0.00000000000E+00  0.00000000000E+00  0.57113881492E+03  0.73118184697E+03  0.45653844026E+03 0.  0.
      99925    2    3    3    0    0 -0.10298834046E+03 -0.22971927508E+02  0.43063589645E+03  0.51549020151E+03  0.26296114698E+03 0.  0.
         25    1    4    4    0    0 -0.26698186775E+02 -0.12748987935E+02  0.14136455296E+03  0.19106746139E+03  0.12509000000E+03 0.  0.
         25    1    4    4    0    0 -0.76290153681E+02 -0.10222939573E+02  0.28927134349E+03  0.32442274012E+03  0.12509000000E+03 0.  0.
         25    1    3    3    0    0  0.10298834046E+03  0.22971927508E+02  0.14050291847E+03  0.21569164546E+03  0.12509000000E+03 0.  0.
<mgrwt>
<rscale>  2 0.45653844E+03</rscale>
<asrwt>0</asrwt>
<pdfrwt beam="1">  1       21 0.95758869E-01 0.45653844E+03</pdfrwt>
<pdfrwt beam="2">  1       21 0.11767870E-01 0.45653844E+03</pdfrwt>
<totfact> 0.50627268E+04</totfact>
</mgrwt>
</event>
<event>
 7    0  0.4709932E-002  0.4611193E+03  0.7546771E-02  0.1024457E+00
         21   -1    0    0  502  501  0.00000000000E+00  0.00000000000E+00  0.22089971450E+04  0.22089971450E+04  0.00000000000E+00 0. -1.
         21   -1    0    0  501  502 -0.00000000000E+00 -0.00000000000E+00 -0.24064199997E+02  0.24064199997E+02  0.00000000000E+00 0. -1.
      99926    2    1    2    0    0 -0.14210854715E-13  0.00000000000E+00  0.21849329450E+04  0.22330613450E+04  0.46111928647E+03 0.  0.
      99925    2    3    3    0    0 -0.82312156921E+02 -0.67065100963E+02  0.16269262310E+04  0.16514325803E+04  0.26280712933E+03 0.  0.
         25    1    4    4    0    0 -0.69431919360E+02 -0.76763420795E+01  0.75277793801E+03  0.76629096935E+03  0.12509000000E+03 0.  0.
         25    1    3    3    0    0  0.82312156921E+02  0.67065100963E+02  0.55800671394E+03  0.58162876463E+03  0.12509000000E+03 0.  0.
         25    1    4    4    0    0 -0.12880237561E+02 -0.59388758883E+02  0.87414829301E+03  0.88514161097E+03  0.12509000000E+03 0.  0.
<mgrwt>
<rscale>  2 0.46111929E+03</rscale>
<asrwt>0</asrwt>
<pdfrwt beam="1">  1       21 0.32485238E+00 0.46111929E+03</pdfrwt>
<pdfrwt beam="2">  1       21 0.35388544E-02 0.46111929E+03</pdfrwt>
<totfact> 0.97905583E+03</totfact>
</mgrwt>
</event>
<event>
 7    0  0.4709932E-002  0.4541061E+03  0.7546771E-02  0.1026505E+00
         21   -1    0    0  502  501  0.00000000000E+00  0.00000000000E+00  0.31215113283E+03  0.31215113283E+03  0.00000000000E+00 0.  1.
         21   -1    0    0  501  502 -0.00000000000E+00 -0.00000000000E+00 -0.16515423669E+03  0.16515423669E+03  0.00000000000E+00 0.  1.
      99926    2    1    2    0    0  0.00000000000E+00  0.14210854715E-13  0.14699689614E+03  0.47730536953E+03  0.45410607605E+03 0.  0.
      99925    2    3    3    0    0  0.78880781002E+01  0.76357979526E+02  0.63453820033E+01  0.27402448173E+03  0.26297602534E+03 0.  0.
         25    1    3    3    0    0 -0.78880781002E+01 -0.76357979526E+02  0.14065151414E+03  0.20328088779E+03  0.12509000000E+03 0.  0.
         25    1    4    4    0    0 -0.23719685124E+02  0.91436545759E+01  0.13565885319E+02  0.12836577124E+03  0.12509000000E+03 0.  0.
         25    1    4    4    0    0  0.31607763225E+02  0.67214324950E+02 -0.72205033161E+01  0.14565871049E+03  0.12509000000E+03 0.  0.
<mgrwt>
<rscale>  2 0.45410608E+03</rscale>
<asrwt>0</asrwt>
<pdfrwt beam="1">  1       21 0.45904578E-01 0.45410608E+03</pdfrwt>
<pdfrwt beam="2">  1       21 0.24287388E-01 0.45410608E+03</pdfrwt>
<totfact> 0.67373515E+04</totfact>
</mgrwt>
</event>
<event>
 7    0  0.4709932E-002  0.4218678E+03  0.7546771E-02  0.1036460E+00
         21   -1    0    0  502  501  0.00000000000E+00  0.00000000000E+00  0.29500785546E+03  0.29500785546E+03  0.00000000000E+00 0.  1.
         21   -1    0    0  501  502 -0.00000000000E+00 -0.00000000000E+00 -0.15082005711E+03  0.15082005711E+03  0.00000000000E+00 0.  1.
      99926    2    1    2    0    0  0.14210854715E-13 -0.44408920985E-15  0.14418779835E+03  0.44582791256E+03  0.42186775941E+03 0.  0.
      99925    2    3    3    0    0 -0.67762935977E+02  0.38184053165E+01  0.13479385659E+03  0.30320200344E+03  0.26297466685E+03 0.  0.
         25    1    3    3    0    0  0.67762935977E+02 -0.38184053165E+01  0.93939417627E+01  0.14262590912E+03  0.12509000000E+03 0.  0.
         25    1    4    4    0    0 -0.31971485691E+02  0.37144544599E+02  0.45183864076E+02  0.14174266388E+03  0.12509000000E+03 0.  0.
         25    1    4    4    0    0 -0.35791450286E+02 -0.33326139283E+02  0.89609992514E+02  0.16145933956E+03  0.12509000000E+03 0.  0.
<mgrwt>
<rscale>  2 0.42186776E+03</rscale>
<asrwt>0</asrwt>
<pdfrwt beam="1">  1       21 0.43383508E-01 0.42186776E+03</pdfrwt>
<pdfrwt beam="2">  1       21 0.22179420E-01 0.42186776E+03</pdfrwt>
<totfact> 0.90929104E+04</totfact>
</mgrwt>
</event>
<event>
 7    0  0.4709932E-002  0.4579144E+03  0.7546771E-02  0.1025388E+00
         21   -1    0    0  502  501  0.00000000000E+00  0.00000000000E+00  0.27751294967E+03  0.27751294967E+03  0.00000000000E+00 0.  1.
         21   -1    0    0  501  502 -0.00000000000E+00 -0.00000000000E+00 -0.18889709876E+03  0.18889709876E+03  0.00000000000E+00 0.  1.
      99926    2    1    2    0    0  0.35527136788E-14 -0.14210854715E-13  0.88615850905E+02  0.46641004843E+03  0.45791436344E+03 0.  0.
      99925    2    3    3    0    0 -0.13459338688E+02 -0.11503204342E+03  0.55151760694E+02  0.29268360183E+03  0.26307498791E+03 0.  0.
         25    1    4    4    0    0 -0.34000698759E+02 -0.74538541711E+02  0.24476336646E+01  0.14955113081E+03  0.12509000000E+03 0.  0.
         25    1    4    4    0    0  0.20541360071E+02 -0.40493501713E+02  0.52704127030E+02  0.14313247102E+03  0.12509000000E+03 0.  0.
         25    1    3    3    0    0  0.13459338688E+02  0.11503204342E+03  0.33464090211E+02  0.17372644659E+03  0.12509000000E+03 0.  0.
<mgrwt>
<rscale>  2 0.45791436E+03</rscale>
<asrwt>0</asrwt>
<pdfrwt beam="1">  1       21 0.40810728E-01 0.45791436E+03</pdfrwt>
<pdfrwt beam="2">  1       21 0.27778985E-01 0.45791436E+03</pdfrwt>
<totfact> 0.66159601E+04</totfact>
</mgrwt>
</event>
<event>
 7    0  0.4709932E-002  0.4656570E+03  0.7546771E-02  0.1023153E+00
         21   -1    0    0  502  501  0.00000000000E+00  0.00000000000E+00  0.88704763607E+02  0.88704763607E+02  0.00000000000E+00 0. -1.
         21   -1    0    0  501  502 -0.00000000000E+00 -0.00000000000E+00 -0.61111827116E+03  0.61111827116E+03  0.00000000000E+00 0. -1.
      99926    2    1    2    0    0 -0.17763568394E-14  0.00000000000E+00 -0.52241350755E+03  0.69982303477E+03  0.46565696292E+03 0.  0.
      99925    2    3    3    0    0 -0.27833201310E+01  0.79530490649E+01 -0.14156368339E+03  0.29886780719E+03  0.26307925014E+03 0.  0.
         25    1    4    4    0    0 -0.27751996735E+02  0.29181839864E+02 -0.91844789128E+02  0.16032693626E+03  0.12509000000E+03 0.  0.
         25    1    3    3    0    0  0.27833201310E+01 -0.79530490649E+01 -0.38084982416E+03  0.40095522758E+03  0.12509000000E+03 0.  0.
         25    1    4    4    0    0  0.24968676604E+02 -0.21228790799E+02 -0.49718894265E+02  0.13854087093E+03  0.12509000000E+03 0.  0.
<mgrwt>
<rscale>  2 0.46565696E+03</rscale>
<asrwt>0</asrwt>
<pdfrwt beam="1">  1       21 0.13044818E-01 0.46565696E+03</pdfrwt>
<pdfrwt beam="2">  1       21 0.89870333E-01 0.46565696E+03</pdfrwt>
<totfact> 0.48697225E+04</totfact>
</mgrwt>
</event>
<event>
 6    0  0.4709932E-002  0.4539424E+03  0.7546771E-02  0.1026553E+00
         21   -1    0    0  502  501  0.00000000000E+00  0.00000000000E+00  0.20151243387E+03  0.20151243387E+03  0.00000000000E+00 0. -1.
         21   -1    0    0  501  502 -0.00000000000E+00 -0.00000000000E+00 -0.25564642784E+03  0.25564642784E+03  0.00000000000E+00 0. -1.
      99926    2    1    2    0    0  0.00000000000E+00  0.00000000000E+00 -0.54133993978E+02  0.45715886171E+03  0.45394243637E+03 0.  0.
         25    1    3    3    0    0 -0.75412969287E+02  0.41186201748E+02 -0.63514491364E+02  0.16451449135E+03  0.12509000000E+03 0.  0.
         25    1    3    3    0    0 -0.25076594176E+02 -0.32716218172E+01  0.39985718572E+01  0.12768334175E+03  0.12509000000E+03 0.  0.
         25    1    3    3    0    0  0.10048956346E+03 -0.37914579930E+02  0.53819255291E+01  0.16496102861E+03  0.12509000000E+03 0.  0.
<mgrwt>
<rscale>  2 0.45394244E+03</rscale>
<asrwt>0</asrwt>
<pdfrwt beam="1">  1       21 0.29634181E-01 0.45394244E+03</pdfrwt>
<pdfrwt beam="2">  1       21 0.37595063E-01 0.45394244E+03</pdfrwt>
<totfact> 0.68967905E+04</totfact>
</mgrwt>
</event>
<event>
 7    0  0.4709932E-002  0.4258506E+03  0.7546771E-02  0.1035179E+00
         21   -1    0    0  502  501  0.00000000000E+00  0.00000000000E+00  0.71589275646E+03  0.71589275646E+03  0.00000000000E+00 0.  1.
         21   -1    0    0  501  502 -0.00000000000E+00 -0.00000000000E+00 -0.63329561549E+02  0.63329561549E+02  0.00000000000E+00 0.  1.
      99926    2    1    2    0    0  0.00000000000E+00  0.00000000000E+00  0.65256319491E+03  0.77922231801E+03  0.42585055774E+03 0.  0.
      99925    2    3    3    0    0 -0.51048992945E+02  0.56732132949E+02  0.36299034495E+03  0.45468498869E+03  0.26296751476E+03 0.  0.
         25    1    4    4    0    0 -0.60516562593E+02  0.49515228401E+02  0.18040428528E+03  0.23303910925E+03  0.12509000000E+03 0.  0.
         25    1    3    3    0    0  0.51048992945E+02 -0.56732132949E+02  0.28957284996E+03  0.32453732932E+03  0.12509000000E+03 0.  0.
         25    1    4    4    0    0  0.94675696483E+01  0.72169045476E+01  0.18258605968E+03  0.22164587944E+03  0.12509000000E+03 0.  0.
<mgrwt>
<rscale>  2 0.42585056E+03</rscale>
<asrwt>0</asrwt>
<pdfrwt beam="1">  1       21 0.10527834E+00 0.42585056E+03</pdfrwt>
<pdfrwt beam="2">  1       21 0.93131712E-02 0.42585056E+03</pdfrwt>
<totfact> 0.61748874E+04</totfact>
</mgrwt>
</event>
<event>
 7    0  0.4709932E-002  0.4533983E+03  0.7546771E-02  0.1026713E+00
         21   -1    0    0  502  501  0.00000000000E+00  0.00000000000E+00  0.32900461914E+03  0.32900461914E+03  0.00000000000E+00 0.  1.
         21   -1    0    0  501  502 -0.00000000000E+00 -0.00000000000E+00 -0.15620603478E+03  0.15620603478E+03  0.00000000000E+00 0.  1.
      99926    2    1    2    0    0  0.00000000000E+00  0.00000000000E+00  0.17279858436E+03  0.48521065391E+03  0.45339831045E+03 0.  0.
      99925    2    3    3    0    0 -0.33550365843E+02 -0.10186261319E+03  0.75917637672E+02  0.29406922736E+03  0.26308098326E+03 0.  0.
         25    1    4    4    0    0  0.10163421089E+02 -0.52126944820E+02  0.55581828655E+01  0.13601071649E+03  0.12509000000E+03 0.  0.
         25    1    3    3    0    0  0.33550365843E+02  0.10186261319E+03  0.96880946686E+02  0.19114142655E+03  0.12509000000E+03 0.  0.
         25    1    4    4    0    0 -0.43713786931E+02 -0.49735668372E+02  0.70359454806E+02  0.15805851086E+03  0.12509000000E+03 0.  0.
<mgrwt>
<rscale>  2 0.45339831E+03</rscale>
<asrwt>0</asrwt>
<pdfrwt beam="1">  1       21 0.48383032E-01 0.45339831E+03</pdfrwt>
<pdfrwt beam="2">  1       21 0.22971476E-01 0.45339831E+03</pdfrwt>
<totfact> 0.67172764E+04</totfact>
</mgrwt>
</event>
<event>
 7    0  0.4709932E-002  0.4630024E+03  0.7546771E-02  0.1023914E+00
         21   -1    0    0  502  501  0.00000000000E+00  0.00000000000E+00  0.17344264445E+03  0.17344264445E+03  0.00000000000E+00 0.  1.
         21   -1    0    0  501  502 -0.00000000000E+00 -0.00000000000E+00 -0.30899444161E+03  0.30899444161E+03  0.00000000000E+00 0.  1.
      99926    2    1    2    0    0  0.00000000000E+00  0.14210854715E-13 -0.13555179716E+03  0.48243708606E+03  0.46300243228E+03 0.  0.
      99925    2    3    3    0    0  0.48404420511E+02 -0.11039158609E+03 -0.84950242402E+02  0.30150252428E+03  0.26297896924E+03 0.  0.
         25    1    4    4    0    0 -0.13448479565E+02 -0.68581149003E+02 -0.35006218733E+02  0.14750314929E+03  0.12509000000E+03 0.  0.
         25    1    3    3    0    0 -0.48404420511E+02  0.11039158609E+03 -0.50601554756E+02  0.18093456178E+03  0.12509000000E+03 0.  0.
         25    1    4    4    0    0  0.61852900076E+02 -0.41810437083E+02 -0.49944023670E+02  0.15399937499E+03  0.12509000000E+03 0.  0.
<mgrwt>
<rscale>  2 0.46300243E+03</rscale>
<asrwt>0</asrwt>
<pdfrwt beam="1">  1       21 0.25506272E-01 0.46300243E+03</pdfrwt>
<pdfrwt beam="2">  1       21 0.45440359E-01 0.46300243E+03</pdfrwt>
<totfact> 0.62460754E+04</totfact>
</mgrwt>
</event>
<event>
 7    0  0.4709932E-002  0.4546575E+03  0.7546771E-02  0.1026342E+00
         21   -1    0    0  502  501  0.00000000000E+00  0.00000000000E+00  0.20212614734E+02  0.20212614734E+02  0.00000000000E+00 0.  1.
         21   -1    0    0  501  502 -0.00000000000E+00 -0.00000000000E+00 -0.25567376568E+04  0.25567376568E+04  0.00000000000E+00 0.  1.
      99926    2    1    2    0    0  0.00000000000E+00 -0.88817841970E-15 -0.25365250421E+04  0.25769502715E+04  0.45465746770E+03 0.  0.
      99925    2    3    3    0    0 -0.10310732418E+03 -0.27499975096E+01 -0.18569041479E+04  0.18782580999E+04  0.26291023686E+03 0.  0.
         25    1    4    4    0    0 -0.22538200469E+02  0.28451873884E+02 -0.88652553575E+03  0.89604269611E+03  0.12509000000E+03 0.  0.
         25    1    4    4    0    0 -0.80569123715E+02 -0.31201871394E+02 -0.97037861212E+03  0.98221540378E+03  0.12509000000E+03 0.  0.
         25    1    3    3    0    0  0.10310732418E+03  0.27499975096E+01 -0.67962089421E+03  0.69869217165E+03  0.12509000000E+03 0.  0.
<mgrwt>
<rscale>  2 0.45465747E+03</rscale>
<asrwt>0</asrwt>
<pdfrwt beam="1">  1       21 0.29724437E-02 0.45465747E+03</pdfrwt>
<pdfrwt beam="2">  1       21 0.37599078E+00 0.45465747E+03</pdfrwt>
<totfact> 0.63932201E+03</totfact>
</mgrwt>
</event>
<event>
 7    0  0.4709932E-002  0.4504331E+03  0.7546771E-02  0.1027593E+00
         21   -1    0    0  502  501  0.00000000000E+00  0.00000000000E+00  0.58621130086E+02  0.58621130086E+02  0.00000000000E+00 0.  1.
         21   -1    0    0  501  502 -0.00000000000E+00 -0.00000000000E+00 -0.86525944563E+03  0.86525944563E+03  0.00000000000E+00 0.  1.
      99926    2    1    2    0    0  0.00000000000E+00  0.00000000000E+00 -0.80663831555E+03  0.92388057572E+03  0.45043306504E+03 0.  0.
      99925    2    3    3    0    0 -0.72074883112E+02  0.79722966885E+02 -0.54318025602E+03  0.61306198321E+03  0.26315330987E+03 0.  0.
         25    1    3    3    0    0  0.72074883112E+02 -0.79722966885E+02 -0.26345805952E+03  0.31081859252E+03  0.12509000000E+03 0.  0.
         25    1    4    4    0    0 -0.29900155051E+01  0.14526275616E+02 -0.21382224992E+03  0.24816811950E+03  0.12509000000E+03 0.  0.
         25    1    4    4    0    0 -0.69084867607E+02  0.65196691268E+02 -0.32935800610E+03  0.36489386370E+03  0.12509000000E+03 0.  0.
<mgrwt>
<rscale>  2 0.45043307E+03</rscale>
<asrwt>0</asrwt>
<pdfrwt beam="1">  1       21 0.86207541E-02 0.45043307E+03</pdfrwt>
<pdfrwt beam="2">  1       21 0.12724404E+00 0.45043307E+03</pdfrwt>
<totfact> 0.43759418E+04</totfact>
</mgrwt>
</event>
<event>
 7    0  0.4709932E-002  0.4529902E+03  0.7546771E-02  0.1026834E+00
         21   -1    0    0  502  501  0.00000000000E+00  0.00000000000E+00  0.13951714740E+03  0.13951714740E+03  0.00000000000E+00 0.  1.
         21   -1    0    0  501  502 -0.00000000000E+00 -0.00000000000E+00 -0.36769690209E+03  0.36769690209E+03  0.00000000000E+00 0.  1.
      99926    2    1    2    0    0  0.00000000000E+00 -0.17763568394E-14 -0.22817975469E+03  0.50721404949E+03  0.45299016717E+03 0.  0.
      99925    2    3    3    0    0 -0.83524335293E+02  0.89000628796E+01 -0.62113796027E+02  0.28297993873E+03  0.26299048720E+03 0.  0.
         25    1    4    4    0    0 -0.46655393099E+02 -0.31496195371E+02 -0.12579366293E+02  0.13774790229E+03  0.12509000000E+03 0.  0.
         25    1    4    4    0    0 -0.36868942194E+02  0.40396258251E+02 -0.49534429734E+02  0.14523203644E+03  0.12509000000E+03 0.  0.
         25    1    3    3    0    0  0.83524335293E+02 -0.89000628796E+01 -0.16606595866E+03  0.22423411077E+03  0.12509000000E+03 0.  0.
<mgrwt>
<rscale>  2 0.45299017E+03</rscale>
<asrwt>0</asrwt>
<pdfrwt beam="1">  1       21 0.20517227E-01 0.45299017E+03</pdfrwt>
<pdfrwt beam="2">  1       21 0.54073075E-01 0.45299017E+03</pdfrwt>
<totfact> 0.65810278E+04</totfact>
</mgrwt>
</event>
<event>
 7    0  0.4709932E-002  0.4667414E+03  0.7546771E-02  0.1022844E+00
         21   -1    0    0  502  501  0.00000000000E+00  0.00000000000E+00  0.10510378869E+04  0.10510378869E+04  0.00000000000E+00 0.  1.
         21   -1    0    0  501  502 -0.00000000000E+00 -0.00000000000E+00 -0.51817235432E+02  0.51817235432E+02  0.00000000000E+00 0.  1.
      99926    2    1    2    0    0  0.00000000000E+00  0.00000000000E+00  0.99922065145E+03  0.11028551223E+04  0.46674137435E+03 0.  0.
      99925    2    3    3    0    0 -0.75105656076E+02  0.75964071563E+02  0.77036929378E+03  0.82101855309E+03  0.26304223231E+03 0.  0.
         25    1    4    4    0    0 -0.43368436288E+02  0.24516072311E+02  0.26986652060E+03  0.30159128984E+03  0.12509000000E+03 0.  0.
         25    1    4    4    0    0 -0.31737219788E+02  0.51447999252E+02  0.50050277318E+03  0.51942726325E+03  0.12509000000E+03 0.  0.
         25    1    3    3    0    0  0.75105656076E+02 -0.75964071563E+02  0.22885135767E+03  0.28183656922E+03  0.12509000000E+03 0.  0.
<mgrwt>
<rscale>  2 0.46674137E+03</rscale>
<asrwt>0</asrwt>
<pdfrwt beam="1">  1       21 0.15456438E+00 0.46674137E+03</pdfrwt>
<pdfrwt beam="2">  1       21 0.76201824E-02 0.46674137E+03</pdfrwt>
<totfact> 0.32330980E+04</totfact>
</mgrwt>
</event>
<event>
 7    0  0.4709932E-002  0.4538051E+03  0.7546771E-02  0.1026593E+00
         21   -1    0    0  502  501  0.00000000000E+00  0.00000000000E+00  0.38853870800E+03  0.38853870800E+03  0.00000000000E+00 0.  1.
         21   -1    0    0  501  502 -0.00000000000E+00 -0.00000000000E+00 -0.13250869347E+03  0.13250869347E+03  0.00000000000E+00 0.  1.
      99926    2    1    2    0    0  0.00000000000E+00  0.00000000000E+00  0.25603001452E+03  0.52104740147E+03  0.45380505313E+03 0.  0.
      99925    2    3    3    0    0  0.39440079587E+02  0.10480524857E+03  0.16219366016E+03  0.32871324043E+03  0.26307023972E+03 0.  0.
         25    1    3    3    0    0 -0.39440079587E+02 -0.10480524857E+03  0.93836354360E+02  0.19233416105E+03  0.12509000000E+03 0.  0.
         25    1    4    4    0    0  0.18977930511E+02  0.52772619543E+02  0.12786335963E+03  0.18746108411E+03  0.12509000000E+03 0.  0.
         25    1    4    4    0    0  0.20462149075E+02  0.52032629029E+02  0.34330300527E+02  0.14125215631E+03  0.12509000000E+03 0.  0.
<mgrwt>
<rscale>  2 0.45380505E+03</rscale>
<asrwt>0</asrwt>
<pdfrwt beam="1">  1       21 0.57138045E-01 0.45380505E+03</pdfrwt>
<pdfrwt beam="2">  1       21 0.19486573E-01 0.45380505E+03</pdfrwt>
<totfact> 0.64424520E+04</totfact>
</mgrwt>
</event>
<event>
 7    0  0.4709932E-002  0.4523235E+03  0.7546771E-02  0.1027031E+00
         21   -1    0    0  502  501  0.00000000000E+00  0.00000000000E+00  0.53218858473E+03  0.53218858473E+03  0.00000000000E+00 0.  1.
         21   -1    0    0  501  502 -0.00000000000E+00 -0.00000000000E+00 -0.96110936159E+02  0.96110936159E+02  0.00000000000E+00 0.  1.
      99926    2    1    2    0    0  0.00000000000E+00  0.00000000000E+00  0.43607764857E+03  0.62829952089E+03  0.45232352621E+03 0.  0.
      99925    2    3    3    0    0  0.30127475352E+02 -0.33178708808E+02  0.41588040089E+03  0.49389740631E+03  0.26262073153E+03 0.  0.
         25    1    3    3    0    0 -0.30127475352E+02  0.33178708808E+02  0.20197247688E+02  0.13440211458E+03  0.12509000000E+03 0.  0.
         25    1    4    4    0    0  0.48777453257E+02 -0.66012510926E+00  0.18406509299E+03  0.22783139000E+03  0.12509000000E+03 0.  0.
         25    1    4    4    0    0 -0.18649977906E+02 -0.32518583699E+02  0.23181530790E+03  0.26606601632E+03  0.12509000000E+03 0.  0.
<mgrwt>
<rscale>  2 0.45232353E+03</rscale>
<asrwt>0</asrwt>
<pdfrwt beam="1">  1       21 0.78263026E-01 0.45232353E+03</pdfrwt>
<pdfrwt beam="2">  1       21 0.14133961E-01 0.45232353E+03</pdfrwt>
<totfact> 0.58189074E+04</totfact>
</mgrwt>
</event>
<event>
 7    0  0.4709932E-002  0.4540539E+03  0.7546771E-02  0.1026520E+00
         21   -1    0    0  502  501  0.00000000000E+00  0.00000000000E+00  0.36964016270E+03  0.36964016270E+03  0.00000000000E+00 0.  1.
         21   -1    0    0  501  502 -0.00000000000E+00 -0.00000000000E+00 -0.13943626262E+03  0.13943626262E+03  0.00000000000E+00 0.  1.
      99926    2    1    2    0    0  0.00000000000E+00  0.00000000000E+00  0.23020390008E+03  0.50907642532E+03  0.45405392985E+03 0.  0.
      99925    2    3    3    0    0  0.84657960816E+02  0.60325802007E+02  0.99561305605E+02  0.30045914821E+03  0.26373675029E+03 0.  0.
         25    1    3    3    0    0 -0.84657960816E+02 -0.60325802007E+02  0.13064259448E+03  0.20861727711E+03  0.12509000000E+03 0.  0.
         25    1    4    4    0    0  0.26315306150E+02 -0.13770493920E+01  0.19296437567E+02  0.12928361151E+03  0.12509000000E+03 0.  0.
         25    1    4    4    0    0  0.58342654666E+02  0.61702851399E+02  0.80264868038E+02  0.17117553670E+03  0.12509000000E+03 0.  0.
<mgrwt>
<rscale>  2 0.45405393E+03</rscale>
<asrwt>0</asrwt>
<pdfrwt beam="1">  1       21 0.54358847E-01 0.45405393E+03</pdfrwt>
<pdfrwt beam="2">  1       21 0.20505333E-01 0.45405393E+03</pdfrwt>
<totfact> 0.65125215E+04</totfact>
</mgrwt>
</event>
<event>
 7    0  0.4709932E-002  0.4489273E+03  0.7546771E-02  0.1028042E+00
         21   -1    0    0  502  501  0.00000000000E+00  0.00000000000E+00  0.20698158332E+04  0.20698158332E+04  0.00000000000E+00 0.  1.
         21   -1    0    0  501  502 -0.00000000000E+00 -0.00000000000E+00 -0.24342229014E+02  0.24342229014E+02  0.00000000000E+00 0.  1.
      99926    2    1    2    0    0  0.00000000000E+00  0.00000000000E+00  0.20454736042E+04  0.20941580622E+04  0.44892730382E+03 0.  0.
      99925    2    3    3    0    0 -0.84524062799E+02 -0.35635762265E+02  0.15544695418E+04  0.15792340657E+04  0.26304078264E+03 0.  0.
         25    1    3    3    0    0  0.84524062799E+02  0.35635762265E+02  0.49100406240E+03  0.51492399646E+03  0.12509000000E+03 0.  0.
         25    1    4    4    0    0 -0.13925982435E+02 -0.19810346952E+02  0.90195608283E+03  0.91091089921E+03  0.12509000000E+03 0.  0.
         25    1    4    4    0    0 -0.70598080365E+02 -0.15825415312E+02  0.65251345895E+03  0.66832316654E+03  0.12509000000E+03 0.  0.
<mgrwt>
<rscale>  2 0.44892730E+03</rscale>
<asrwt>0</asrwt>
<pdfrwt beam="1">  1       21 0.30438456E+00 0.44892730E+03</pdfrwt>
<pdfrwt beam="2">  1       21 0.35797410E-02 0.44892730E+03</pdfrwt>
<totfact> 0.12826974E+04</totfact>
</mgrwt>
</event>
<event>
 7    0  0.4709932E-002  0.4545794E+03  0.7546771E-02  0.1026365E+00
         21   -1    0    0  502  501  0.00000000000E+00  0.00000000000E+00  0.78759885234E+02  0.78759885234E+02  0.00000000000E+00 0. -1.
         21   -1    0    0  501  502 -0.00000000000E+00 -0.00000000000E+00 -0.65592540705E+03  0.65592540705E+03  0.00000000000E+00 0. -1.
      99926    2    1    2    0    0  0.14210854715E-13  0.00000000000E+00 -0.57716552181E+03  0.73468529228E+03  0.45457940904E+03 0.  0.
      99925    2    3    3    0    0  0.10730039773E+03 -0.28415255150E+02 -0.33155998161E+03  0.43754830105E+03  0.26305074086E+03 0.  0.
         25    1    3    3    0    0 -0.10730039773E+03  0.28415255150E+02 -0.24560554020E+03  0.29713699123E+03  0.12509000000E+03 0.  0.
         25    1    4    4    0    0  0.73077961045E+02 -0.28621712962E+02 -0.22772563243E+03  0.27141492702E+03  0.12509000000E+03 0.  0.
         25    1    4    4    0    0  0.34222436686E+02  0.20645781228E+00 -0.10383434918E+03  0.16613337403E+03  0.12509000000E+03 0.  0.
<mgrwt>
<rscale>  2 0.45457941E+03</rscale>
<asrwt>0</asrwt>
<pdfrwt beam="1">  1       21 0.11582336E-01 0.45457941E+03</pdfrwt>
<pdfrwt beam="2">  1       21 0.96459622E-01 0.45457941E+03</pdfrwt>
<totfact> 0.51229121E+04</totfact>
</mgrwt>
</event>
<event>
 7    0  0.4709932E-002  0.4519786E+03  0.7546771E-02  0.1027134E+00
         21   -1    0    0  502  501  0.00000000000E+00  0.00000000000E+00  0.63153659332E+02  0.63153659332E+02  0.00000000000E+00 0. -1.
         21   -1    0    0  501  502 -0.00000000000E+00 -0.00000000000E+00 -0.80868094999E+03  0.80868094999E+03  0.00000000000E+00 0. -1.
      99926    2    1    2    0    0  0.71054273576E-14  0.00000000000E+00 -0.74552729065E+03  0.87183460932E+03  0.45197858898E+03 0.  0.
      99925    2    3    3    0    0 -0.44236013250E+02 -0.96219458056E+02 -0.41085907808E+03  0.49918822253E+03  0.26299941159E+03 0.  0.
         25    1    3    3    0    0  0.44236013250E+02  0.96219458056E+02 -0.33466821257E+03  0.37264638679E+03  0.12509000000E+03 0.  0.
         25    1    4    4    0    0 -0.45506524199E+02 -0.19804752190E+02 -0.16471845508E+03  0.21270343086E+03  0.12509000000E+03 0.  0.
         25    1    4    4    0    0  0.12705109491E+01 -0.76414705866E+02 -0.24614062300E+03  0.28648479168E+03  0.12509000000E+03 0.  0.
<mgrwt>
<rscale>  2 0.45197859E+03</rscale>
<asrwt>0</asrwt>
<pdfrwt beam="1">  1       21 0.92873032E-02 0.45197859E+03</pdfrwt>
<pdfrwt beam="2">  1       21 0.11892367E+00 0.45197859E+03</pdfrwt>
<totfact> 0.45542194E+04</totfact>
</mgrwt>
</event>
<event>
 7    0  0.4709932E-002  0.4625943E+03  0.7546771E-02  0.1024031E+00
         21   -1    0    0  502  501  0.00000000000E+00  0.00000000000E+00  0.19962098562E+02  0.19962098562E+02  0.00000000000E+00 0.  1.
         21   -1    0    0  501  502 -0.00000000000E+00 -0.00000000000E+00 -0.26799972031E+04  0.26799972031E+04  0.00000000000E+00 0.  1.
      99926    2    1    2    0    0  0.14210854715E-13  0.00000000000E+00 -0.26600351045E+04  0.26999593016E+04  0.46259428580E+03 0.  0.
      99925    2    3    3    0    0 -0.10830585735E+03  0.34358538593E+02 -0.14294592920E+04  0.14578341041E+04  0.26270846901E+03 0.  0.
         25    1    3    3    0    0  0.10830585735E+03 -0.34358538593E+02 -0.12305758125E+04  0.12421251975E+04  0.12509000000E+03 0.  0.
         25    1    4    4    0    0 -0.64183459566E+02 -0.20974544655E+02 -0.74708396628E+03  0.76048761251E+03  0.12509000000E+03 0.  0.
         25    1    4    4    0    0 -0.44122397780E+02  0.55333083248E+02 -0.68237532576E+03  0.69734649163E+03  0.12509000000E+03 0.  0.
<mgrwt>
<rscale>  2 0.46259429E+03</rscale>
<asrwt>0</asrwt>
<pdfrwt beam="1">  1       21 0.29356022E-02 0.46259429E+03</pdfrwt>
<pdfrwt beam="2">  1       21 0.39411731E+00 0.46259429E+03</pdfrwt>
<totfact> 0.49933985E+03</totfact>
</mgrwt>
</event>
<event>
 7    0  0.4709932E-002  0.4508306E+03  0.7546771E-02  0.1027475E+00
         21   -1    0    0  502  501  0.00000000000E+00  0.00000000000E+00  0.45595723300E+03  0.45595723300E+03  0.00000000000E+00 0. -1.
         21   -1    0    0  501  502 -0.00000000000E+00 -0.00000000000E+00 -0.11144041917E+03  0.11144041917E+03  0.00000000000E+00 0. -1.
      99926    2    1    2    0    0  0.00000000000E+00  0.14210854715E-13  0.34451681383E+03  0.56739765217E+03  0.45083063414E+03 0.  0.
      99925    2    3    3    0    0 -0.66677566113E+02 -0.86017884799E+02  0.22888701673E+03  0.36525232720E+03  0.26301144799E+03 0.  0.
         25    1    4    4    0    0 -0.35201249500E+02 -0.77210405647E+02  0.91961010956E+02  0.17693193703E+03  0.12509000000E+03 0.  0.
         25    1    4    4    0    0 -0.31476316614E+02 -0.88074791522E+01  0.13692600577E+03  0.18832039017E+03  0.12509000000E+03 0.  0.
         25    1    3    3    0    0  0.66677566113E+02  0.86017884799E+02  0.11562979710E+03  0.20214532497E+03  0.12509000000E+03 0.  0.
<mgrwt>
<rscale>  2 0.45083063E+03</rscale>
<asrwt>0</asrwt>
<pdfrwt beam="1">  1       21 0.67052534E-01 0.45083063E+03</pdfrwt>
<pdfrwt beam="2">  1       21 0.16388297E-01 0.45083063E+03</pdfrwt>
<totfact> 0.62775700E+04</totfact>
</mgrwt>
</event>
<event>
 7    0  0.4709932E-002  0.4532221E+03  0.7546771E-02  0.1026766E+00
         21   -1    0    0  502  501  0.00000000000E+00  0.00000000000E+00  0.20876914439E+03  0.20876914439E+03  0.00000000000E+00 0. -1.
         21   -1    0    0  501  502 -0.00000000000E+00 -0.00000000000E+00 -0.24597780065E+03  0.24597780065E+03  0.00000000000E+00 0. -1.
      99926    2    1    2    0    0  0.14210854715E-13  0.00000000000E+00 -0.37208656267E+02  0.45474694504E+03  0.45322213088E+03 0.  0.
      99925    2    3    3    0    0 -0.69561236207E+02 -0.82189269111E+02 -0.51899323472E+02  0.28904490721E+03  0.26317214341E+03 0.  0.
         25    1    4    4    0    0  0.31158981768E+01 -0.47503727976E+02 -0.40513052931E+02  0.13983965300E+03  0.12509000000E+03 0.  0.
         25    1    3    3    0    0  0.69561236207E+02  0.82189269111E+02  0.14690667205E+02  0.16570203784E+03  0.12509000000E+03 0.  0.
         25    1    4    4    0    0 -0.72677134384E+02 -0.34685541136E+02 -0.11386270541E+02  0.14920525421E+03  0.12509000000E+03 0.  0.
<mgrwt>
<rscale>  2 0.45322213E+03</rscale>
<asrwt>0</asrwt>
<pdfrwt beam="1">  1       21 0.30701345E-01 0.45322213E+03</pdfrwt>
<pdfrwt beam="2">  1       21 0.36173206E-01 0.45322213E+03</pdfrwt>
<totfact> 0.69545651E+04</totfact>
</mgrwt>
</event>
<event>
 7    0  0.4709932E-002  0.4473484E+03  0.7546771E-02  0.1028516E+00
         21   -1    0    0  502  501  0.00000000000E+00  0.00000000000E+00  0.97654882563E+03  0.97654882563E+03  0.00000000000E+00 0.  1.
         21   -1    0    0  501  502 -0.00000000000E+00 -0.00000000000E+00 -0.51231593376E+02  0.51231593376E+02  0.00000000000E+00 0.  1.
      99926    2    1    2    0    0  0.00000000000E+00  0.17763568394E-14  0.92531723225E+03  0.10277804190E+04  0.44734842057E+03 0.  0.
      99925    2    3    3    0    0  0.10190983618E+03 -0.82705023894E+01  0.64823892547E+03  0.70704078611E+03  0.26313295652E+03 0.  0.
         25    1    4    4    0    0  0.62494586713E+02 -0.21633883185E+02  0.42322664348E+03  0.44625317715E+03  0.12509000000E+03 0.  0.
         25    1    3    3    0    0 -0.10190983618E+03  0.82705023894E+01  0.27707830678E+03  0.32073963289E+03  0.12509000000E+03 0.  0.
         25    1    4    4    0    0  0.39415249470E+02  0.13363380795E+02  0.22501228199E+03  0.26078760895E+03  0.12509000000E+03 0.  0.
<mgrwt>
<rscale>  2 0.44734842E+03</rscale>
<asrwt>0</asrwt>
<pdfrwt beam="1">  1       21 0.14361011E+00 0.44734842E+03</pdfrwt>
<pdfrwt beam="2">  1       21 0.75340584E-02 0.44734842E+03</pdfrwt>
<totfact> 0.40467272E+04</totfact>
</mgrwt>
</event>
<event>
 7    0  0.4709932E-002  0.4609987E+03  0.7546771E-02  0.1024492E+00
         21   -1    0    0  502  501  0.00000000000E+00  0.00000000000E+00  0.53172101775E+03  0.53172101775E+03  0.00000000000E+00 0.  1.
         21   -1    0    0  501  502 -0.00000000000E+00 -0.00000000000E+00 -0.99920735989E+02  0.99920735989E+02  0.00000000000E+00 0.  1.
      99926    2    1    2    0    0  0.71054273576E-14  0.00000000000E+00  0.43180028176E+03  0.63164175374E+03  0.46099872206E+03 0.  0.
      99925    2    3    3    0    0  0.41863522876E+02 -0.48825180371E+02  0.40694623391E+03  0.48880728808E+03  0.26304158379E+03 0.  0.
         25    1    4    4    0    0  0.57411890796E+02 -0.15196464570E+02  0.23800971385E+03  0.27536010918E+03  0.12509000000E+03 0.  0.
         25    1    4    4    0    0 -0.15548367919E+02 -0.33628715801E+02  0.16893652006E+03  0.21344717890E+03  0.12509000000E+03 0.  0.
         25    1    3    3    0    0 -0.41863522876E+02  0.48825180371E+02  0.24854047854E+02  0.14283446566E+03  0.12509000000E+03 0.  0.
<mgrwt>
<rscale>  2 0.46099872E+03</rscale>
<asrwt>0</asrwt>
<pdfrwt beam="1">  1       21 0.78194266E-01 0.46099872E+03</pdfrwt>
<pdfrwt beam="2">  1       21 0.14694226E-01 0.46099872E+03</pdfrwt>
<totfact> 0.54161039E+04</totfact>
</mgrwt>
</event>
<event>
 7    0  0.4709932E-002  0.4601599E+03  0.7546771E-02  0.1024735E+00
         21   -1    0    0  502  501  0.00000000000E+00  0.00000000000E+00  0.73417439747E+03  0.73417439747E+03  0.00000000000E+00 0.  1.
         21   -1    0    0  501  502 -0.00000000000E+00 -0.00000000000E+00 -0.72103831626E+02  0.72103831626E+02  0.00000000000E+00 0.  1.
      99926    2    1    2    0    0  0.00000000000E+00  0.00000000000E+00  0.66207056585E+03  0.80627822910E+03  0.46015991629E+03 0.  0.
      99925    2    3    3    0    0  0.44971173914E+02 -0.33336040146E+02  0.59668898849E+03  0.65443634814E+03  0.26289824405E+03 0.  0.
         25    1    3    3    0    0 -0.44971173914E+02  0.33336040146E+02  0.65381577356E+02  0.15184188096E+03  0.12509000000E+03 0.  0.
         25    1    4    4    0    0  0.25438040486E+02 -0.17549150561E+02  0.39774721282E+03  0.41809738099E+03  0.12509000000E+03 0.  0.
         25    1    4    4    0    0  0.19533133428E+02 -0.15786889585E+02  0.19894177567E+03  0.23633896715E+03  0.12509000000E+03 0.  0.
<mgrwt>
<rscale>  2 0.46015992E+03</rscale>
<asrwt>0</asrwt>
<pdfrwt beam="1">  1       21 0.10796682E+00 0.46015992E+03</pdfrwt>
<pdfrwt beam="2">  1       21 0.10603505E-01 0.46015992E+03</pdfrwt>
<totfact> 0.45588445E+04</totfact>
</mgrwt>
</event>
<event>
 7    0  0.4709932E-002  0.4574164E+03  0.7546771E-02  0.1025533E+00
         21   -1    0    0  502  501  0.00000000000E+00  0.00000000000E+00  0.56085894305E+03  0.56085894305E+03  0.00000000000E+00 0. -1.
         21   -1    0    0  501  502 -0.00000000000E+00 -0.00000000000E+00 -0.93263082863E+02  0.93263082863E+02  0.00000000000E+00 0. -1.
      99926    2    1    2    0    0  0.00000000000E+00  0.00000000000E+00  0.46759586019E+03  0.65412202591E+03  0.45741637085E+03 0.  0.
      99925    2    3    3    0    0  0.67945005863E+02 -0.78530856615E+02  0.22309972617E+03  0.36050750497E+03  0.26345503232E+03 0.  0.
         25    1    4    4    0    0  0.38296924902E+02 -0.65042549854E+01  0.13834346522E+03  0.19051347002E+03  0.12509000000E+03 0.  0.
         25    1    3    3    0    0 -0.67945005863E+02  0.78530856615E+02  0.24449613402E+03  0.29361452095E+03  0.12509000000E+03 0.  0.
         25    1    4    4    0    0  0.29648080960E+02 -0.72026601630E+02  0.84756260951E+02  0.16999403495E+03  0.12509000000E+03 0.  0.
<mgrwt>
<rscale>  2 0.45741637E+03</rscale>
<asrwt>0</asrwt>
<pdfrwt beam="1">  1       21 0.82479254E-01 0.45741637E+03</pdfrwt>
<pdfrwt beam="2">  1       21 0.13715160E-01 0.45741637E+03</pdfrwt>
<totfact> 0.54419937E+04</totfact>
</mgrwt>
</event>
<event>
 7    0  0.4709932E-002  0.4595788E+03  0.7546771E-02  0.1024903E+00
         21   -1    0    0  502  501  0.00000000000E+00  0.00000000000E+00  0.17802123080E+03  0.17802123080E+03  0.00000000000E+00 0.  1.
         21   -1    0    0  501  502 -0.00000000000E+00 -0.00000000000E+00 -0.29661158642E+03  0.29661158642E+03  0.00000000000E+00 0.  1.
      99926    2    1    2    0    0 -0.35527136788E-14  0.00000000000E+00 -0.11859035562E+03  0.47463281722E+03  0.45957876228E+03 0.  0.
      99925    2    3    3    0    0  0.23088601546E+02 -0.36512398450E+02  0.38469481382E+02  0.26925136903E+03  0.26296418000E+03 0.  0.
         25    1    4    4    0    0 -0.12524698080E+02  0.56493845706E+01 -0.45341010594E+01  0.12592398414E+03  0.12509000000E+03 0.  0.
         25    1    4    4    0    0  0.35613299626E+02 -0.42161783021E+02  0.43003582441E+02  0.14332738489E+03  0.12509000000E+03 0.  0.
         25    1    3    3    0    0 -0.23088601546E+02  0.36512398450E+02 -0.15705983700E+03  0.20538144819E+03  0.12509000000E+03 0.  0.
<mgrwt>
<rscale>  2 0.45957876E+03</rscale>
<asrwt>0</asrwt>
<pdfrwt beam="1">  1       21 0.26179593E-01 0.45957876E+03</pdfrwt>
<pdfrwt beam="2">  1       21 0.43619350E-01 0.45957876E+03</pdfrwt>
<totfact> 0.64709954E+04</totfact>
</mgrwt>
</event>
<event>
 7    0  0.4709932E-002  0.4559492E+03  0.7546771E-02  0.1025963E+00
         21   -1    0    0  502  501  0.00000000000E+00  0.00000000000E+00  0.55331266080E+03  0.55331266080E+03  0.00000000000E+00 0. -1.
         21   -1    0    0  501  502 -0.00000000000E+00 -0.00000000000E+00 -0.93929560882E+02  0.93929560882E+02  0.00000000000E+00 0. -1.
      99926    2    1    2    0    0  0.35527136788E-14  0.00000000000E+00  0.45938309992E+03  0.64724222169E+03  0.45594918691E+03 0.  0.
      99925    2    3    3    0    0  0.17446645382E+02 -0.11172781463E+03  0.26763270301E+03  0.39189302389E+03  0.26299313386E+03 0.  0.
         25    1    4    4    0    0  0.42776133961E+01 -0.43609493465E+02  0.18210090659E+03  0.22522951444E+03  0.12509000000E+03 0.  0.
         25    1    3    3    0    0 -0.17446645382E+02  0.11172781463E+03  0.19175039691E+03  0.25534919779E+03  0.12509000000E+03 0.  0.
         25    1    4    4    0    0  0.13169031986E+02 -0.68118321170E+02  0.85531796422E+02  0.16666350945E+03  0.12509000000E+03 0.  0.
<mgrwt>
<rscale>  2 0.45594919E+03</rscale>
<asrwt>0</asrwt>
<pdfrwt beam="1">  1       21 0.81369508E-01 0.45594919E+03</pdfrwt>
<pdfrwt beam="2">  1       21 0.13813171E-01 0.45594919E+03</pdfrwt>
<totfact> 0.55444264E+04</totfact>
</mgrwt>
</event>
<event>
 7    0  0.4709932E-002  0.4155602E+03  0.7546771E-02  0.1038521E+00
         21   -1    0    0  502  501  0.00000000000E+00  0.00000000000E+00  0.32222319697E+03  0.32222319697E+03  0.00000000000E+00 0. -1.
         21   -1    0    0  501  502 -0.00000000000E+00 -0.00000000000E+00 -0.13398340148E+03  0.13398340148E+03  0.00000000000E+00 0. -1.
      99926    2    1    2    0    0  0.00000000000E+00  0.35527136788E-14  0.18823979550E+03  0.45620659845E+03  0.41556015192E+03 0.  0.
      99925    2    3    3    0    0 -0.66046464018E+02 -0.23071283671E+02  0.11767345821E+03  0.29645198788E+03  0.26294927042E+03 0.  0.
         25    1    4    4    0    0 -0.34806288962E+02  0.28930852626E+02  0.54795541653E+02  0.14386984211E+03  0.12509000000E+03 0.  0.
         25    1    3    3    0    0  0.66046464018E+02  0.23071283671E+02  0.70566337284E+02  0.15975461057E+03  0.12509000000E+03 0.  0.
         25    1    4    4    0    0 -0.31240175056E+02 -0.52002136297E+02  0.62877916558E+02  0.15258214577E+03  0.12509000000E+03 0.  0.
<mgrwt>
<rscale>  2 0.41556015E+03</rscale>
<asrwt>0</asrwt>
<pdfrwt beam="1">  1       21 0.47385764E-01 0.41556015E+03</pdfrwt>
<pdfrwt beam="2">  1       21 0.19703442E-01 0.41556015E+03</pdfrwt>
<totfact> 0.94872220E+04</totfact>
</mgrwt>
</event>
<event>
 7    0  0.4709932E-002  0.4594160E+03  0.7546771E-02  0.1024951E+00
         21   -1    0    0  502  501  0.00000000000E+00  0.00000000000E+00  0.14803571603E+04  0.14803571603E+04  0.00000000000E+00 0. -1.
         21   -1    0    0  501  502 -0.00000000000E+00 -0.00000000000E+00 -0.35643940568E+02  0.35643940568E+02  0.00000000000E+00 0. -1.
      99926    2    1    2    0    0  0.00000000000E+00  0.00000000000E+00  0.14447132197E+04  0.15160011009E+04  0.45941598858E+03 0.  0.
      99925    2    3    3    0    0 -0.95667694558E+02 -0.66654432761E+02  0.86903725911E+03  0.91546347430E+03  0.26315868570E+03 0.  0.
         25    1    4    4    0    0 -0.63914455211E+02 -0.51292881863E+02  0.35421149975E+03  0.38448577603E+03  0.12509000000E+03 0.  0.
         25    1    3    3    0    0  0.95667694558E+02  0.66654432761E+02  0.57567596061E+03  0.60053762656E+03  0.12509000000E+03 0.  0.
         25    1    4    4    0    0 -0.31753239347E+02 -0.15361550899E+02  0.51482575936E+03  0.53097769827E+03  0.12509000000E+03 0.  0.
<mgrwt>
<rscale>  2 0.45941599E+03</rscale>
<asrwt>0</asrwt>
<pdfrwt beam="1">  1       21 0.21769954E+00 0.45941599E+03</pdfrwt>
<pdfrwt beam="2">  1       21 0.52417570E-02 0.45941599E+03</pdfrwt>
<totfact> 0.22604377E+04</totfact>
</mgrwt>
</event>
<event>
 7    0  0.4709932E-002  0.4537141E+03  0.7546771E-02  0.1026620E+00
         21   -1    0    0  502  501  0.00000000000E+00  0.00000000000E+00  0.37966190545E+03  0.37966190545E+03  0.00000000000E+00 0. -1.
         21   -1    0    0  501  502 -0.00000000000E+00 -0.00000000000E+00 -0.13555249091E+03  0.13555249091E+03  0.00000000000E+00 0. -1.
      99926    2    1    2    0    0  0.00000000000E+00 -0.13322676296E-14  0.24410941454E+03  0.51521439637E+03  0.45371408172E+03 0.  0.
      99925    2    3    3    0    0 -0.99192916882E+02  0.38796621817E+01  0.21262306874E+03  0.35244712505E+03  0.26297551228E+03 0.  0.
         25    1    4    4    0    0 -0.20815283590E+02  0.31970626157E+02  0.10207080493E+03  0.16589561262E+03  0.12509000000E+03 0.  0.
         25    1    3    3    0    0  0.99192916882E+02 -0.38796621817E+01  0.31486345805E+02  0.16276727131E+03  0.12509000000E+03 0.  0.
         25    1    4    4    0    0 -0.78377633292E+02 -0.28090963976E+02  0.11055226381E+03  0.18655151243E+03  0.12509000000E+03 0.  0.
<mgrwt>
<rscale>  2 0.45371408E+03</rscale>
<asrwt>0</asrwt>
<pdfrwt beam="1">  1       21 0.55832633E-01 0.45371408E+03</pdfrwt>
<pdfrwt beam="2">  1       21 0.19934190E-01 0.45371408E+03</pdfrwt>
<totfact> 0.64873911E+04</totfact>
</mgrwt>
</event>
<event>
 7    0  0.4709932E-002  0.4570230E+03  0.7546771E-02  0.1025648E+00
         21   -1    0    0  502  501  0.00000000000E+00  0.00000000000E+00  0.64806864257E+03  0.64806864257E+03  0.00000000000E+00 0.  1.
         21   -1    0    0  501  502 -0.00000000000E+00 -0.00000000000E+00 -0.80574029538E+02  0.80574029538E+02  0.00000000000E+00 0.  1.
      99926    2    1    2    0    0  0.00000000000E+00 -0.71054273576E-14  0.56749461303E+03  0.72864267211E+03  0.45702298388E+03 0.  0.
      99925    2    3    3    0    0 -0.22221739372E+02  0.50168567242E+02  0.19520405334E+03  0.33208440429E+03  0.26299189777E+03 0.  0.
         25    1    4    4    0    0 -0.35618851808E+01 -0.12182968902E+01  0.13118441383E+03  0.18130369496E+03  0.12509000000E+03 0.  0.
         25    1    3    3    0    0  0.22221739372E+02 -0.50168567242E+02  0.37229055969E+03  0.39655826782E+03  0.12509000000E+03 0.  0.
         25    1    4    4    0    0 -0.18659854191E+02  0.51386864132E+02  0.64019639510E+02  0.15078070933E+03  0.12509000000E+03 0.  0.
<mgrwt>
<rscale>  2 0.45702298E+03</rscale>
<asrwt>0</asrwt>
<pdfrwt beam="1">  1       21 0.95304209E-01 0.45702298E+03</pdfrwt>
<pdfrwt beam="2">  1       21 0.11849122E-01 0.45702298E+03</pdfrwt>
<totfact> 0.50566083E+04</totfact>
</mgrwt>
</event>
<event>
 7    0  0.4709932E-002  0.4634569E+03  0.7546771E-02  0.1023783E+00
         21   -1    0    0  502  501  0.00000000000E+00  0.00000000000E+00  0.28371874303E+03  0.28371874303E+03  0.00000000000E+00 0.  1.
         21   -1    0    0  501  502 -0.00000000000E+00 -0.00000000000E+00 -0.18926517076E+03  0.18926517076E+03  0.00000000000E+00 0.  1.
      99926    2    1    2    0    0  0.00000000000E+00  0.14210854715E-13  0.94453572278E+02  0.47298391379E+03  0.46345690780E+03 0.  0.
      99925    2    3    3    0    0 -0.48099618034E+02  0.11073968769E+03  0.44185525671E+02  0.29201088736E+03  0.26218532753E+03 0.  0.
         25    1    3    3    0    0  0.48099618034E+02 -0.11073968769E+03  0.50268046607E+02  0.18097302643E+03  0.12509000000E+03 0.  0.
         25    1    4    4    0    0 -0.36633460692E+02  0.54071181818E+02 -0.15247665028E+02  0.14193555768E+03  0.12509000000E+03 0.  0.
         25    1    4    4    0    0 -0.11466157342E+02  0.56668505873E+02  0.59433190699E+02  0.15007532968E+03  0.12509000000E+03 0.  0.
<mgrwt>
<rscale>  2 0.46345691E+03</rscale>
<asrwt>0</asrwt>
<pdfrwt beam="1">  1       21 0.41723345E-01 0.46345691E+03</pdfrwt>
<pdfrwt beam="2">  1       21 0.27833113E-01 0.46345691E+03</pdfrwt>
<totfact> 0.62886600E+04</totfact>
</mgrwt>
</event>
<event>
 7    0  0.4709932E-002  0.4552090E+03  0.7546771E-02  0.1026180E+00
         21   -1    0    0  502  501  0.00000000000E+00  0.00000000000E+00  0.11636941516E+04  0.11636941516E+04  0.00000000000E+00 0.  1.
         21   -1    0    0  501  502 -0.00000000000E+00 -0.00000000000E+00 -0.44516680431E+02  0.44516680431E+02  0.00000000000E+00 0.  1.
      99926    2    1    2    0    0  0.71054273576E-14  0.00000000000E+00  0.11191774712E+04  0.12082108321E+04  0.45520896594E+03 0.  0.
      99925    2    3    3    0    0  0.44414847982E+02  0.34183230979E+02  0.96566287173E+03  0.10024065261E+04  0.26300739484E+03 0.  0.
         25    1    3    3    0    0 -0.44414847982E+02 -0.34183230979E+02  0.15351459948E+03  0.20580430597E+03  0.12509000000E+03 0.  0.
         25    1    4    4    0    0 -0.99106562632E+01  0.18336901578E+01  0.53445744005E+03  0.54899348525E+03  0.12509000000E+03 0.  0.
         25    1    4    4    0    0  0.54325504245E+02  0.32349540821E+02  0.43120543168E+03  0.45341304085E+03  0.12509000000E+03 0.  0.
<mgrwt>
<rscale>  2 0.45520897E+03</rscale>
<asrwt>0</asrwt>
<pdfrwt beam="1">  1       21 0.17113147E+00 0.45520897E+03</pdfrwt>
<pdfrwt beam="2">  1       21 0.65465714E-02 0.45520897E+03</pdfrwt>
<totfact> 0.31844930E+04</totfact>
</mgrwt>
</event>
<event>
 7    0  0.4709932E-002  0.4496298E+03  0.7546771E-02  0.1027832E+00
         21   -1    0    0  502  501  0.00000000000E+00  0.00000000000E+00  0.11831295176E+03  0.11831295176E+03  0.00000000000E+00 0. -1.
         21   -1    0    0  501  502 -0.00000000000E+00 -0.00000000000E+00 -0.42718686351E+03  0.42718686351E+03  0.00000000000E+00 0. -1.
      99926    2    1    2    0    0  0.00000000000E+00  0.00000000000E+00 -0.30887391175E+03  0.54549981526E+03  0.44962979783E+03 0.  0.
      99925    2    3    3    0    0 -0.22150413858E+02  0.10604792764E+03 -0.19719709687E+03  0.34586008256E+03  0.26267032171E+03 0.  0.
         25    1    4    4    0    0 -0.18032818388E+02  0.95668234382E+02 -0.11283903372E+03  0.19457067929E+03  0.12509000000E+03 0.  0.
         25    1    4    4    0    0 -0.41175954699E+01  0.10379693256E+02 -0.84358063145E+02  0.15128940327E+03  0.12509000000E+03 0.  0.
         25    1    3    3    0    0  0.22150413858E+02 -0.10604792764E+03 -0.11167681488E+03  0.19963973270E+03  0.12509000000E+03 0.  0.
<mgrwt>
<rscale>  2 0.44962980E+03</rscale>
<asrwt>0</asrwt>
<pdfrwt beam="1">  1       21 0.17398964E-01 0.44962980E+03</pdfrwt>
<pdfrwt beam="2">  1       21 0.62821597E-01 0.44962980E+03</pdfrwt>
<totfact> 0.64878096E+04</totfact>
</mgrwt>
</event>
<event>
 7    0  0.4709932E-002  0.4333281E+03  0.7546771E-02  0.1032814E+00
         21   -1    0    0  502  501  0.00000000000E+00  0.00000000000E+00  0.51519697394E+02  0.51519697394E+02  0.00000000000E+00 0. -1.
         21   -1    0    0  501  502 -0.00000000000E+00 -0.00000000000E+00 -0.91117230284E+03  0.91117230284E+03  0.00000000000E+00 0. -1.
      99926    2    1    2    0    0  0.00000000000E+00  0.00000000000E+00 -0.85965260545E+03  0.96269200023E+03  0.43332814963E+03 0.  0.
      99925    2    3    3    0    0 -0.17715893156E+02  0.56670800893E+02 -0.70675293761E+03  0.75641245915E+03  0.26293470862E+03 0.  0.
         25    1    3    3    0    0  0.17715893156E+02 -0.56670800893E+02 -0.15289966784E+03  0.20627954108E+03  0.12509000000E+03 0.  0.
         25    1    4    4    0    0 -0.39623150701E+02  0.13962718661E+02 -0.41249597939E+03  0.43308820429E+03  0.12509000000E+03 0.  0.
         25    1    4    4    0    0  0.21907257545E+02  0.42708082231E+02 -0.29425695822E+03  0.32332425487E+03  0.12509000000E+03 0.  0.
<mgrwt>
<rscale>  2 0.43332815E+03</rscale>
<asrwt>0</asrwt>
<pdfrwt beam="1">  1       21 0.75764257E-02 0.43332815E+03</pdfrwt>
<pdfrwt beam="2">  1       21 0.13399593E+00 0.43332815E+03</pdfrwt>
<totfact> 0.48312358E+04</totfact>
</mgrwt>
</event>
<event>
 7    0  0.4709932E-002  0.4473297E+03  0.7546771E-02  0.1028521E+00
         21   -1    0    0  502  501  0.00000000000E+00  0.00000000000E+00  0.75401711723E+03  0.75401711723E+03  0.00000000000E+00 0. -1.
         21   -1    0    0  501  502 -0.00000000000E+00 -0.00000000000E+00 -0.66345919566E+02  0.66345919566E+02  0.00000000000E+00 0. -1.
      99926    2    1    2    0    0  0.71054273576E-14  0.00000000000E+00  0.68767119767E+03  0.82036303680E+03  0.44732967266E+03 0.  0.
      99925    2    3    3    0    0 -0.32488558342E+02 -0.90150670187E+02  0.51848687943E+03  0.58916292565E+03  0.26287194422E+03 0.  0.
         25    1    4    4    0    0  0.83659269618E+01 -0.66411434613E+02  0.21583753753E+03  0.25829018195E+03  0.12509000000E+03 0.  0.
         25    1    3    3    0    0  0.32488558342E+02  0.90150670187E+02  0.16918431824E+03  0.23120011115E+03  0.12509000000E+03 0.  0.
         25    1    4    4    0    0 -0.40854485304E+02 -0.23739235574E+02  0.30264934189E+03  0.33087274370E+03  0.12509000000E+03 0.  0.
<mgrwt>
<rscale>  2 0.44732967E+03</rscale>
<asrwt>0</asrwt>
<pdfrwt beam="1">  1       21 0.11088487E+00 0.44732967E+03</pdfrwt>
<pdfrwt beam="2">  1       21 0.97567533E-02 0.44732967E+03</pdfrwt>
<totfact> 0.49721271E+04</totfact>
</mgrwt>
</event>
<event>
 7    0  0.4709932E-002  0.4607865E+03  0.7546771E-02  0.1024553E+00
         21   -1    0    0  502  501  0.00000000000E+00  0.00000000000E+00  0.24625578815E+03  0.24625578815E+03  0.00000000000E+00 0. -1.
         21   -1    0    0  501  502 -0.00000000000E+00 -0.00000000000E+00 -0.21555253107E+03  0.21555253107E+03  0.00000000000E+00 0. -1.
      99926    2    1    2    0    0 -0.17763568394E-14 -0.14210854715E-13  0.30703257073E+02  0.46180831922E+03  0.46078653812E+03 0.  0.
      99925    2    3    3    0    0  0.10081850857E+02  0.99449288443E+02  0.83391348601E+02  0.29323979376E+03  0.26276159334E+03 0.  0.
         25    1    3    3    0    0 -0.10081850857E+02 -0.99449288443E+02 -0.52688091527E+02  0.16856852546E+03  0.12509000000E+03 0.  0.
         25    1    4    4    0    0 -0.75007635969E+01  0.17985079565E+02  0.13001787963E+02  0.12726460282E+03  0.12509000000E+03 0.  0.
         25    1    4    4    0    0  0.17582614454E+02  0.81464208878E+02  0.70389560637E+02  0.16597519093E+03  0.12509000000E+03 0.  0.
<mgrwt>
<rscale>  2 0.46078654E+03</rscale>
<asrwt>0</asrwt>
<pdfrwt beam="1">  1       21 0.36214087E-01 0.46078654E+03</pdfrwt>
<pdfrwt beam="2">  1       21 0.31698901E-01 0.46078654E+03</pdfrwt>
<totfact> 0.64996799E+04</totfact>
</mgrwt>
</event>
<event>
 7    0  0.4709932E-002  0.4574734E+03  0.7546771E-02  0.1025517E+00
         21   -1    0    0  502  501  0.00000000000E+00  0.00000000000E+00  0.43937882611E+03  0.43937882611E+03  0.00000000000E+00 0. -1.
         21   -1    0    0  501  502 -0.00000000000E+00 -0.00000000000E+00 -0.11907826574E+03  0.11907826574E+03  0.00000000000E+00 0. -1.
      99926    2    1    2    0    0 -0.14210854715E-13 -0.14210854715E-13  0.32030056037E+03  0.55845709185E+03  0.45747335930E+03 0.  0.
      99925    2    3    3    0    0  0.64334025004E+02  0.90357110254E+02  0.24018388497E+03  0.37306705997E+03  0.26303508983E+03 0.  0.
         25    1    4    4    0    0 -0.14172920604E+01  0.17408115348E+02  0.10080461612E+03  0.16159866932E+03  0.12509000000E+03 0.  0.
         25    1    4    4    0    0  0.65751317065E+02  0.72948994906E+02  0.13937926886E+03  0.21146839064E+03  0.12509000000E+03 0.  0.
         25    1    3    3    0    0 -0.64334025004E+02 -0.90357110254E+02  0.80116675397E+02  0.18539003189E+03  0.12509000000E+03 0.  0.
<mgrwt>
<rscale>  2 0.45747336E+03</rscale>
<asrwt>0</asrwt>
<pdfrwt beam="1">  1       21 0.64614533E-01 0.45747336E+03</pdfrwt>
<pdfrwt beam="2">  1       21 0.17511510E-01 0.45747336E+03</pdfrwt>
<totfact> 0.60126074E+04</totfact>
</mgrwt>
</event>
<event>
 7    0  0.4709932E-002  0.4540707E+03  0.7546771E-02  0.1026515E+00
         21   -1    0    0  502  501  0.00000000000E+00  0.00000000000E+00  0.53889117806E+03  0.53889117806E+03  0.00000000000E+00 0.  1.
         21   -1    0    0  501  502 -0.00000000000E+00 -0.00000000000E+00 -0.95650213496E+02  0.95650213496E+02  0.00000000000E+00 0.  1.
      99926    2    1    2    0    0 -0.17763568394E-14  0.00000000000E+00  0.44324096456E+03  0.63454139155E+03  0.45407072679E+03 0.  0.
      99925    2    3    3    0    0  0.41605152537E+01  0.11188203063E+03  0.28128313199E+03  0.40127599271E+03  0.26337677065E+03 0.  0.
         25    1    3    3    0    0 -0.41605152537E+01 -0.11188203063E+03  0.16195783257E+03  0.23326539884E+03  0.12509000000E+03 0.  0.
         25    1    4    4    0    0 -0.99327539244E+01  0.32815075830E+02  0.17809072770E+03  0.22031637296E+03  0.12509000000E+03 0.  0.
         25    1    4    4    0    0  0.14093269178E+02  0.79066954800E+02  0.10319240429E+03  0.18095961975E+03  0.12509000000E+03 0.  0.
<mgrwt>
<rscale>  2 0.45407073E+03</rscale>
<asrwt>0</asrwt>
<pdfrwt beam="1">  1       21 0.79248702E-01 0.45407073E+03</pdfrwt>
<pdfrwt beam="2">  1       21 0.14066208E-01 0.45407073E+03</pdfrwt>
<totfact> 0.57018022E+04</totfact>
</mgrwt>
</event>
<event>
 7    0  0.4709932E-002  0.4534999E+03  0.7546771E-02  0.1026683E+00
         21   -1    0    0  502  501  0.00000000000E+00  0.00000000000E+00  0.13147194671E+03  0.13147194671E+03  0.00000000000E+00 0.  1.
         21   -1    0    0  501  502 -0.00000000000E+00 -0.00000000000E+00 -0.39107608138E+03  0.39107608138E+03  0.00000000000E+00 0.  1.
      99926    2    1    2    0    0 -0.14210854715E-13  0.00000000000E+00 -0.25960413467E+03  0.52254802810E+03  0.45349987313E+03 0.  0.
      99925    2    3    3    0    0 -0.66026947597E+02  0.38203478242E+02 -0.67672201907E+02  0.28108490778E+03  0.26193536400E+03 0.  0.
         25    1    4    4    0    0  0.29205306843E+01  0.88115190932E+00 -0.34015198189E+02  0.12966822177E+03  0.12509000000E+03 0.  0.
         25    1    3    3    0    0  0.66026947597E+02 -0.38203478242E+02 -0.19193193276E+03  0.24146312032E+03  0.12509000000E+03 0.  0.
         25    1    4    4    0    0 -0.68947478281E+02  0.37322326332E+02 -0.33657003718E+02  0.15141668601E+03  0.12509000000E+03 0.  0.
<mgrwt>
<rscale>  2 0.45349987E+03</rscale>
<asrwt>0</asrwt>
<pdfrwt beam="1">  1       21 0.19334110E-01 0.45349987E+03</pdfrwt>
<pdfrwt beam="2">  1       21 0.57511188E-01 0.45349987E+03</pdfrwt>
<totfact> 0.64477147E+04</totfact>
</mgrwt>
</event>
<event>
 7    0  0.4709932E-002  0.4468013E+03  0.7546771E-02  0.1028680E+00
         21   -1    0    0  502  501  0.00000000000E+00  0.00000000000E+00  0.88031863477E+02  0.88031863477E+02  0.00000000000E+00 0.  1.
         21   -1    0    0  501  502 -0.00000000000E+00 -0.00000000000E+00 -0.56692934060E+03  0.56692934060E+03  0.00000000000E+00 0.  1.
      99926    2    1    2    0    0  0.00000000000E+00  0.00000000000E+00 -0.47889747712E+03  0.65496120407E+03  0.44680128161E+03 0.  0.
      99925    2    3    3    0    0  0.48327645537E+02 -0.56633845772E+02 -0.41282248652E+03  0.49509761756E+03  0.26297583867E+03 0.  0.
         25    1    4    4    0    0 -0.49320338760E+01  0.76330426129E+00 -0.20513406634E+03  0.24031729206E+03  0.12509000000E+03 0.  0.
         25    1    4    4    0    0  0.53259679413E+02 -0.57397150033E+02 -0.20768842018E+03  0.25478032550E+03  0.12509000000E+03 0.  0.
         25    1    3    3    0    0 -0.48327645537E+02  0.56633845772E+02 -0.66074990597E+02  0.15986358651E+03  0.12509000000E+03 0.  0.
<mgrwt>
<rscale>  2 0.44680128E+03</rscale>
<asrwt>0</asrwt>
<pdfrwt beam="1">  1       21 0.12945862E-01 0.44680128E+03</pdfrwt>
<pdfrwt beam="2">  1       21 0.83371964E-01 0.44680128E+03</pdfrwt>
<totfact> 0.59149391E+04</totfact>
</mgrwt>
</event>
<event>
 7    0  0.4709932E-002  0.4613018E+03  0.7546771E-02  0.1024404E+00
         21   -1    0    0  502  501  0.00000000000E+00  0.00000000000E+00  0.31423915522E+03  0.31423915522E+03  0.00000000000E+00 0.  1.
         21   -1    0    0  501  502 -0.00000000000E+00 -0.00000000000E+00 -0.16929729383E+03  0.16929729383E+03  0.00000000000E+00 0.  1.
      99926    2    1    2    0    0  0.71054273576E-14 -0.14210854715E-13  0.14494186139E+03  0.48353644905E+03  0.46130180401E+03 0.  0.
      99925    2    3    3    0    0 -0.34428686914E+02  0.11042705153E+03  0.61265427877E+02  0.29372411590E+03  0.26294663986E+03 0.  0.
         25    1    3    3    0    0  0.34428686914E+02 -0.11042705153E+03  0.83676433516E+02  0.18981233316E+03  0.12509000000E+03 0.  0.
         25    1    4    4    0    0 -0.23930238447E+02  0.79144873142E+02 -0.14526859634E+01  0.14995394511E+03  0.12509000000E+03 0.  0.
         25    1    4    4    0    0 -0.10498448467E+02  0.31282178390E+02  0.62718113840E+02  0.14377017079E+03  0.12509000000E+03 0.  0.
<mgrwt>
<rscale>  2 0.46130180E+03</rscale>
<asrwt>0</asrwt>
<pdfrwt beam="1">  1       21 0.46211640E-01 0.46130180E+03</pdfrwt>
<pdfrwt beam="2">  1       21 0.24896661E-01 0.46130180E+03</pdfrwt>
<totfact> 0.63221552E+04</totfact>
</mgrwt>
</event>
<event>
 7    0  0.4709932E-002  0.4470471E+03  0.7546771E-02  0.1028606E+00
         21   -1    0    0  502  501  0.00000000000E+00  0.00000000000E+00  0.18633325034E+03  0.18633325034E+03  0.00000000000E+00 0. -1.
         21   -1    0    0  501  502 -0.00000000000E+00 -0.00000000000E+00 -0.26813669737E+03  0.26813669737E+03  0.00000000000E+00 0. -1.
      99926    2    1    2    0    0  0.35527136788E-14  0.00000000000E+00 -0.81803447026E+02  0.45446994771E+03  0.44704712216E+03 0.  0.
      99925    2    3    3    0    0 -0.25802206383E+02 -0.52302943295E+02  0.37472220540E+02  0.27205409120E+03  0.26307396203E+03 0.  0.
         25    1    3    3    0    0  0.25802206383E+02  0.52302943295E+02 -0.11927566757E+03  0.18241585651E+03  0.12509000000E+03 0.  0.
         25    1    4    4    0    0 -0.30838637761E+02 -0.80637476195E+00  0.45014256672E+02  0.13647513775E+03  0.12509000000E+03 0.  0.
         25    1    4    4    0    0  0.50364313776E+01 -0.51496568533E+02 -0.75420361320E+01  0.13557895346E+03  0.12509000000E+03 0.  0.
<mgrwt>
<rscale>  2 0.44704712E+03</rscale>
<asrwt>0</asrwt>
<pdfrwt beam="1">  1       21 0.27401948E-01 0.44704712E+03</pdfrwt>
<pdfrwt beam="2">  1       21 0.39431867E-01 0.44704712E+03</pdfrwt>
<totfact> 0.73113042E+04</totfact>
</mgrwt>
</event>
<event>
 7    0  0.4709932E-002  0.4664994E+03  0.7546771E-02  0.1022913E+00
         21   -1    0    0  502  501  0.00000000000E+00  0.00000000000E+00  0.12220491253E+03  0.12220491253E+03  0.00000000000E+00 0. -1.
         21   -1    0    0  501  502 -0.00000000000E+00 -0.00000000000E+00 -0.44519826968E+03  0.44519826968E+03  0.00000000000E+00 0. -1.
      99926    2    1    2    0    0  0.00000000000E+00  0.14210854715E-13 -0.32299335714E+03  0.56740318221E+03  0.46649937023E+03 0.  0.
      99925    2    3    3    0    0  0.83586953157E+02 -0.74240671683E+02 -0.26538490694E+03  0.39002026955E+03  0.26303651031E+03 0.  0.
         25    1    4    4    0    0  0.53147017831E+02 -0.12002730282E+02 -0.88778519030E+02  0.16278146264E+03  0.12509000000E+03 0.  0.
         25    1    4    4    0    0  0.30439935326E+02 -0.62237941400E+02 -0.17660638791E+03  0.22723880691E+03  0.12509000000E+03 0.  0.
         25    1    3    3    0    0 -0.83586953157E+02  0.74240671683E+02 -0.57608450196E+02  0.17738291266E+03  0.12509000000E+03 0.  0.
<mgrwt>
<rscale>  2 0.46649937E+03</rscale>
<asrwt>0</asrwt>
<pdfrwt beam="1">  1       21 0.17971311E-01 0.46649937E+03</pdfrwt>
<pdfrwt beam="2">  1       21 0.65470334E-01 0.46649937E+03</pdfrwt>
<totfact> 0.55507912E+04</totfact>
</mgrwt>
</event>
<event>
 7    0  0.4709932E-002  0.4597378E+03  0.7546771E-02  0.1024857E+00
         21   -1    0    0  502  501  0.00000000000E+00  0.00000000000E+00  0.54152241881E+02  0.54152241881E+02  0.00000000000E+00 0. -1.
         21   -1    0    0  501  502 -0.00000000000E+00 -0.00000000000E+00 -0.97576226703E+03  0.97576226703E+03  0.00000000000E+00 0. -1.
      99926    2    1    2    0    0 -0.33306690739E-14 -0.14210854715E-13 -0.92161002515E+03  0.10299145089E+04  0.45973781355E+03 0.  0.
      99925    2    3    3    0    0 -0.12916180857E+01 -0.97606587482E+02 -0.72370162200E+03  0.77625339969E+03  0.26324245220E+03 0.  0.
         25    1    4    4    0    0  0.37354080583E+02 -0.56536914824E+02 -0.40533794615E+03  0.42957899013E+03  0.12509000000E+03 0.  0.
         25    1    3    3    0    0  0.12916180857E+01  0.97606587482E+02 -0.19790840315E+03  0.25366110923E+03  0.12509000000E+03 0.  0.
         25    1    4    4    0    0 -0.38645698668E+02 -0.41069672658E+02 -0.31836367585E+03  0.34667440956E+03  0.12509000000E+03 0.  0.
<mgrwt>
<rscale>  2 0.45973781E+03</rscale>
<asrwt>0</asrwt>
<pdfrwt beam="1">  1       21 0.79635642E-02 0.45973781E+03</pdfrwt>
<pdfrwt beam="2">  1       21 0.14349446E+00 0.45973781E+03</pdfrwt>
<totfact> 0.36648687E+04</totfact>
</mgrwt>
</event>
<event>
 7    0  0.4709932E-002  0.4499761E+03  0.7546771E-02  0.1027729E+00
         21   -1    0    0  502  501  0.00000000000E+00  0.00000000000E+00  0.50993177966E+03  0.50993177966E+03  0.00000000000E+00 0. -1.
         21   -1    0    0  501  502 -0.00000000000E+00 -0.00000000000E+00 -0.99267444014E+02  0.99267444014E+02  0.00000000000E+00 0. -1.
      99926    2    1    2    0    0  0.00000000000E+00  0.00000000000E+00  0.41066433564E+03  0.60919922367E+03  0.44997610776E+03 0.  0.
      99925    2    3    3    0    0  0.64191310524E+02 -0.86010880510E+02  0.23903003805E+03  0.37124074804E+03  0.26299417865E+03 0.  0.
         25    1    3    3    0    0 -0.64191310524E+02  0.86010880510E+02  0.17163429759E+03  0.23795847563E+03  0.12509000000E+03 0.  0.
         25    1    4    4    0    0  0.25828826873E+02 -0.27959303842E+02  0.65343902644E+02  0.14617176431E+03  0.12509000000E+03 0.  0.
         25    1    4    4    0    0  0.38362483651E+02 -0.58051576668E+02  0.17368613541E+03  0.22506898373E+03  0.12509000000E+03 0.  0.
<mgrwt>
<rscale>  2 0.44997611E+03</rscale>
<asrwt>0</asrwt>
<pdfrwt beam="1">  1       21 0.74989966E-01 0.44997611E+03</pdfrwt>
<pdfrwt beam="2">  1       21 0.14598154E-01 0.44997611E+03</pdfrwt>
<totfact> 0.60480126E+04</totfact>
</mgrwt>
</event>
<event>
 7    0  0.4709932E-002  0.4566632E+03  0.7546771E-02  0.1025753E+00
         21   -1    0    0  502  501  0.00000000000E+00  0.00000000000E+00  0.21551596506E+03  0.21551596506E+03  0.00000000000E+00 0. -1.
         21   -1    0    0  501  502 -0.00000000000E+00 -0.00000000000E+00 -0.24190926882E+03  0.24190926882E+03  0.00000000000E+00 0. -1.
      99926    2    1    2    0    0  0.00000000000E+00  0.17763568394E-14 -0.26393303764E+02  0.45742523388E+03  0.45666315606E+03 0.  0.
      99925    2    3    3    0    0  0.19873693500E+02 -0.10232914805E+02  0.96845754004E+02  0.28040814516E+03  0.26220211968E+03 0.  0.
         25    1    3    3    0    0 -0.19873693500E+02  0.10232914805E+02 -0.12323905777E+03  0.17701708872E+03  0.12509000000E+03 0.  0.
         25    1    4    4    0    0  0.31181358911E+02  0.23434599936E+02  0.66234432439E+02  0.14681950061E+03  0.12509000000E+03 0.  0.
         25    1    4    4    0    0 -0.11307665412E+02 -0.33667514740E+02  0.30611321564E+02  0.13358864455E+03  0.12509000000E+03 0.  0.
<mgrwt>
<rscale>  2 0.45666316E+03</rscale>
<asrwt>0</asrwt>
<pdfrwt beam="1">  1       21 0.31693524E-01 0.45666316E+03</pdfrwt>
<pdfrwt beam="2">  1       21 0.35574892E-01 0.45666316E+03</pdfrwt>
<totfact> 0.67468751E+04</totfact>
</mgrwt>
</event>
<event>
 7    0  0.4709932E-002  0.4437241E+03  0.7546771E-02  0.1029610E+00
         21   -1    0    0  502  501  0.00000000000E+00  0.00000000000E+00  0.79163428569E+02  0.79163428569E+02  0.00000000000E+00 0.  1.
         21   -1    0    0  501  502 -0.00000000000E+00 -0.00000000000E+00 -0.62178659218E+03  0.62178659218E+03  0.00000000000E+00 0.  1.
      99926    2    1    2    0    0  0.00000000000E+00  0.00000000000E+00 -0.54262316361E+03  0.70095002075E+03  0.44372405152E+03 0.  0.
      99925    2    3    3    0    0  0.80389924838E+02  0.52906705855E+02 -0.28896869499E+03  0.40220304237E+03  0.26268369014E+03 0.  0.
         25    1    4    4    0    0  0.78090699359E+01  0.22745065547E+02 -0.97755829517E+02  0.16056783577E+03  0.12509000000E+03 0.  0.
         25    1    3    3    0    0 -0.80389924838E+02 -0.52906705855E+02 -0.25365446862E+03  0.29874697838E+03  0.12509000000E+03 0.  0.
         25    1    4    4    0    0  0.72580854902E+02  0.30161640308E+02 -0.19121286547E+03  0.24163520660E+03  0.12509000000E+03 0.  0.
<mgrwt>
<rscale>  2 0.44372405E+03</rscale>
<asrwt>0</asrwt>
<pdfrwt beam="1">  1       21 0.11641681E-01 0.44372405E+03</pdfrwt>
<pdfrwt beam="2">  1       21 0.91439203E-01 0.44372405E+03</pdfrwt>
<totfact> 0.57813205E+04</totfact>
</mgrwt>
</event>
<event>
 7    0  0.4709932E-002  0.4504281E+03  0.7546771E-02  0.1027594E+00
         21   -1    0    0  502  501  0.00000000000E+00  0.00000000000E+00  0.18099370255E+04  0.18099370255E+04  0.00000000000E+00 0.  1.
         21   -1    0    0  501  502 -0.00000000000E+00 -0.00000000000E+00 -0.28023832784E+02  0.28023832784E+02  0.00000000000E+00 0.  1.
      99926    2    1    2    0    0  0.00000000000E+00  0.00000000000E+00  0.17819131927E+04  0.18379608583E+04  0.45042811880E+03 0.  0.
      99925    2    3    3    0    0 -0.38880369580E+02  0.10168765671E+03  0.11289976337E+04  0.11643153299E+04  0.26294955366E+03 0.  0.
         25    1    3    3    0    0  0.38880369580E+02 -0.10168765671E+03  0.65291555904E+03  0.67364552845E+03  0.12509000000E+03 0.  0.
         25    1    4    4    0    0 -0.39275652487E+02  0.26700311848E+02  0.64901715867E+03  0.66266602740E+03  0.12509000000E+03 0.  0.
         25    1    4    4    0    0  0.39528290695E+00  0.74987344860E+02  0.47998047503E+03  0.50164930245E+03  0.12509000000E+03 0.  0.
<mgrwt>
<rscale>  2 0.45042812E+03</rscale>
<asrwt>0</asrwt>
<pdfrwt beam="1">  1       21 0.26616713E+00 0.45042812E+03</pdfrwt>
<pdfrwt beam="2">  1       21 0.41211531E-02 0.45042812E+03</pdfrwt>
<totfact> 0.17141214E+04</totfact>
</mgrwt>
</event>
<event>
 7    0  0.4709932E-002  0.4120985E+03  0.7546771E-02  0.1039669E+00
         21   -1    0    0  502  501  0.00000000000E+00  0.00000000000E+00  0.27319042743E+03  0.27319042743E+03  0.00000000000E+00 0.  1.
         21   -1    0    0  501  502 -0.00000000000E+00 -0.00000000000E+00 -0.15540919179E+03  0.15540919179E+03  0.00000000000E+00 0.  1.
      99926    2    1    2    0    0  0.71054273576E-14 -0.71054273576E-14  0.11778123563E+03  0.42859961922E+03  0.41209854905E+03 0.  0.
      99925    2    3    3    0    0  0.27970168130E+02 -0.59182934965E+02  0.75515093735E+02  0.28122633485E+03  0.26287025684E+03 0.  0.
         25    1    4    4    0    0 -0.44850253410E+01  0.41526479377E+01  0.51050392776E+02  0.13524426287E+03  0.12509000000E+03 0.  0.
         25    1    4    4    0    0  0.32455193471E+02 -0.63335582903E+02  0.24464700960E+02  0.14598207197E+03  0.12509000000E+03 0.  0.
         25    1    3    3    0    0 -0.27970168130E+02  0.59182934965E+02  0.42266141897E+02  0.14737328437E+03  0.12509000000E+03 0.  0.
<mgrwt>
<rscale>  2 0.41209855E+03</rscale>
<asrwt>0</asrwt>
<pdfrwt beam="1">  1       21 0.40175063E-01 0.41209855E+03</pdfrwt>
<pdfrwt beam="2">  1       21 0.22854293E-01 0.41209855E+03</pdfrwt>
<totfact> 0.10082919E+05</totfact>
</mgrwt>
</event>
<event>
 7    0  0.4709932E-002  0.4618251E+03  0.7546771E-02  0.1024253E+00
         21   -1    0    0  502  501  0.00000000000E+00  0.00000000000E+00  0.81961888893E+02  0.81961888893E+02  0.00000000000E+00 0. -1.
         21   -1    0    0  501  502 -0.00000000000E+00 -0.00000000000E+00 -0.65055359431E+03  0.65055359431E+03  0.00000000000E+00 0. -1.
      99926    2    1    2    0    0  0.35527136788E-14  0.00000000000E+00 -0.56859170541E+03  0.73251548320E+03  0.46182508124E+03 0.  0.
      99925    2    3    3    0    0 -0.29448118800E+02 -0.64388646515E+02 -0.20321090637E+03  0.33987859508E+03  0.26307736015E+03 0.  0.
         25    1    3    3    0    0  0.29448118800E+02  0.64388646515E+02 -0.36538079905E+03  0.39263688812E+03  0.12509000000E+03 0.  0.
         25    1    4    4    0    0  0.14069497704E+02 -0.43746897578E+02 -0.68490246800E+02  0.14983378731E+03  0.12509000000E+03 0.  0.
         25    1    4    4    0    0 -0.43517616504E+02 -0.20641748938E+02 -0.13472065957E+03  0.19004480777E+03  0.12509000000E+03 0.  0.
<mgrwt>
<rscale>  2 0.46182508E+03</rscale>
<asrwt>0</asrwt>
<pdfrwt beam="1">  1       21 0.12053219E-01 0.46182508E+03</pdfrwt>
<pdfrwt beam="2">  1       21 0.95669644E-01 0.46182508E+03</pdfrwt>
<totfact> 0.48516310E+04</totfact>
</mgrwt>
</event>
<event>
 7    0  0.4709932E-002  0.4775702E+03  0.7546771E-02  0.1019805E+00
         21   -1    0    0  502  501  0.00000000000E+00  0.00000000000E+00  0.19886323285E+04  0.19886323285E+04  0.00000000000E+00 0.  1.
         21   -1    0    0  501  502 -0.00000000000E+00 -0.00000000000E+00 -0.28672124883E+02  0.28672124883E+02  0.00000000000E+00 0.  1.
      99926    2    1    2    0    0  0.35527136788E-14  0.35527136788E-14  0.19599602036E+04  0.20173044534E+04  0.47757016016E+03 0.  0.
      99925    2    3    3    0    0 -0.31127006704E+02  0.28499468376E+02  0.67549442106E+03  0.72607210988E+03  0.26288188530E+03 0.  0.
         25    1    4    4    0    0 -0.28266612556E+02  0.27485851249E+02  0.24674391301E+03  0.27943611096E+03  0.12509000000E+03 0.  0.
         25    1    3    3    0    0  0.31127006704E+02 -0.28499468376E+02  0.12844657826E+04  0.12912323435E+04  0.12509000000E+03 0.  0.
         25    1    4    4    0    0 -0.28603941478E+01  0.10136171264E+01  0.42875050805E+03  0.44663599892E+03  0.12509000000E+03 0.  0.
<mgrwt>
<rscale>  2 0.47757016E+03</rscale>
<asrwt>0</asrwt>
<pdfrwt beam="1">  1       21 0.29244584E+00 0.47757016E+03</pdfrwt>
<pdfrwt beam="2">  1       21 0.42164903E-02 0.47757016E+03</pdfrwt>
<totfact> 0.11313604E+04</totfact>
</mgrwt>
</event>
<event>
 7    0  0.4709932E-002  0.4559993E+03  0.7546771E-02  0.1025948E+00
         21   -1    0    0  502  501  0.00000000000E+00  0.00000000000E+00  0.24489581290E+03  0.24489581290E+03  0.00000000000E+00 0.  1.
         21   -1    0    0  501  502 -0.00000000000E+00 -0.00000000000E+00 -0.21226920240E+03  0.21226920240E+03  0.00000000000E+00 0.  1.
      99926    2    1    2    0    0  0.14210854715E-13  0.00000000000E+00  0.32626610491E+02  0.45716501530E+03  0.45599929331E+03 0.  0.
      99925    2    3    3    0    0 -0.70587503469E+02 -0.79437111968E+02  0.62331758780E+02  0.29036347352E+03  0.26293126136E+03 0.  0.
         25    1    4    4    0    0 -0.68851292008E+02 -0.23421202943E+02  0.48454877446E+02  0.15259238646E+03  0.12509000000E+03 0.  0.
         25    1    4    4    0    0 -0.17362114615E+01 -0.56015909025E+02  0.13876881334E+02  0.13777108706E+03  0.12509000000E+03 0.  0.
         25    1    3    3    0    0  0.70587503469E+02  0.79437111968E+02 -0.29705148288E+02  0.16680154178E+03  0.12509000000E+03 0.  0.
<mgrwt>
<rscale>  2 0.45599929E+03</rscale>
<asrwt>0</asrwt>
<pdfrwt beam="1">  1       21 0.36014091E-01 0.45599929E+03</pdfrwt>
<pdfrwt beam="2">  1       21 0.31216059E-01 0.45599929E+03</pdfrwt>
<totfact> 0.67844960E+04</totfact>
</mgrwt>
</event>
<event>
 7    0  0.4709932E-002  0.4499082E+03  0.7546771E-02  0.1027749E+00
         21   -1    0    0  502  501  0.00000000000E+00  0.00000000000E+00  0.43890441492E+03  0.43890441492E+03  0.00000000000E+00 0. -1.
         21   -1    0    0  501  502 -0.00000000000E+00 -0.00000000000E+00 -0.11529696136E+03  0.11529696136E+03  0.00000000000E+00 0. -1.
      99926    2    1    2    0    0  0.00000000000E+00  0.00000000000E+00  0.32360745355E+03  0.55420137628E+03  0.44990819228E+03 0.  0.
      99925    2    3    3    0    0 -0.40438795125E+02  0.59838929540E+02  0.10525229149E+03  0.29239519121E+03  0.26306065715E+03 0.  0.
         25    1    4    4    0    0 -0.24012450622E+01  0.16419577102E+02  0.87351974812E+02  0.15347066200E+03  0.12509000000E+03 0.  0.
         25    1    3    3    0    0  0.40438795125E+02 -0.59838929540E+02  0.21835516206E+03  0.26180618507E+03  0.12509000000E+03 0.  0.
         25    1    4    4    0    0 -0.38037550063E+02  0.43419352438E+02  0.17900316677E+02  0.13892452922E+03  0.12509000000E+03 0.  0.
<mgrwt>
<rscale>  2 0.44990819E+03</rscale>
<asrwt>0</asrwt>
<pdfrwt beam="1">  1       21 0.64544766E-01 0.44990819E+03</pdfrwt>
<pdfrwt beam="2">  1       21 0.16955436E-01 0.44990819E+03</pdfrwt>
<totfact> 0.64134363E+04</totfact>
</mgrwt>
</event>
<event>
 7    0  0.4709932E-002  0.4670543E+03  0.7546771E-02  0.1022755E+00
         21   -1    0    0  502  501  0.00000000000E+00  0.00000000000E+00  0.60260564178E+02  0.60260564178E+02  0.00000000000E+00 0.  1.
         21   -1    0    0  501  502 -0.00000000000E+00 -0.00000000000E+00 -0.90498526413E+03  0.90498526413E+03  0.00000000000E+00 0.  1.
      99926    2    1    2    0    0  0.00000000000E+00  0.00000000000E+00 -0.84472469995E+03  0.96524582831E+03  0.46705426918E+03 0.  0.
      99925    2    3    3    0    0  0.48393147647E+02 -0.85590318847E+02 -0.68253805395E+03  0.73804632201E+03  0.26303341789E+03 0.  0.
         25    1    3    3    0    0 -0.48393147647E+02  0.85590318847E+02 -0.16218664600E+03  0.22719950629E+03  0.12509000000E+03 0.  0.
         25    1    4    4    0    0  0.59387107355E+02 -0.22596948248E+02 -0.34544663122E+03  0.37285162425E+03  0.12509000000E+03 0.  0.
         25    1    4    4    0    0 -0.10993959708E+02 -0.62993370599E+02 -0.33709142274E+03  0.36519469776E+03  0.12509000000E+03 0.  0.
<mgrwt>
<rscale>  2 0.46705427E+03</rscale>
<asrwt>0</asrwt>
<pdfrwt beam="1">  1       21 0.88618480E-02 0.46705427E+03</pdfrwt>
<pdfrwt beam="2">  1       21 0.13308606E+00 0.46705427E+03</pdfrwt>
<totfact> 0.36924693E+04</totfact>
</mgrwt>
</event>
<event>
 7    0  0.4709932E-002  0.4502960E+03  0.7546771E-02  0.1027634E+00
         21   -1    0    0  502  501  0.00000000000E+00  0.00000000000E+00  0.17350133010E+03  0.17350133010E+03  0.00000000000E+00 0. -1.
         21   -1    0    0  501  502 -0.00000000000E+00 -0.00000000000E+00 -0.29216855496E+03  0.29216855496E+03  0.00000000000E+00 0. -1.
      99926    2    1    2    0    0 -0.14210854715E-13  0.71054273576E-14 -0.11866722485E+03  0.46566988506E+03  0.45029604884E+03 0.  0.
      99925    2    3    3    0    0 -0.99834993398E+02  0.36648267815E+02 -0.96690078683E+02  0.30001776616E+03  0.26334685732E+03 0.  0.
         25    1    4    4    0    0 -0.36478922072E+02 -0.20874641367E+02 -0.53785349973E+02  0.14250205044E+03  0.12509000000E+03 0.  0.
         25    1    4    4    0    0 -0.63356071326E+02  0.57522909182E+02 -0.42904728710E+02  0.15751571573E+03  0.12509000000E+03 0.  0.
         25    1    3    3    0    0  0.99834993398E+02 -0.36648267815E+02 -0.21977146170E+02  0.16565211890E+03  0.12509000000E+03 0.  0.
<mgrwt>
<rscale>  2 0.45029605E+03</rscale>
<asrwt>0</asrwt>
<pdfrwt beam="1">  1       21 0.25514902E-01 0.45029605E+03</pdfrwt>
<pdfrwt beam="2">  1       21 0.42965964E-01 0.45029605E+03</pdfrwt>
<totfact> 0.70347780E+04</totfact>
</mgrwt>
</event>
<event>
 7    0  0.4709932E-002  0.4572774E+03  0.7546771E-02  0.1025574E+00
         21   -1    0    0  502  501  0.00000000000E+00  0.00000000000E+00  0.19475133337E+03  0.19475133337E+03  0.00000000000E+00 0. -1.
         21   -1    0    0  501  502 -0.00000000000E+00 -0.00000000000E+00 -0.26842262977E+03  0.26842262977E+03  0.00000000000E+00 0. -1.
      99926    2    1    2    0    0  0.00000000000E+00  0.00000000000E+00 -0.73671296403E+02  0.46317396314E+03  0.45727744338E+03 0.  0.
      99925    2    3    3    0    0  0.69629740801E+01 -0.10937641096E+03 -0.10534823293E+02  0.28528241017E+03  0.26317938515E+03 0.  0.
         25    1    4    4    0    0  0.10536800801E+02 -0.66734631148E+02  0.33265529537E+02  0.14600903644E+03  0.12509000000E+03 0.  0.
         25    1    3    3    0    0 -0.69629740801E+01  0.10937641096E+03 -0.63136473110E+02  0.17789155297E+03  0.12509000000E+03 0.  0.
         25    1    4    4    0    0 -0.35738267211E+01 -0.42641779814E+02 -0.43800352830E+02  0.13927337373E+03  0.12509000000E+03 0.  0.
<mgrwt>
<rscale>  2 0.45727744E+03</rscale>
<asrwt>0</asrwt>
<pdfrwt beam="1">  1       21 0.28639902E-01 0.45727744E+03</pdfrwt>
<pdfrwt beam="2">  1       21 0.39473916E-01 0.45727744E+03</pdfrwt>
<totfact> 0.66729544E+04</totfact>
</mgrwt>
</event>
<event>
 7    0  0.4709932E-002  0.4561533E+03  0.7546771E-02  0.1025903E+00
         21   -1    0    0  502  501  0.00000000000E+00  0.00000000000E+00  0.17179929555E+03  0.17179929555E+03  0.00000000000E+00 0.  1.
         21   -1    0    0  501  502 -0.00000000000E+00 -0.00000000000E+00 -0.30278918932E+03  0.30278918932E+03  0.00000000000E+00 0.  1.
      99926    2    1    2    0    0  0.00000000000E+00 -0.71054273576E-14 -0.13098989378E+03  0.47458848487E+03  0.45615334889E+03 0.  0.
      99925    2    3    3    0    0 -0.87070407095E+01 -0.58079132710E+02  0.19477027072E+02  0.27029261956E+03  0.26311546399E+03 0.  0.
         25    1    4    4    0    0 -0.29406000800E+02 -0.40340835057E+02  0.40302428184E+02  0.14058410178E+03  0.12509000000E+03 0.  0.
         25    1    3    3    0    0  0.87070407095E+01  0.58079132710E+02 -0.15046692085E+03  0.20429586531E+03  0.12509000000E+03 0.  0.
         25    1    4    4    0    0  0.20698960091E+02 -0.17738297653E+02 -0.20825401111E+02  0.12970851778E+03  0.12509000000E+03 0.  0.
<mgrwt>
<rscale>  2 0.45615335E+03</rscale>
<asrwt>0</asrwt>
<pdfrwt beam="1">  1       21 0.25264603E-01 0.45615335E+03</pdfrwt>
<pdfrwt beam="2">  1       21 0.44527821E-01 0.45615335E+03</pdfrwt>
<totfact> 0.66485619E+04</totfact>
</mgrwt>
</event>
<event>
 7    0  0.4709932E-002  0.4549357E+03  0.7546771E-02  0.1026260E+00
         21   -1    0    0  502  501  0.00000000000E+00  0.00000000000E+00  0.59232979983E+02  0.59232979983E+02  0.00000000000E+00 0.  1.
         21   -1    0    0  501  502 -0.00000000000E+00 -0.00000000000E+00 -0.87352740150E+03  0.87352740150E+03  0.00000000000E+00 0.  1.
      99926    2    1    2    0    0  0.00000000000E+00  0.00000000000E+00 -0.81429442151E+03  0.93276038148E+03  0.45493573651E+03 0.  0.
      99925    2    3    3    0    0  0.21468171977E+02 -0.97932109003E+02 -0.40486802922E+03  0.49306837656E+03  0.26295764393E+03 0.  0.
         25    1    3    3    0    0 -0.21468171977E+02  0.97932109003E+02 -0.40942639229E+03  0.43969200492E+03  0.12509000000E+03 0.  0.
         25    1    4    4    0    0  0.48948967943E+01 -0.63999835053E+02 -0.14371743590E+03  0.20105260104E+03  0.12509000000E+03 0.  0.
         25    1    4    4    0    0  0.16573275183E+02 -0.33932273950E+02 -0.26115059332E+03  0.29201577553E+03  0.12509000000E+03 0.  0.
<mgrwt>
<rscale>  2 0.45493574E+03</rscale>
<asrwt>0</asrwt>
<pdfrwt beam="1">  1       21 0.87107327E-02 0.45493574E+03</pdfrwt>
<pdfrwt beam="2">  1       21 0.12845991E+00 0.45493574E+03</pdfrwt>
<totfact> 0.41867942E+04</totfact>
</mgrwt>
</event>
<event>
 7    0  0.4709932E-002  0.4527198E+03  0.7546771E-02  0.1026914E+00
         21   -1    0    0  502  501  0.00000000000E+00  0.00000000000E+00  0.27929960722E+04  0.27929960722E+04  0.00000000000E+00 0.  1.
         21   -1    0    0  501  502 -0.00000000000E+00 -0.00000000000E+00 -0.18345464682E+02  0.18345464682E+02  0.00000000000E+00 0.  1.
      99926    2    1    2    0    0 -0.71054273576E-14 -0.14210854715E-13  0.27746506076E+04  0.28113415369E+04  0.45271982860E+03 0.  0.
      99925    2    3    3    0    0 -0.49148356514E+02 -0.90146215330E+02  0.20152503363E+04  0.20348892324E+04  0.26267540647E+03 0.  0.
         25    1    4    4    0    0 -0.28381696227E+02 -0.87344121195E+02  0.10995777255E+04  0.11104743125E+04  0.12509000000E+03 0.  0.
         25    1    4    4    0    0 -0.20766660287E+02 -0.28020941345E+01  0.91567261071E+03  0.92441491983E+03  0.12509000000E+03 0.  0.
         25    1    3    3    0    0  0.49148356514E+02  0.90146215330E+02  0.75940027131E+03  0.77645230456E+03  0.12509000000E+03 0.  0.
<mgrwt>
<rscale>  2 0.45271983E+03</rscale>
<asrwt>0</asrwt>
<pdfrwt beam="1">  1       21 0.41073442E+00 0.45271983E+03</pdfrwt>
<pdfrwt beam="2">  1       21 0.26978644E-02 0.45271983E+03</pdfrwt>
<totfact> 0.45218959E+03</totfact>
</mgrwt>
</event>
<event>
 7    0  0.4709932E-002  0.4458755E+03  0.7546771E-02  0.1028959E+00
         21   -1    0    0  502  501  0.00000000000E+00  0.00000000000E+00  0.58594104641E+03  0.58594104641E+03  0.00000000000E+00 0.  1.
         21   -1    0    0  501  502 -0.00000000000E+00 -0.00000000000E+00 -0.84822933021E+02  0.84822933021E+02  0.00000000000E+00 0.  1.
      99926    2    1    2    0    0  0.00000000000E+00  0.71054273576E-14  0.50111811338E+03  0.67076397943E+03  0.44587548995E+03 0.  0.
      99925    2    3    3    0    0  0.80890696750E+02 -0.50432677036E+02  0.25461167380E+03  0.37836067474E+03  0.26314052524E+03 0.  0.
         25    1    3    3    0    0 -0.80890696750E+02  0.50432677036E+02  0.24650643958E+03  0.29240330468E+03  0.12509000000E+03 0.  0.
         25    1    4    4    0    0  0.10231950934E+02 -0.52432164977E+02  0.11715484602E+03  0.17951766150E+03  0.12509000000E+03 0.  0.
         25    1    4    4    0    0  0.70658745816E+02  0.19994879405E+01  0.13745682778E+03  0.19884301325E+03  0.12509000000E+03 0.  0.
<mgrwt>
<rscale>  2 0.44587549E+03</rscale>
<asrwt>0</asrwt>
<pdfrwt beam="1">  1       21 0.86167799E-01 0.44587549E+03</pdfrwt>
<pdfrwt beam="2">  1       21 0.12473961E-01 0.44587549E+03</pdfrwt>
<totfact> 0.58620738E+04</totfact>
</mgrwt>
</event>
<event>
 7    0  0.4709932E-002  0.4570957E+03  0.7546771E-02  0.1025627E+00
         21   -1    0    0  502  501  0.00000000000E+00  0.00000000000E+00  0.61150923163E+02  0.61150923163E+02  0.00000000000E+00 0. -1.
         21   -1    0    0  501  502 -0.00000000000E+00 -0.00000000000E+00 -0.85418364993E+03  0.85418364993E+03  0.00000000000E+00 0. -1.
      99926    2    1    2    0    0 -0.35527136788E-14 -0.35527136788E-14 -0.79303272676E+03  0.91533457309E+03  0.45709569564E+03 0.  0.
      99925    2    3    3    0    0  0.26331275794E+02  0.18997583041E+02 -0.27686840585E+03  0.38323744049E+03  0.26298398693E+03 0.  0.
         25    1    3    3    0    0 -0.26331275794E+02 -0.18997583041E+02 -0.51616432091E+03  0.53209713260E+03  0.12509000000E+03 0.  0.
         25    1    4    4    0    0  0.12442897264E+02  0.99123032970E+01 -0.79785391614E+02  0.14921895410E+03  0.12509000000E+03 0.  0.
         25    1    4    4    0    0  0.13888378530E+02  0.90852797436E+01 -0.19708301424E+03  0.23401848638E+03  0.12509000000E+03 0.  0.
<mgrwt>
<rscale>  2 0.45709570E+03</rscale>
<asrwt>0</asrwt>
<pdfrwt beam="1">  1       21 0.89927827E-02 0.45709570E+03</pdfrwt>
<pdfrwt beam="2">  1       21 0.12561524E+00 0.45709570E+03</pdfrwt>
<totfact> 0.41886046E+04</totfact>
</mgrwt>
</event>
<event>
 7    0  0.4709932E-002  0.4552008E+03  0.7546771E-02  0.1026182E+00
         21   -1    0    0  502  501  0.00000000000E+00  0.00000000000E+00  0.80184995557E+02  0.80184995557E+02  0.00000000000E+00 0.  1.
         21   -1    0    0  501  502 -0.00000000000E+00 -0.00000000000E+00 -0.64603035490E+03  0.64603035490E+03  0.00000000000E+00 0.  1.
      99926    2    1    2    0    0  0.00000000000E+00  0.00000000000E+00 -0.56584535934E+03  0.72621535046E+03  0.45520079586E+03 0.  0.
      99925    2    3    3    0    0  0.95540491883E+02  0.60467774426E+02 -0.34518424468E+03  0.44850475837E+03  0.26309697484E+03 0.  0.
         25    1    4    4    0    0  0.18071465390E+02  0.10815308924E+02 -0.11751331160E+03  0.17291742327E+03  0.12509000000E+03 0.  0.
         25    1    4    4    0    0  0.77469026493E+02  0.49652465502E+02 -0.22767093308E+03  0.27558733510E+03  0.12509000000E+03 0.  0.
         25    1    3    3    0    0 -0.95540491883E+02 -0.60467774426E+02 -0.22066111466E+03  0.27771059209E+03  0.12509000000E+03 0.  0.
<mgrwt>
<rscale>  2 0.45520080E+03</rscale>
<asrwt>0</asrwt>
<pdfrwt beam="1">  1       21 0.11791911E-01 0.45520080E+03</pdfrwt>
<pdfrwt beam="2">  1       21 0.95004463E-01 0.45520080E+03</pdfrwt>
<totfact> 0.51421433E+04</totfact>
</mgrwt>
</event>
<event>
 7    0  0.4709932E-002  0.4610293E+03  0.7546771E-02  0.1024483E+00
         21   -1    0    0  502  501  0.00000000000E+00  0.00000000000E+00  0.24501200252E+04  0.24501200252E+04  0.00000000000E+00 0. -1.
         21   -1    0    0  501  502 -0.00000000000E+00 -0.00000000000E+00 -0.21687512120E+02  0.21687512120E+02  0.00000000000E+00 0. -1.
      99926    2    1    2    0    0 -0.14210854715E-13  0.00000000000E+00  0.24284325131E+04  0.24718075374E+04  0.46102931682E+03 0.  0.
      99925    2    3    3    0    0 -0.67610981652E+02  0.73681075277E+01  0.20417946246E+04  0.20597858161E+04  0.26299578954E+03 0.  0.
         25    1    4    4    0    0 -0.29619518889E+02 -0.32327688270E+02  0.86716979491E+03  0.87724190314E+03  0.12509000000E+03 0.  0.
         25    1    4    4    0    0 -0.37991462762E+02  0.39695795798E+02  0.11746248297E+04  0.11825439130E+04  0.12509000000E+03 0.  0.
         25    1    3    3    0    0  0.67610981652E+02 -0.73681075277E+01  0.38663788850E+03  0.41202172124E+03  0.12509000000E+03 0.  0.
<mgrwt>
<rscale>  2 0.46102932E+03</rscale>
<asrwt>0</asrwt>
<pdfrwt beam="1">  1       21 0.36031158E+00 0.46102932E+03</pdfrwt>
<pdfrwt beam="2">  1       21 0.31893417E-02 0.46102932E+03</pdfrwt>
<totfact> 0.70865994E+03</totfact>
</mgrwt>
</event>
<event>
 7    0  0.4709932E-002  0.4501635E+03  0.7546771E-02  0.1027673E+00
         21   -1    0    0  502  501  0.00000000000E+00  0.00000000000E+00  0.78777661988E+02  0.78777661988E+02  0.00000000000E+00 0. -1.
         21   -1    0    0  501  502 -0.00000000000E+00 -0.00000000000E+00 -0.64309840720E+03  0.64309840720E+03  0.00000000000E+00 0. -1.
      99926    2    1    2    0    0  0.00000000000E+00  0.00000000000E+00 -0.56432074522E+03  0.72187606919E+03  0.45016347674E+03 0.  0.
      99925    2    3    3    0    0 -0.10162807803E+03 -0.24147204200E+02 -0.40410635813E+03  0.49334267635E+03  0.26300892364E+03 0.  0.
         25    1    4    4    0    0 -0.60889843021E+02  0.24864014216E+02 -0.22612287302E+03  0.26665493430E+03  0.12509000000E+03 0.  0.
         25    1    4    4    0    0 -0.40738235006E+02 -0.49011218416E+02 -0.17798348511E+03  0.22668774205E+03  0.12509000000E+03 0.  0.
         25    1    3    3    0    0  0.10162807803E+03  0.24147204200E+02 -0.16021438708E+03  0.22853339284E+03  0.12509000000E+03 0.  0.
<mgrwt>
<rscale>  2 0.45016348E+03</rscale>
<asrwt>0</asrwt>
<pdfrwt beam="1">  1       21 0.11584950E-01 0.45016348E+03</pdfrwt>
<pdfrwt beam="2">  1       21 0.94573296E-01 0.45016348E+03</pdfrwt>
<totfact> 0.53746842E+04</totfact>
</mgrwt>
</event>
<event>
 7    0  0.4709932E-002  0.4463283E+03  0.7546771E-02  0.1028823E+00
         21   -1    0    0  502  501  0.00000000000E+00  0.00000000000E+00  0.31075545786E+03  0.31075545786E+03  0.00000000000E+00 0.  1.
         21   -1    0    0  501  502 -0.00000000000E+00 -0.00000000000E+00 -0.16026182482E+03  0.16026182482E+03  0.00000000000E+00 0.  1.
      99926    2    1    2    0    0  0.00000000000E+00  0.00000000000E+00  0.15049363305E+03  0.47101728268E+03  0.44632829509E+03 0.  0.
      99925    2    3    3    0    0 -0.65472714779E+02 -0.80702240801E+02  0.81734425172E+02  0.29445322966E+03  0.26310199571E+03 0.  0.
         25    1    4    4    0    0 -0.63270060483E+02 -0.62229948002E+02  0.23271720684E+02  0.15512816658E+03  0.12509000000E+03 0.  0.
         25    1    3    3    0    0  0.65472714779E+02  0.80702240801E+02  0.68759207875E+02  0.17656405302E+03  0.12509000000E+03 0.  0.
         25    1    4    4    0    0 -0.22026542961E+01 -0.18472292799E+02  0.58462704489E+02  0.13932506308E+03  0.12509000000E+03 0.  0.
<mgrwt>
<rscale>  2 0.44632830E+03</rscale>
<asrwt>0</asrwt>
<pdfrwt beam="1">  1       21 0.45699332E-01 0.44632830E+03</pdfrwt>
<pdfrwt beam="2">  1       21 0.23567915E-01 0.44632830E+03</pdfrwt>
<totfact> 0.72202539E+04</totfact>
</mgrwt>
</event>
<event>
 7    0  0.4709932E-002  0.4538206E+03  0.7546771E-02  0.1026589E+00
         21   -1    0    0  502  501  0.00000000000E+00  0.00000000000E+00  0.42357963359E+03  0.42357963359E+03  0.00000000000E+00 0.  1.
         21   -1    0    0  501  502 -0.00000000000E+00 -0.00000000000E+00 -0.12155517222E+03  0.12155517222E+03  0.00000000000E+00 0.  1.
      99926    2    1    2    0    0  0.14210854715E-13  0.00000000000E+00  0.30202446137E+03  0.54513480582E+03  0.45382064877E+03 0.  0.
      99925    2    3    3    0    0  0.10090659145E+03  0.27519518787E+02  0.14175809145E+03  0.31650348351E+03  0.26294416607E+03 0.  0.
         25    1    4    4    0    0  0.75299629582E+01  0.10164412282E+02  0.68864549381E+02  0.14335218827E+03  0.12509000000E+03 0.  0.
         25    1    4    4    0    0  0.93376628492E+02  0.17355106505E+02  0.72893542073E+02  0.17315129525E+03  0.12509000000E+03 0.  0.
         25    1    3    3    0    0 -0.10090659145E+03 -0.27519518787E+02  0.16026636991E+03  0.22863132230E+03  0.12509000000E+03 0.  0.
<mgrwt>
<rscale>  2 0.45382065E+03</rscale>
<asrwt>0</asrwt>
<pdfrwt beam="1">  1       21 0.62291122E-01 0.45382065E+03</pdfrwt>
<pdfrwt beam="2">  1       21 0.17875761E-01 0.45382065E+03</pdfrwt>
<totfact> 0.62772910E+04</totfact>
</mgrwt>
</event>
<event>
 7    0  0.4709932E-002  0.4356590E+03  0.7546771E-02  0.1032087E+00
         21   -1    0    0  502  501  0.00000000000E+00  0.00000000000E+00  0.19909286843E+04  0.19909286843E+04  0.00000000000E+00 0.  1.
         21   -1    0    0  501  502 -0.00000000000E+00 -0.00000000000E+00 -0.23832939741E+02  0.23832939741E+02  0.00000000000E+00 0.  1.
      99926    2    1    2    0    0  0.00000000000E+00  0.00000000000E+00  0.19670957445E+04  0.20147616240E+04  0.43565896461E+03 0.  0.
      99925    2    3    3    0    0  0.73767009826E+02 -0.39697905698E+02  0.14569852607E+04  0.14828991331E+04  0.26299485454E+03 0.  0.
         25    1    4    4    0    0  0.19939408572E+02 -0.56421843641E+02  0.70837508394E+03  0.72181976427E+03  0.12509000000E+03 0.  0.
         25    1    3    3    0    0 -0.73767009826E+02  0.39697905698E+02  0.51011048381E+03  0.53186249092E+03  0.12509000000E+03 0.  0.
         25    1    4    4    0    0  0.53827601254E+02  0.16723937942E+02  0.74861017678E+03  0.76107936881E+03  0.12509000000E+03 0.  0.
<mgrwt>
<rscale>  2 0.43565896E+03</rscale>
<asrwt>0</asrwt>
<pdfrwt beam="1">  1       21 0.29278352E+00 0.43565896E+03</pdfrwt>
<pdfrwt beam="2">  1       21 0.35048454E-02 0.43565896E+03</pdfrwt>
<totfact> 0.15698166E+04</totfact>
</mgrwt>
</event>
<event>
 7    0  0.4709932E-002  0.4601500E+03  0.7546771E-02  0.1024738E+00
         21   -1    0    0  502  501  0.00000000000E+00  0.00000000000E+00  0.10100406096E+03  0.10100406096E+03  0.00000000000E+00 0. -1.
         21   -1    0    0  501  502 -0.00000000000E+00 -0.00000000000E+00 -0.52408288328E+03  0.52408288328E+03  0.00000000000E+00 0. -1.
      99926    2    1    2    0    0  0.00000000000E+00 -0.12212453271E-14 -0.42307882232E+03  0.62508694424E+03  0.46014997334E+03 0.  0.
      99925    2    3    3    0    0 -0.97016886889E+02 -0.85306188351E+00 -0.35616845478E+03  0.45322214435E+03  0.26294740899E+03 0.  0.
         25    1    4    4    0    0 -0.85413505362E+02 -0.21042125204E+02 -0.18800291697E+03  0.24234447141E+03  0.12509000000E+03 0.  0.
         25    1    4    4    0    0 -0.11603381528E+02  0.20189063320E+02 -0.16816553780E+03  0.21087767294E+03  0.12509000000E+03 0.  0.
         25    1    3    3    0    0  0.97016886889E+02  0.85306188351E+00 -0.66910367538E+02  0.17186479989E+03  0.12509000000E+03 0.  0.
<mgrwt>
<rscale>  2 0.46014997E+03</rscale>
<asrwt>0</asrwt>
<pdfrwt beam="1">  1       21 0.14853538E-01 0.46014997E+03</pdfrwt>
<pdfrwt beam="2">  1       21 0.77071013E-01 0.46014997E+03</pdfrwt>
<totfact> 0.54893705E+04</totfact>
</mgrwt>
</event>
<event>
 7    0  0.4709932E-002  0.4533973E+03  0.7546771E-02  0.1026714E+00
         21   -1    0    0  502  501  0.00000000000E+00  0.00000000000E+00  0.47574120138E+03  0.47574120138E+03  0.00000000000E+00 0. -1.
         21   -1    0    0  501  502 -0.00000000000E+00 -0.00000000000E+00 -0.10802571667E+03  0.10802571667E+03  0.00000000000E+00 0. -1.
      99926    2    1    2    0    0  0.00000000000E+00  0.00000000000E+00  0.36771548470E+03  0.58376691805E+03  0.45339732787E+03 0.  0.
      99925    2    3    3    0    0  0.79402612529E+02 -0.77845451626E+02  0.21913709897E+03  0.35996402705E+03  0.26303677196E+03 0.  0.
         25    1    4    4    0    0 -0.60611156335E+00 -0.25395192747E+02  0.88074817344E+02  0.15508051050E+03  0.12509000000E+03 0.  0.
         25    1    3    3    0    0 -0.79402612529E+02  0.77845451626E+02  0.14857838573E+03  0.22380289100E+03  0.12509000000E+03 0.  0.
         25    1    4    4    0    0  0.80008724092E+02 -0.52450258879E+02  0.13106228163E+03  0.20488351655E+03  0.12509000000E+03 0.  0.
<mgrwt>
<rscale>  2 0.45339733E+03</rscale>
<asrwt>0</asrwt>
<pdfrwt beam="1">  1       21 0.69961941E-01 0.45339733E+03</pdfrwt>
<pdfrwt beam="2">  1       21 0.15886135E-01 0.45339733E+03</pdfrwt>
<totfact> 0.60450961E+04</totfact>
</mgrwt>
</event>
<event>
 7    0  0.4709932E-002  0.4560866E+03  0.7546771E-02  0.1025922E+00
         21   -1    0    0  502  501  0.00000000000E+00  0.00000000000E+00  0.57307967188E+03  0.57307967188E+03  0.00000000000E+00 0.  1.
         21   -1    0    0  501  502 -0.00000000000E+00 -0.00000000000E+00 -0.90744341589E+02  0.90744341589E+02  0.00000000000E+00 0.  1.
      99926    2    1    2    0    0  0.00000000000E+00 -0.71054273576E-14  0.48233533029E+03  0.66382401347E+03  0.45608655978E+03 0.  0.
      99925    2    3    3    0    0  0.97147949248E+02 -0.46705279413E+02  0.24708241137E+03  0.37640350075E+03  0.26269901066E+03 0.  0.
         25    1    3    3    0    0 -0.97147949248E+02  0.46705279413E+02  0.23525291892E+03  0.28742051272E+03  0.12509000000E+03 0.  0.
         25    1    4    4    0    0  0.65280454881E+01 -0.27985288840E+02  0.11328286964E+03  0.17119085379E+03  0.12509000000E+03 0.  0.
         25    1    4    4    0    0  0.90619903759E+02 -0.18719990573E+02  0.13379954173E+03  0.20521264696E+03  0.12509000000E+03 0.  0.
<mgrwt>
<rscale>  2 0.45608656E+03</rscale>
<asrwt>0</asrwt>
<pdfrwt beam="1">  1       21 0.84276421E-01 0.45608656E+03</pdfrwt>
<pdfrwt beam="2">  1       21 0.13344756E-01 0.45608656E+03</pdfrwt>
<totfact> 0.54443277E+04</totfact>
</mgrwt>
</event>
<event>
 7    0  0.4709932E-002  0.4549663E+03  0.7546771E-02  0.1026251E+00
         21   -1    0    0  502  501  0.00000000000E+00  0.00000000000E+00  0.78629898472E+02  0.78629898472E+02  0.00000000000E+00 0.  1.
         21   -1    0    0  501  502 -0.00000000000E+00 -0.00000000000E+00 -0.65812868806E+03  0.65812868806E+03  0.00000000000E+00 0.  1.
      99926    2    1    2    0    0  0.22204460493E-15  0.00000000000E+00 -0.57949878958E+03  0.73675858653E+03  0.45496633688E+03 0.  0.
      99925    2    3    3    0    0 -0.11011344424E+01 -0.97489310947E+02 -0.45716661964E+03  0.53646368857E+03  0.26322346550E+03 0.  0.
         25    1    4    4    0    0 -0.12887943486E+01 -0.22093299884E+02 -0.27540990706E+03  0.30329507068E+03  0.12509000000E+03 0.  0.
         25    1    4    4    0    0  0.18765990618E+00 -0.75396011063E+02 -0.18175671258E+03  0.23316861789E+03  0.12509000000E+03 0.  0.
         25    1    3    3    0    0  0.11011344424E+01  0.97489310947E+02 -0.12233216994E+03  0.20029489796E+03  0.12509000000E+03 0.  0.
<mgrwt>
<rscale>  2 0.45496634E+03</rscale>
<asrwt>0</asrwt>
<pdfrwt beam="1">  1       21 0.11563221E-01 0.45496634E+03</pdfrwt>
<pdfrwt beam="2">  1       21 0.96783628E-01 0.45496634E+03</pdfrwt>
<totfact> 0.50965730E+04</totfact>
</mgrwt>
</event>
<event>
 7    0  0.4709932E-002  0.4688295E+03  0.7546771E-02  0.1022251E+00
         21   -1    0    0  502  501  0.00000000000E+00  0.00000000000E+00  0.91096855341E+02  0.91096855341E+02  0.00000000000E+00 0.  1.
         21   -1    0    0  501  502 -0.00000000000E+00 -0.00000000000E+00 -0.60320704899E+03  0.60320704899E+03  0.00000000000E+00 0.  1.
      99926    2    1    2    0    0  0.71054273576E-14  0.00000000000E+00 -0.51211019365E+03  0.69430390433E+03  0.46882945847E+03 0.  0.
      99925    2    3    3    0    0 -0.51378151875E+02 -0.28325507796E+02 -0.15344315909E+03  0.30994521943E+03  0.26282919757E+03 0.  0.
         25    1    3    3    0    0  0.51378151875E+02  0.28325507796E+02 -0.35866703456E+03  0.38435868490E+03  0.12509000000E+03 0.  0.
         25    1    4    4    0    0  0.11874349589E+02 -0.13047688843E+02 -0.53903064646E+02  0.13734733649E+03  0.12509000000E+03 0.  0.
         25    1    4    4    0    0 -0.63252501465E+02 -0.15277818953E+02 -0.99540094448E+02  0.17259788294E+03  0.12509000000E+03 0.  0.
<mgrwt>
<rscale>  2 0.46882946E+03</rscale>
<asrwt>0</asrwt>
<pdfrwt beam="1">  1       21 0.13396596E-01 0.46882946E+03</pdfrwt>
<pdfrwt beam="2">  1       21 0.88706922E-01 0.46882946E+03</pdfrwt>
<totfact> 0.47791897E+04</totfact>
</mgrwt>
</event>
<event>
 7    0  0.4709932E-002  0.4553364E+03  0.7546771E-02  0.1026143E+00
         21   -1    0    0  502  501  0.00000000000E+00  0.00000000000E+00  0.17443401986E+03  0.17443401986E+03  0.00000000000E+00 0. -1.
         21   -1    0    0  501  502 -0.00000000000E+00 -0.00000000000E+00 -0.29714856493E+03  0.29714856493E+03  0.00000000000E+00 0. -1.
      99926    2    1    2    0    0  0.00000000000E+00  0.00000000000E+00 -0.12271454508E+03  0.47158258479E+03  0.45533644122E+03 0.  0.
      99925    2    3    3    0    0  0.93654027848E+02  0.11646067140E+02 -0.11879771986E+02  0.27964883883E+03  0.26297459243E+03 0.  0.
         25    1    4    4    0    0  0.56887690397E+02 -0.15927367886E+02 -0.38833808359E+02  0.14368529200E+03  0.12509000000E+03 0.  0.
         25    1    4    4    0    0  0.36766337451E+02  0.27573435026E+02  0.26954036372E+02  0.13596354683E+03  0.12509000000E+03 0.  0.
         25    1    3    3    0    0 -0.93654027848E+02 -0.11646067140E+02 -0.11083477309E+03  0.19193374596E+03  0.12509000000E+03 0.  0.
<mgrwt>
<rscale>  2 0.45533644E+03</rscale>
<asrwt>0</asrwt>
<pdfrwt beam="1">  1       21 0.25652062E-01 0.45533644E+03</pdfrwt>
<pdfrwt beam="2">  1       21 0.43698318E-01 0.45533644E+03</pdfrwt>
<totfact> 0.67138814E+04</totfact>
</mgrwt>
</event>
<event>
 7    0  0.4709932E-002  0.4558014E+03  0.7546771E-02  0.1026006E+00
         21   -1    0    0  502  501  0.00000000000E+00  0.00000000000E+00  0.54191619039E+02  0.54191619039E+02  0.00000000000E+00 0. -1.
         21   -1    0    0  501  502 -0.00000000000E+00 -0.00000000000E+00 -0.95842754357E+03  0.95842754357E+03  0.00000000000E+00 0. -1.
      99926    2    1    2    0    0  0.14210854715E-13  0.26645352591E-14 -0.90423592453E+03  0.10126191626E+04  0.45580144939E+03 0.  0.
      99925    2    3    3    0    0  0.10134675230E+03  0.59482645580E+01 -0.68386640158E+03  0.73964154301E+03  0.26284940726E+03 0.  0.
         25    1    4    4    0    0  0.88892234810E+02  0.20628885436E+02 -0.35728591058E+03  0.38939454326E+03  0.12509000000E+03 0.  0.
         25    1    4    4    0    0  0.12454517487E+02 -0.14680620878E+02 -0.32658049100E+03  0.35024699975E+03  0.12509000000E+03 0.  0.
         25    1    3    3    0    0 -0.10134675230E+03 -0.59482645580E+01 -0.22036952296E+03  0.27297761960E+03  0.12509000000E+03 0.  0.
<mgrwt>
<rscale>  2 0.45580145E+03</rscale>
<asrwt>0</asrwt>
<pdfrwt beam="1">  1       21 0.79693568E-02 0.45580145E+03</pdfrwt>
<pdfrwt beam="2">  1       21 0.14094521E+00 0.45580145E+03</pdfrwt>
<totfact> 0.38438397E+04</totfact>
</mgrwt>
</event>
<event>
 7    0  0.4709932E-002  0.4521527E+03  0.7546771E-02  0.1027082E+00
         21   -1    0    0  502  501  0.00000000000E+00  0.00000000000E+00  0.45939289259E+02  0.45939289259E+02  0.00000000000E+00 0. -1.
         21   -1    0    0  501  502 -0.00000000000E+00 -0.00000000000E+00 -0.11125666252E+04  0.11125666252E+04  0.00000000000E+00 0. -1.
      99926    2    1    2    0    0  0.14210854715E-13  0.00000000000E+00 -0.10666273359E+04  0.11585059144E+04  0.45215271762E+03 0.  0.
      99925    2    3    3    0    0  0.71459425473E+02 -0.46051941765E+02 -0.49177425308E+03  0.56408955717E+03  0.26292181669E+03 0.  0.
         25    1    4    4    0    0  0.72986804307E+00 -0.14942009856E+02 -0.27079386398E+03  0.29866473048E+03  0.12509000000E+03 0.  0.
         25    1    4    4    0    0  0.70729557430E+02 -0.31109931908E+02 -0.22098038910E+03  0.26542482669E+03  0.12509000000E+03 0.  0.
         25    1    3    3    0    0 -0.71459425473E+02  0.46051941765E+02 -0.57485308282E+03  0.59441635724E+03  0.12509000000E+03 0.  0.
<mgrwt>
<rscale>  2 0.45215272E+03</rscale>
<asrwt>0</asrwt>
<pdfrwt beam="1">  1       21 0.67557785E-02 0.45215272E+03</pdfrwt>
<pdfrwt beam="2">  1       21 0.16361272E+00 0.45215272E+03</pdfrwt>
<totfact> 0.34253397E+04</totfact>
</mgrwt>
</event>
<event>
 7    0  0.4709932E-002  0.4541034E+03  0.7546771E-02  0.1026505E+00
         21   -1    0    0  502  501  0.00000000000E+00  0.00000000000E+00  0.54375783305E+02  0.54375783305E+02  0.00000000000E+00 0. -1.
         21   -1    0    0  501  502 -0.00000000000E+00 -0.00000000000E+00 -0.94807780833E+03  0.94807780833E+03  0.00000000000E+00 0. -1.
      99926    2    1    2    0    0  0.14210854715E-13  0.00000000000E+00 -0.89370202502E+03  0.10024535916E+04  0.45410339555E+03 0.  0.
      99925    2    3    3    0    0  0.10249496388E+03 -0.31418598509E+02 -0.48800938586E+03  0.56458789131E+03  0.26289537913E+03 0.  0.
         25    1    4    4    0    0  0.33904671538E+02  0.16389751065E+02 -0.18755658210E+03  0.22856756175E+03  0.12509000000E+03 0.  0.
         25    1    4    4    0    0  0.68590292341E+02 -0.47808349574E+02 -0.30045280376E+03  0.33602032956E+03  0.12509000000E+03 0.  0.
         25    1    3    3    0    0 -0.10249496388E+03  0.31418598509E+02 -0.40569263916E+03  0.43786570033E+03  0.12509000000E+03 0.  0.
<mgrwt>
<rscale>  2 0.45410340E+03</rscale>
<asrwt>0</asrwt>
<pdfrwt beam="1">  1       21 0.79964395E-02 0.45410340E+03</pdfrwt>
<pdfrwt beam="2">  1       21 0.13942319E+00 0.45410340E+03</pdfrwt>
<totfact> 0.39346285E+04</totfact>
</mgrwt>
</event>
<event>
 7    0  0.4709932E-002  0.4339014E+03  0.7546771E-02  0.1032635E+00
         21   -1    0    0  502  501  0.00000000000E+00  0.00000000000E+00  0.31967158939E+03  0.31967158939E+03  0.00000000000E+00 0. -1.
         21   -1    0    0  501  502 -0.00000000000E+00 -0.00000000000E+00 -0.14723739792E+03  0.14723739792E+03  0.00000000000E+00 0. -1.
      99926    2    1    2    0    0  0.00000000000E+00  0.71054273576E-14  0.17243419148E+03  0.46690898731E+03  0.43390143125E+03 0.  0.
      99925    2    3    3    0    0 -0.12634718930E+02  0.50328908852E+02  0.29209686080E+02  0.26979632350E+03  0.26314295587E+03 0.  0.
         25    1    4    4    0    0 -0.16429751577E+02  0.13024540372E+02  0.52276320735E+02  0.13718563044E+03  0.12509000000E+03 0.  0.
         25    1    3    3    0    0  0.12634718930E+02 -0.50328908852E+02  0.14322450540E+03  0.19711266381E+03  0.12509000000E+03 0.  0.
         25    1    4    4    0    0  0.37950326468E+01  0.37304368481E+02 -0.23066634655E+02  0.13261069306E+03  0.12509000000E+03 0.  0.
<mgrwt>
<rscale>  2 0.43390143E+03</rscale>
<asrwt>0</asrwt>
<pdfrwt beam="1">  1       21 0.47010528E-01 0.43390143E+03</pdfrwt>
<pdfrwt beam="2">  1       21 0.21652559E-01 0.43390143E+03</pdfrwt>
<totfact> 0.80292469E+04</totfact>
</mgrwt>
</event>
<event>
 6    0  0.4709932E-002  0.4489150E+03  0.7546771E-02  0.1028046E+00
         21   -1    0    0  502  501  0.00000000000E+00  0.00000000000E+00  0.45368475531E+03  0.45368475531E+03  0.00000000000E+00 0.  1.
         21   -1    0    0  501  502 -0.00000000000E+00 -0.00000000000E+00 -0.11104887202E+03  0.11104887202E+03  0.00000000000E+00 0.  1.
      99926    2    1    2    0    0 -0.14210854715E-13  0.35527136788E-14  0.34263588329E+03  0.56473362733E+03  0.44891504912E+03 0.  0.
         25    1    3    3    0    0 -0.10267370139E+02  0.60186121293E-01  0.13182163054E+03  0.18201613360E+03  0.12509000000E+03 0.  0.
         25    1    3    3    0    0  0.78280957835E+02 -0.24048009230E+02  0.18190007430E+03  0.23545989093E+03  0.12509000000E+03 0.  0.
         25    1    3    3    0    0 -0.68013587696E+02  0.23987823109E+02  0.28914178452E+02  0.14725760281E+03  0.12509000000E+03 0.  0.
<mgrwt>
<rscale>  2 0.44891505E+03</rscale>
<asrwt>0</asrwt>
<pdfrwt beam="1">  1       21 0.66718346E-01 0.44891505E+03</pdfrwt>
<pdfrwt beam="2">  1       21 0.16330717E-01 0.44891505E+03</pdfrwt>
<totfact> 0.63924526E+04</totfact>
</mgrwt>
</event>
<event>
 7    0  0.4709932E-002  0.4554678E+03  0.7546771E-02  0.1026104E+00
         21   -1    0    0  502  501  0.00000000000E+00  0.00000000000E+00  0.18576979709E+03  0.18576979709E+03  0.00000000000E+00 0. -1.
         21   -1    0    0  501  502 -0.00000000000E+00 -0.00000000000E+00 -0.27917735632E+03  0.27917735632E+03  0.00000000000E+00 0. -1.
      99926    2    1    2    0    0  0.00000000000E+00  0.00000000000E+00 -0.93407559232E+02  0.46494715340E+03  0.45546776322E+03 0.  0.
      99925    2    3    3    0    0 -0.97451901689E+02  0.57971176729E+02 -0.62803235896E+02  0.29336142212E+03  0.26317132647E+03 0.  0.
         25    1    4    4    0    0 -0.30689542734E+02 -0.15540163051E+01 -0.52948361552E+02  0.13926701006E+03  0.12509000000E+03 0.  0.
         25    1    3    3    0    0  0.97451901689E+02 -0.57971176729E+02 -0.30604323336E+02  0.17158573129E+03  0.12509000000E+03 0.  0.
         25    1    4    4    0    0 -0.66762358955E+02  0.59525193034E+02 -0.98548743443E+01  0.15409441206E+03  0.12509000000E+03 0.  0.
<mgrwt>
<rscale>  2 0.45546776E+03</rscale>
<asrwt>0</asrwt>
<pdfrwt beam="1">  1       21 0.27319088E-01 0.45546776E+03</pdfrwt>
<pdfrwt beam="2">  1       21 0.41055493E-01 0.45546776E+03</pdfrwt>
<totfact> 0.67562625E+04</totfact>
</mgrwt>
</event>
<event>
 7    0  0.4709932E-002  0.4550202E+03  0.7546771E-02  0.1026235E+00
         21   -1    0    0  502  501  0.00000000000E+00  0.00000000000E+00  0.51437508148E+03  0.51437508148E+03  0.00000000000E+00 0.  1.
         21   -1    0    0  501  502 -0.00000000000E+00 -0.00000000000E+00 -0.10062860887E+03  0.10062860887E+03  0.00000000000E+00 0.  1.
      99926    2    1    2    0    0  0.00000000000E+00  0.00000000000E+00  0.41374647261E+03  0.61500369035E+03  0.45502021444E+03 0.  0.
      99925    2    3    3    0    0  0.17776262832E+02  0.64579860869E+02  0.38373525349E+03  0.46997012416E+03  0.26293082527E+03 0.  0.
         25    1    4    4    0    0 -0.27653562529E+02  0.37219316172E+02  0.21899731878E+03  0.25643192226E+03  0.12509000000E+03 0.  0.
         25    1    4    4    0    0  0.45429825361E+02  0.27360544697E+02  0.16473793471E+03  0.21353820190E+03  0.12509000000E+03 0.  0.
         25    1    3    3    0    0 -0.17776262832E+02 -0.64579860869E+02  0.30011219113E+02  0.14503356619E+03  0.12509000000E+03 0.  0.
<mgrwt>
<rscale>  2 0.45502021E+03</rscale>
<asrwt>0</asrwt>
<pdfrwt beam="1">  1       21 0.75643393E-01 0.45502021E+03</pdfrwt>
<pdfrwt beam="2">  1       21 0.14798325E-01 0.45502021E+03</pdfrwt>
<totfact> 0.57754908E+04</totfact>
</mgrwt>
</event>
<event>
 7    0  0.4709932E-002  0.4565979E+03  0.7546771E-02  0.1025773E+00
         21   -1    0    0  502  501  0.00000000000E+00  0.00000000000E+00  0.28973247694E+03  0.28973247694E+03  0.00000000000E+00 0. -1.
         21   -1    0    0  501  502 -0.00000000000E+00 -0.00000000000E+00 -0.17989149737E+03  0.17989149737E+03  0.00000000000E+00 0. -1.
      99926    2    1    2    0    0 -0.71054273576E-14 -0.71054273576E-14  0.10984097957E+03  0.46962397431E+03  0.45659789361E+03 0.  0.
      99925    2    3    3    0    0 -0.60853902577E+02  0.46496374123E+02 -0.18789727810E+02  0.27453815410E+03  0.26296964448E+03 0.  0.
         25    1    4    4    0    0 -0.12472647504E+02 -0.64463818213E+01 -0.31592182520E+02  0.12977941621E+03  0.12509000000E+03 0.  0.
         25    1    3    3    0    0  0.60853902577E+02 -0.46496374123E+02  0.12863070738E+03  0.19508582021E+03  0.12509000000E+03 0.  0.
         25    1    4    4    0    0 -0.48381255072E+02  0.52942755944E+02  0.12802454710E+02  0.14475873789E+03  0.12509000000E+03 0.  0.
<mgrwt>
<rscale>  2 0.45659789E+03</rscale>
<asrwt>0</asrwt>
<pdfrwt beam="1">  1       21 0.42607717E-01 0.45659789E+03</pdfrwt>
<pdfrwt beam="2">  1       21 0.26454632E-01 0.45659789E+03</pdfrwt>
<totfact> 0.66615400E+04</totfact>
</mgrwt>
</event>
<event>
 7    0  0.4709932E-002  0.4454346E+03  0.7546771E-02  0.1029092E+00
         21   -1    0    0  502  501  0.00000000000E+00  0.00000000000E+00  0.95433500514E+03  0.95433500514E+03  0.00000000000E+00 0.  1.
         21   -1    0    0  501  502 -0.00000000000E+00 -0.00000000000E+00 -0.51976507129E+02  0.51976507129E+02  0.00000000000E+00 0.  1.
      99926    2    1    2    0    0 -0.35527136788E-14  0.71054273576E-14  0.90235849801E+03  0.10063115123E+04  0.44543462011E+03 0.  0.
      99925    2    3    3    0    0  0.30217048681E+02  0.33424250817E+02  0.36124881957E+03  0.44910648467E+03  0.26299367742E+03 0.  0.
         25    1    3    3    0    0 -0.30217048681E+02 -0.33424250817E+02  0.54110967844E+03  0.55720502760E+03  0.12509000000E+03 0.  0.
         25    1    4    4    0    0 -0.15949376417E+02 -0.21363460523E+01  0.20453953663E+03  0.24029747549E+03  0.12509000000E+03 0.  0.
         25    1    4    4    0    0  0.46166425098E+02  0.35560596870E+02  0.15670928294E+03  0.20880900918E+03  0.12509000000E+03 0.  0.
<mgrwt>
<rscale>  2 0.44543462E+03</rscale>
<asrwt>0</asrwt>
<pdfrwt beam="1">  1       21 0.14034337E+00 0.44543462E+03</pdfrwt>
<pdfrwt beam="2">  1       21 0.76436046E-02 0.44543462E+03</pdfrwt>
<totfact> 0.41970709E+04</totfact>
</mgrwt>
</event>
<event>
 7    0  0.4709932E-002  0.4576916E+03  0.7546771E-02  0.1025453E+00
         21   -1    0    0  502  501  0.00000000000E+00  0.00000000000E+00  0.19433444486E+03  0.19433444486E+03  0.00000000000E+00 0.  1.
         21   -1    0    0  501  502 -0.00000000000E+00 -0.00000000000E+00 -0.26948593196E+03  0.26948593196E+03  0.00000000000E+00 0.  1.
      99926    2    1    2    0    0  0.22204460493E-15 -0.71054273576E-14 -0.75151487103E+02  0.46382037683E+03  0.45769159480E+03 0.  0.
      99925    2    3    3    0    0  0.12691527350E+01  0.45384173118E+02  0.60825462896E+02  0.27356115117E+03  0.26282053301E+03 0.  0.
         25    1    4    4    0    0  0.10706590179E+02 -0.26309846135E+01 -0.12711627994E+01  0.12558135653E+03  0.12509000000E+03 0.  0.
         25    1    4    4    0    0 -0.94374374438E+01  0.48015157732E+02  0.62096625695E+02  0.14797979464E+03  0.12509000000E+03 0.  0.
         25    1    3    3    0    0 -0.12691527350E+01 -0.45384173118E+02 -0.13597695000E+03  0.19025922566E+03  0.12509000000E+03 0.  0.
<mgrwt>
<rscale>  2 0.45769159E+03</rscale>
<asrwt>0</asrwt>
<pdfrwt beam="1">  1       21 0.28578595E-01 0.45769159E+03</pdfrwt>
<pdfrwt beam="2">  1       21 0.39630284E-01 0.45769159E+03</pdfrwt>
<totfact> 0.66464211E+04</totfact>
</mgrwt>
</event>
<event>
 7    0  0.4709932E-002  0.4546289E+03  0.7546771E-02  0.1026351E+00
         21   -1    0    0  502  501  0.00000000000E+00  0.00000000000E+00  0.20129928377E+03  0.20129928377E+03  0.00000000000E+00 0. -1.
         21   -1    0    0  501  502 -0.00000000000E+00 -0.00000000000E+00 -0.25669167020E+03  0.25669167020E+03  0.00000000000E+00 0. -1.
      99926    2    1    2    0    0 -0.44408920985E-15  0.00000000000E+00 -0.55392386431E+02  0.45799095396E+03  0.45462885680E+03 0.  0.
      99925    2    3    3    0    0 -0.32584021745E+01  0.62737380506E+02  0.59808794731E+02  0.27670274050E+03  0.26275600579E+03 0.  0.
         25    1    4    4    0    0  0.12688049858E+02  0.61249175954E+02  0.71514922581E+01  0.14003963762E+03  0.12509000000E+03 0.  0.
         25    1    4    4    0    0 -0.15946452032E+02  0.14882045520E+01  0.52657302473E+02  0.13666310288E+03  0.12509000000E+03 0.  0.
         25    1    3    3    0    0  0.32584021745E+01 -0.62737380506E+02 -0.11520118116E+03  0.18128821346E+03  0.12509000000E+03 0.  0.
<mgrwt>
<rscale>  2 0.45462886E+03</rscale>
<asrwt>0</asrwt>
<pdfrwt beam="1">  1       21 0.29602836E-01 0.45462886E+03</pdfrwt>
<pdfrwt beam="2">  1       21 0.37748775E-01 0.45462886E+03</pdfrwt>
<totfact> 0.68529797E+04</totfact>
</mgrwt>
</event>
<event>
 7    0  0.4709932E-002  0.4594427E+03  0.7546771E-02  0.1024943E+00
         21   -1    0    0  502  501  0.00000000000E+00  0.00000000000E+00  0.47313386461E+02  0.47313386461E+02  0.00000000000E+00 0. -1.
         21   -1    0    0  501  502 -0.00000000000E+00 -0.00000000000E+00 -0.11153694421E+04  0.11153694421E+04  0.00000000000E+00 0. -1.
      99926    2    1    2    0    0  0.00000000000E+00  0.35527136788E-14 -0.10680560557E+04  0.11626828286E+04  0.45944272967E+03 0.  0.
      99925    2    3    3    0    0  0.11411986611E+03  0.27251859451E+02 -0.65809486924E+03  0.71829370837E+03  0.26285164426E+03 0.  0.
         25    1    4    4    0    0  0.38313819921E+02  0.18712599472E+02 -0.22331420118E+03  0.25948959657E+03  0.12509000000E+03 0.  0.
         25    1    3    3    0    0 -0.11411986611E+03 -0.27251859451E+02 -0.40996118642E+03  0.44438912021E+03  0.12509000000E+03 0.  0.
         25    1    4    4    0    0  0.75806046190E+02  0.85392599796E+01 -0.43478066805E+03  0.45880411181E+03  0.12509000000E+03 0.  0.
<mgrwt>
<rscale>  2 0.45944273E+03</rscale>
<asrwt>0</asrwt>
<pdfrwt beam="1">  1       21 0.69578510E-02 0.45944273E+03</pdfrwt>
<pdfrwt beam="2">  1       21 0.16402492E+00 0.45944273E+03</pdfrwt>
<totfact> 0.32231304E+04</totfact>
</mgrwt>
</event>
<event>
 7    0  0.4709932E-002  0.4571950E+03  0.7546771E-02  0.1025598E+00
         21   -1    0    0  502  501  0.00000000000E+00  0.00000000000E+00  0.13148578647E+03  0.13148578647E+03  0.00000000000E+00 0. -1.
         21   -1    0    0  501  502 -0.00000000000E+00 -0.00000000000E+00 -0.39743317130E+03  0.39743317130E+03  0.00000000000E+00 0. -1.
      99926    2    1    2    0    0  0.00000000000E+00  0.00000000000E+00 -0.26594738483E+03  0.52891895777E+03  0.45719498291E+03 0.  0.
      99925    2    3    3    0    0  0.92147581185E+02 -0.64472410586E+02 -0.13868130741E+03  0.31798761584E+03  0.26312687123E+03 0.  0.
         25    1    4    4    0    0  0.34284896377E+02 -0.71459514247E+02 -0.68377546728E+02  0.16311012627E+03  0.12509000000E+03 0.  0.
         25    1    4    4    0    0  0.57862684808E+02  0.69871036608E+01 -0.70303760677E+02  0.15487748957E+03  0.12509000000E+03 0.  0.
         25    1    3    3    0    0 -0.92147581185E+02  0.64472410586E+02 -0.12726607743E+03  0.21093134193E+03  0.12509000000E+03 0.  0.
<mgrwt>
<rscale>  2 0.45719498E+03</rscale>
<asrwt>0</asrwt>
<pdfrwt beam="1">  1       21 0.19336145E-01 0.45719498E+03</pdfrwt>
<pdfrwt beam="2">  1       21 0.58446055E-01 0.45719498E+03</pdfrwt>
<totfact> 0.62190676E+04</totfact>
</mgrwt>
</event>
<event>
 7    0  0.4709932E-002  0.4565688E+03  0.7546771E-02  0.1025781E+00
         21   -1    0    0  502  501  0.00000000000E+00  0.00000000000E+00  0.32275798985E+03  0.32275798985E+03  0.00000000000E+00 0. -1.
         21   -1    0    0  501  502 -0.00000000000E+00 -0.00000000000E+00 -0.16146391918E+03  0.16146391918E+03  0.00000000000E+00 0. -1.
      99926    2    1    2    0    0  0.14210854715E-13 -0.35527136788E-14  0.16129407066E+03  0.48422190903E+03  0.45656881185E+03 0.  0.
      99925    2    3    3    0    0 -0.65721005428E+02  0.11529034601E+02  0.23730573160E+01  0.27125344710E+03  0.26290802949E+03 0.  0.
         25    1    4    4    0    0 -0.47070276224E+02  0.38209283205E+02  0.21262484979E+02  0.14062418567E+03  0.12509000000E+03 0.  0.
         25    1    3    3    0    0  0.65721005428E+02 -0.11529034601E+02  0.15892101335E+03  0.21296846193E+03  0.12509000000E+03 0.  0.
         25    1    4    4    0    0 -0.18650729204E+02 -0.26680248604E+02 -0.18889427663E+02  0.13062926143E+03  0.12509000000E+03 0.  0.
<mgrwt>
<rscale>  2 0.45656881E+03</rscale>
<asrwt>0</asrwt>
<pdfrwt beam="1">  1       21 0.47464410E-01 0.45656881E+03</pdfrwt>
<pdfrwt beam="2">  1       21 0.23744694E-01 0.45656881E+03</pdfrwt>
<totfact> 0.65573612E+04</totfact>
</mgrwt>
</event>
<event>
 7    0  0.4709932E-002  0.4614691E+03  0.7546771E-02  0.1024356E+00
         21   -1    0    0  502  501  0.00000000000E+00  0.00000000000E+00  0.53932606178E+02  0.53932606178E+02  0.00000000000E+00 0. -1.
         21   -1    0    0  501  502 -0.00000000000E+00 -0.00000000000E+00 -0.98712897892E+03  0.98712897892E+03  0.00000000000E+00 0. -1.
      99926    2    1    2    0    0 -0.71054273576E-14  0.35527136788E-14 -0.93319637274E+03  0.10410615851E+04  0.46146912558E+03 0.  0.
      99925    2    3    3    0    0  0.49546891626E+02 -0.19326123088E+02 -0.82442594265E+03  0.86697279147E+03  0.26293590994E+03 0.  0.
         25    1    4    4    0    0  0.40939926957E+01  0.18759316162E+02 -0.32675638523E+03  0.35040821353E+03  0.12509000000E+03 0.  0.
         25    1    4    4    0    0  0.45452898930E+02 -0.38085439250E+02 -0.49766955741E+03  0.51656457794E+03  0.12509000000E+03 0.  0.
         25    1    3    3    0    0 -0.49546891626E+02  0.19326123088E+02 -0.10877043009E+03  0.17408879362E+03  0.12509000000E+03 0.  0.
<mgrwt>
<rscale>  2 0.46146913E+03</rscale>
<asrwt>0</asrwt>
<pdfrwt beam="1">  1       21 0.79312665E-02 0.46146913E+03</pdfrwt>
<pdfrwt beam="2">  1       21 0.14516601E+00 0.46146913E+03</pdfrwt>
<totfact> 0.35766517E+04</totfact>
</mgrwt>
</event>
<event>
 7    0  0.4709932E-002  0.4728219E+03  0.7546771E-02  0.1021127E+00
         21   -1    0    0  502  501  0.00000000000E+00  0.00000000000E+00  0.10935357352E+03  0.10935357352E+03  0.00000000000E+00 0. -1.
         21   -1    0    0  501  502 -0.00000000000E+00 -0.00000000000E+00 -0.51109556755E+03  0.51109556755E+03  0.00000000000E+00 0. -1.
      99926    2    1    2    0    0  0.71054273576E-14 -0.14210854715E-13 -0.40174199403E+03  0.62044914108E+03  0.47282185535E+03 0.  0.
      99925    2    3    3    0    0  0.57242784436E+02 -0.11500753567E+03 -0.26655546013E+03  0.39589096002E+03  0.26301020754E+03 0.  0.
         25    1    3    3    0    0 -0.57242784436E+02  0.11500753567E+03 -0.13518653390E+03  0.22455818106E+03  0.12509000000E+03 0.  0.
         25    1    4    4    0    0  0.54931134040E+02 -0.86356884251E+02 -0.17510057965E+03  0.23829112875E+03  0.12509000000E+03 0.  0.
         25    1    4    4    0    0  0.23116503955E+01 -0.28650651421E+02 -0.91454880474E+02  0.15759983127E+03  0.12509000000E+03 0.  0.
<mgrwt>
<rscale>  2 0.47282186E+03</rscale>
<asrwt>0</asrwt>
<pdfrwt beam="1">  1       21 0.16081408E-01 0.47282186E+03</pdfrwt>
<pdfrwt beam="2">  1       21 0.75161114E-01 0.47282186E+03</pdfrwt>
<totfact> 0.50016718E+04</totfact>
</mgrwt>
</event>
<event>
 7    0  0.4709932E-002  0.4578888E+03  0.7546771E-02  0.1025395E+00
         21   -1    0    0  502  501  0.00000000000E+00  0.00000000000E+00  0.17890449415E+04  0.17890449415E+04  0.00000000000E+00 0.  1.
         21   -1    0    0  501  502 -0.00000000000E+00 -0.00000000000E+00 -0.29298060138E+02  0.29298060138E+02  0.00000000000E+00 0.  1.
      99926    2    1    2    0    0  0.00000000000E+00  0.00000000000E+00  0.17597468814E+04  0.18183430017E+04  0.45788883492E+03 0.  0.
      99925    2    3    3    0    0  0.42918978872E+02 -0.10732284390E+03  0.10644224305E+04  0.11024632410E+04  0.26281144518E+03 0.  0.
         25    1    4    4    0    0  0.56898125493E+02 -0.57075475960E+02  0.63295970515E+03  0.65021573580E+03  0.12509000000E+03 0.  0.
         25    1    4    4    0    0 -0.13979146621E+02 -0.50247367944E+02  0.43146272536E+03  0.45224750525E+03  0.12509000000E+03 0.  0.
         25    1    3    3    0    0 -0.42918978872E+02  0.10732284390E+03  0.69532445088E+03  0.71587976062E+03  0.12509000000E+03 0.  0.
<mgrwt>
<rscale>  2 0.45788883E+03</rscale>
<asrwt>0</asrwt>
<pdfrwt beam="1">  1       21 0.26309477E+00 0.45788883E+03</pdfrwt>
<pdfrwt beam="2">  1       21 0.43085395E-02 0.45788883E+03</pdfrwt>
<totfact> 0.16535705E+04</totfact>
</mgrwt>
</event>
<event>
 7    0  0.4709932E-002  0.4553116E+03  0.7546771E-02  0.1026150E+00
         21   -1    0    0  502  501  0.00000000000E+00  0.00000000000E+00  0.18537499459E+03  0.18537499459E+03  0.00000000000E+00 0.  1.
         21   -1    0    0  501  502 -0.00000000000E+00 -0.00000000000E+00 -0.27958017214E+03  0.27958017214E+03  0.00000000000E+00 0.  1.
      99926    2    1    2    0    0  0.00000000000E+00  0.00000000000E+00 -0.94205177547E+02  0.46495516673E+03  0.45531164228E+03 0.  0.
      99925    2    3    3    0    0  0.63356237980E+02 -0.94079954846E+02 -0.56949459580E+02  0.29203741919E+03  0.26301627794E+03 0.  0.
         25    1    4    4    0    0  0.51262969920E+02 -0.81240879361E+02 -0.12883227951E+02  0.15824493112E+03  0.12509000000E+03 0.  0.
         25    1    4    4    0    0  0.12093268060E+02 -0.12839075485E+02 -0.44066231629E+02  0.13379248806E+03  0.12509000000E+03 0.  0.
         25    1    3    3    0    0 -0.63356237980E+02  0.94079954846E+02 -0.37255717968E+02  0.17291774755E+03  0.12509000000E+03 0.  0.
<mgrwt>
<rscale>  2 0.45531164E+03</rscale>
<asrwt>0</asrwt>
<pdfrwt beam="1">  1       21 0.27261029E-01 0.45531164E+03</pdfrwt>
<pdfrwt beam="2">  1       21 0.41114731E-01 0.45531164E+03</pdfrwt>
<totfact> 0.67645879E+04</totfact>
</mgrwt>
</event>
<event>
 7    0  0.4709932E-002  0.4491586E+03  0.7546771E-02  0.1027973E+00
         21   -1    0    0  502  501  0.00000000000E+00  0.00000000000E+00  0.58084946389E+03  0.58084946389E+03  0.00000000000E+00 0.  1.
         21   -1    0    0  501  502 -0.00000000000E+00 -0.00000000000E+00 -0.86831229425E+02  0.86831229425E+02  0.00000000000E+00 0.  1.
      99926    2    1    2    0    0  0.17763568394E-14 -0.14210854715E-13  0.49401823446E+03  0.66768069331E+03  0.44915864930E+03 0.  0.
      99925    2    3    3    0    0 -0.47077359117E+01  0.10015948404E+03  0.25467040233E+03  0.37960261732E+03  0.26303430999E+03 0.  0.
         25    1    4    4    0    0  0.99740919599E+01  0.56372794114E+02  0.77616094761E+02  0.15795296988E+03  0.12509000000E+03 0.  0.
         25    1    3    3    0    0  0.47077359117E+01 -0.10015948404E+03  0.23934783214E+03  0.28807807600E+03  0.12509000000E+03 0.  0.
         25    1    4    4    0    0 -0.14681827872E+02  0.43786689922E+02  0.17705430756E+03  0.22164964744E+03  0.12509000000E+03 0.  0.
<mgrwt>
<rscale>  2 0.44915865E+03</rscale>
<asrwt>0</asrwt>
<pdfrwt beam="1">  1       21 0.85419037E-01 0.44915865E+03</pdfrwt>
<pdfrwt beam="2">  1       21 0.12769299E-01 0.44915865E+03</pdfrwt>
<totfact> 0.57284901E+04</totfact>
</mgrwt>
</event>
<event>
 7    0  0.4709932E-002  0.4542291E+03  0.7546771E-02  0.1026468E+00
         21   -1    0    0  502  501  0.00000000000E+00  0.00000000000E+00  0.17428046642E+03  0.17428046642E+03  0.00000000000E+00 0.  1.
         21   -1    0    0  501  502 -0.00000000000E+00 -0.00000000000E+00 -0.29596557638E+03  0.29596557638E+03  0.00000000000E+00 0.  1.
      99926    2    1    2    0    0  0.00000000000E+00  0.71054273576E-14 -0.12168510996E+03  0.47024604280E+03  0.45422909945E+03 0.  0.
      99925    2    3    3    0    0  0.88794974448E+02 -0.54607284172E+02 -0.33472628564E+02  0.28505572733E+03  0.26319165611E+03 0.  0.
         25    1    4    4    0    0  0.29760792210E+02 -0.52881369721E+02 -0.45286964563E+02  0.14622093310E+03  0.12509000000E+03 0.  0.
         25    1    3    3    0    0 -0.88794974448E+02  0.54607284172E+02 -0.88212481396E+02  0.18519031548E+03  0.12509000000E+03 0.  0.
         25    1    4    4    0    0  0.59034182238E+02 -0.17259144509E+01  0.11814335999E+02  0.13883479423E+03  0.12509000000E+03 0.  0.
<mgrwt>
<rscale>  2 0.45422910E+03</rscale>
<asrwt>0</asrwt>
<pdfrwt beam="1">  1       21 0.25629480E-01 0.45422910E+03</pdfrwt>
<pdfrwt beam="2">  1       21 0.43524350E-01 0.45422910E+03</pdfrwt>
<totfact> 0.67831308E+04</totfact>
</mgrwt>
</event>
<event>
 7    0  0.4709932E-002  0.4456167E+03  0.7546771E-02  0.1029037E+00
         21   -1    0    0  502  501  0.00000000000E+00  0.00000000000E+00  0.95436689345E+02  0.95436689345E+02  0.00000000000E+00 0.  1.
         21   -1    0    0  501  502 -0.00000000000E+00 -0.00000000000E+00 -0.52017262102E+03  0.52017262102E+03  0.00000000000E+00 0.  1.
      99926    2    1    2    0    0  0.35527136788E-14  0.00000000000E+00 -0.42473593168E+03  0.61560931037E+03  0.44561666413E+03 0.  0.
      99925    2    3    3    0    0  0.49986682899E+01 -0.89169373570E+02 -0.34049247260E+03  0.44033628801E+03  0.26454632633E+03 0.  0.
         25    1    4    4    0    0  0.39841873014E+02 -0.64664062780E+02 -0.16301831708E+03  0.21906915727E+03  0.12509000000E+03 0.  0.
         25    1    3    3    0    0 -0.49986682899E+01  0.89169373570E+02 -0.84243459074E+02  0.17527302235E+03  0.12509000000E+03 0.  0.
         25    1    4    4    0    0 -0.34843204724E+02 -0.24505310790E+02 -0.17747415552E+03  0.22126713075E+03  0.12509000000E+03 0.  0.
<mgrwt>
<rscale>  2 0.44561666E+03</rscale>
<asrwt>0</asrwt>
<pdfrwt beam="1">  1       21 0.14034807E-01 0.44561666E+03</pdfrwt>
<pdfrwt beam="2">  1       21 0.76495974E-01 0.44561666E+03</pdfrwt>
<totfact> 0.62210963E+04</totfact>
</mgrwt>
</event>
<event>
 7    0  0.4709932E-002  0.4582216E+03  0.7546771E-02  0.1025298E+00
         21   -1    0    0  502  501  0.00000000000E+00  0.00000000000E+00  0.38787181823E+03  0.38787181823E+03  0.00000000000E+00 0. -1.
         21   -1    0    0  501  502 -0.00000000000E+00 -0.00000000000E+00 -0.13533272470E+03  0.13533272470E+03  0.00000000000E+00 0. -1.
      99926    2    1    2    0    0  0.00000000000E+00  0.00000000000E+00  0.25253909353E+03  0.52320454293E+03  0.45822156211E+03 0.  0.
      99925    2    3    3    0    0  0.40885729308E+02 -0.11423537989E+02  0.28203233542E+03  0.38785499732E+03  0.26284428973E+03 0.  0.
         25    1    4    4    0    0 -0.60808513701E+01 -0.35969376681E+02  0.13283645095E+03  0.18607472589E+03  0.12509000000E+03 0.  0.
         25    1    3    3    0    0 -0.40885729308E+02  0.11423537989E+02 -0.29493241885E+02  0.13534954561E+03  0.12509000000E+03 0.  0.
         25    1    4    4    0    0  0.46966580678E+02  0.24545838692E+02  0.14919588446E+03  0.20178027143E+03  0.12509000000E+03 0.  0.
<mgrwt>
<rscale>  2 0.45822156E+03</rscale>
<asrwt>0</asrwt>
<pdfrwt beam="1">  1       21 0.57039973E-01 0.45822156E+03</pdfrwt>
<pdfrwt beam="2">  1       21 0.19901871E-01 0.45822156E+03</pdfrwt>
<totfact> 0.62067867E+04</totfact>
</mgrwt>
</event>
<event>
 7    0  0.4709932E-002  0.4621738E+03  0.7546771E-02  0.1024153E+00
         21   -1    0    0  502  501  0.00000000000E+00  0.00000000000E+00  0.62455976052E+03  0.62455976052E+03  0.00000000000E+00 0.  1.
         21   -1    0    0  501  502 -0.00000000000E+00 -0.00000000000E+00 -0.85502067036E+02  0.85502067036E+02  0.00000000000E+00 0.  1.
      99926    2    1    2    0    0  0.00000000000E+00  0.00000000000E+00  0.53905769349E+03  0.71006182756E+03  0.46217377906E+03 0.  0.
      99925    2    3    3    0    0 -0.58327421516E+02  0.17394161278E+02  0.17866967875E+03  0.32375667070E+03  0.26304159894E+03 0.  0.
         25    1    3    3    0    0  0.58327421516E+02 -0.17394161278E+02  0.36038801474E+03  0.38630515686E+03  0.12509000000E+03 0.  0.
         25    1    4    4    0    0  0.80942252423E+01  0.48817425033E+01  0.62519080649E+02  0.14016237526E+03  0.12509000000E+03 0.  0.
         25    1    4    4    0    0 -0.66421646758E+02  0.12512418775E+02  0.11615059810E+03  0.18359429545E+03  0.12509000000E+03 0.  0.
<mgrwt>
<rscale>  2 0.46217378E+03</rscale>
<asrwt>0</asrwt>
<pdfrwt beam="1">  1       21 0.91847021E-01 0.46217378E+03</pdfrwt>
<pdfrwt beam="2">  1       21 0.12573834E-01 0.46217378E+03</pdfrwt>
<totfact> 0.49506117E+04</totfact>
</mgrwt>
</event>
<event>
 7    0  0.4709932E-002  0.4542994E+03  0.7546771E-02  0.1026448E+00
         21   -1    0    0  502  501  0.00000000000E+00  0.00000000000E+00  0.24568117912E+03  0.24568117912E+03  0.00000000000E+00 0. -1.
         21   -1    0    0  501  502 -0.00000000000E+00 -0.00000000000E+00 -0.21001602287E+03  0.21001602287E+03  0.00000000000E+00 0. -1.
      99926    2    1    2    0    0 -0.14210854715E-13  0.00000000000E+00  0.35665156244E+02  0.45569720199E+03  0.45429939085E+03 0.  0.
      99925    2    3    3    0    0 -0.86194278719E+02  0.67691701596E+02 -0.28500246945E+01  0.28498531778E+03  0.26305301473E+03 0.  0.
         25    1    4    4    0    0 -0.95833964028E+01  0.35795378968E+02 -0.26195609213E+02  0.13306715855E+03  0.12509000000E+03 0.  0.
         25    1    4    4    0    0 -0.76610882316E+02  0.31896322628E+02  0.23345584518E+02  0.15191815923E+03  0.12509000000E+03 0.  0.
         25    1    3    3    0    0  0.86194278719E+02 -0.67691701596E+02  0.38515180939E+02  0.17071188421E+03  0.12509000000E+03 0.  0.
<mgrwt>
<rscale>  2 0.45429939E+03</rscale>
<asrwt>0</asrwt>
<pdfrwt beam="1">  1       21 0.36129585E-01 0.45429939E+03</pdfrwt>
<pdfrwt beam="2">  1       21 0.30884709E-01 0.45429939E+03</pdfrwt>
<totfact> 0.68879006E+04</totfact>
</mgrwt>
</event>
<event>
 7    0  0.4709932E-002  0.4540474E+03  0.7546771E-02  0.1026522E+00
         21   -1    0    0  502  501  0.00000000000E+00  0.00000000000E+00  0.33657577545E+03  0.33657577545E+03  0.00000000000E+00 0.  1.
         21   -1    0    0  501  502 -0.00000000000E+00 -0.00000000000E+00 -0.15312972145E+03  0.15312972145E+03  0.00000000000E+00 0.  1.
      99926    2    1    2    0    0  0.00000000000E+00  0.00000000000E+00  0.18344605400E+03  0.48970549690E+03  0.45404737525E+03 0.  0.
      99925    2    3    3    0    0 -0.52266811945E+02  0.83364745578E+02  0.57194254588E+02  0.28655893555E+03  0.26298923998E+03 0.  0.
         25    1    4    4    0    0 -0.13483097814E+02  0.76252239034E+02  0.11094642794E+02  0.14753574849E+03  0.12509000000E+03 0.  0.
         25    1    3    3    0    0  0.52266811945E+02 -0.83364745578E+02  0.12625179941E+03  0.20314656136E+03  0.12509000000E+03 0.  0.
         25    1    4    4    0    0 -0.38783714130E+02  0.71125065444E+01  0.46099611794E+02  0.13902318705E+03  0.12509000000E+03 0.  0.
<mgrwt>
<rscale>  2 0.45404738E+03</rscale>
<asrwt>0</asrwt>
<pdfrwt beam="1">  1       21 0.49496437E-01 0.45404738E+03</pdfrwt>
<pdfrwt beam="2">  1       21 0.22519077E-01 0.45404738E+03</pdfrwt>
<totfact> 0.66501610E+04</totfact>
</mgrwt>
</event>
<event>
 7    0  0.4709932E-002  0.4535573E+03  0.7546771E-02  0.1026666E+00
         21   -1    0    0  502  501  0.00000000000E+00  0.00000000000E+00  0.27316444136E+02  0.27316444136E+02  0.00000000000E+00 0.  1.
         21   -1    0    0  501  502 -0.00000000000E+00 -0.00000000000E+00 -0.18826962362E+04  0.18826962362E+04  0.00000000000E+00 0.  1.
      99926    2    1    2    0    0  0.00000000000E+00  0.00000000000E+00 -0.18553797921E+04  0.19100126803E+04  0.45355734615E+03 0.  0.
      99925    2    3    3    0    0  0.98545523657E+02  0.52727809247E+02 -0.11817080211E+04  0.12157702117E+04  0.26300554849E+03 0.  0.
         25    1    4    4    0    0  0.68689889587E+02  0.62665887513E+02 -0.59773102519E+03  0.61771773568E+03  0.12509000000E+03 0.  0.
         25    1    3    3    0    0 -0.98545523657E+02 -0.52727809247E+02 -0.67367177102E+03  0.69424246864E+03  0.12509000000E+03 0.  0.
         25    1    4    4    0    0  0.29855634070E+02 -0.99380782662E+01 -0.58397699586E+03  0.59805247602E+03  0.12509000000E+03 0.  0.
<mgrwt>
<rscale>  2 0.45355735E+03</rscale>
<asrwt>0</asrwt>
<pdfrwt beam="1">  1       21 0.40171232E-02 0.45355735E+03</pdfrwt>
<pdfrwt beam="2">  1       21 0.27686716E+00 0.45355735E+03</pdfrwt>
<totfact> 0.15406821E+04</totfact>
</mgrwt>
</event>
<event>
 7    0  0.4709932E-002  0.4491373E+03  0.7546771E-02  0.1027980E+00
         21   -1    0    0  502  501  0.00000000000E+00  0.00000000000E+00  0.17569372280E+03  0.17569372280E+03  0.00000000000E+00 0. -1.
         21   -1    0    0  501  502 -0.00000000000E+00 -0.00000000000E+00 -0.28703974280E+03  0.28703974280E+03  0.00000000000E+00 0. -1.
      99926    2    1    2    0    0  0.14210854715E-13  0.35527136788E-14 -0.11134602000E+03  0.46273346560E+03  0.44913731087E+03 0.  0.
      99925    2    3    3    0    0 -0.10594375126E+03 -0.16272798058E+02 -0.67152900141E+02  0.29217725103E+03  0.26338024154E+03 0.  0.
         25    1    4    4    0    0 -0.83592811523E+02 -0.81930568074E+01 -0.66879520237E+02  0.16484921184E+03  0.12509000000E+03 0.  0.
         25    1    3    3    0    0  0.10594375126E+03  0.16272798058E+02 -0.44193119856E+02  0.17055621458E+03  0.12509000000E+03 0.  0.
         25    1    4    4    0    0 -0.22350939737E+02 -0.80797412507E+01 -0.27337990463E+00  0.12732803918E+03  0.12509000000E+03 0.  0.
<mgrwt>
<rscale>  2 0.44913731E+03</rscale>
<asrwt>0</asrwt>
<pdfrwt beam="1">  1       21 0.25837312E-01 0.44913731E+03</pdfrwt>
<pdfrwt beam="2">  1       21 0.42211727E-01 0.44913731E+03</pdfrwt>
<totfact> 0.71235711E+04</totfact>
</mgrwt>
</event>
<event>
 7    0  0.4709932E-002  0.4556465E+03  0.7546771E-02  0.1026051E+00
         21   -1    0    0  502  501  0.00000000000E+00  0.00000000000E+00  0.25133437090E+03  0.25133437090E+03  0.00000000000E+00 0. -1.
         21   -1    0    0  501  502 -0.00000000000E+00 -0.00000000000E+00 -0.20651145016E+03  0.20651145016E+03  0.00000000000E+00 0. -1.
      99926    2    1    2    0    0  0.00000000000E+00  0.00000000000E+00  0.44822920736E+02  0.45784582107E+03  0.45564646563E+03 0.  0.
      99925    2    3    3    0    0 -0.29151677290E+02 -0.82678722830E+02  0.98708352464E+02  0.29586823203E+03  0.26478119340E+03 0.  0.
         25    1    4    4    0    0 -0.43614034951E+02 -0.28684227122E+02  0.17688354309E+02  0.13669438507E+03  0.12509000000E+03 0.  0.
         25    1    3    3    0    0  0.29151677290E+02  0.82678722830E+02 -0.53885431728E+02  0.16197758904E+03  0.12509000000E+03 0.  0.
         25    1    4    4    0    0  0.14462357661E+02 -0.53994495708E+02  0.81019998155E+02  0.15917384696E+03  0.12509000000E+03 0.  0.
<mgrwt>
<rscale>  2 0.45564647E+03</rscale>
<asrwt>0</asrwt>
<pdfrwt beam="1">  1       21 0.36960937E-01 0.45564647E+03</pdfrwt>
<pdfrwt beam="2">  1       21 0.30369331E-01 0.45564647E+03</pdfrwt>
<totfact> 0.67986464E+04</totfact>
</mgrwt>
</event>
<event>
 7    0  0.4709932E-002  0.4596900E+03  0.7546771E-02  0.1024871E+00
         21   -1    0    0  502  501  0.00000000000E+00  0.00000000000E+00  0.69858219041E+03  0.69858219041E+03  0.00000000000E+00 0.  1.
         21   -1    0    0  501  502 -0.00000000000E+00 -0.00000000000E+00 -0.75622777254E+02  0.75622777254E+02  0.00000000000E+00 0.  1.
      99926    2    1    2    0    0 -0.53290705182E-14  0.00000000000E+00  0.62295941315E+03  0.77420496766E+03  0.45969000589E+03 0.  0.
      99925    2    3    3    0    0  0.10360479143E+02 -0.98419605766E+02  0.49872191097E+03  0.57202627596E+03  0.26210066308E+03 0.  0.
         25    1    4    4    0    0 -0.32385539113E+02 -0.37077731145E+02  0.23829718307E+03  0.27359940945E+03  0.12509000000E+03 0.  0.
         25    1    4    4    0    0  0.42746018257E+02 -0.61341874620E+02  0.26042472790E+03  0.29842686652E+03  0.12509000000E+03 0.  0.
         25    1    3    3    0    0 -0.10360479143E+02  0.98419605766E+02  0.12423750219E+03  0.20217869170E+03  0.12509000000E+03 0.  0.
<mgrwt>
<rscale>  2 0.45969001E+03</rscale>
<asrwt>0</asrwt>
<pdfrwt beam="1">  1       21 0.10273267E+00 0.45969001E+03</pdfrwt>
<pdfrwt beam="2">  1       21 0.11120997E-01 0.45969001E+03</pdfrwt>
<totfact> 0.47273263E+04</totfact>
</mgrwt>
</event>
<event>
 6    0  0.4709932E-002  0.4543670E+03  0.7546771E-02  0.1026428E+00
         21   -1    0    0  502  501  0.00000000000E+00  0.00000000000E+00  0.24766401207E+03  0.24766401207E+03  0.00000000000E+00 0.  1.
         21   -1    0    0  501  502 -0.00000000000E+00 -0.00000000000E+00 -0.20839662703E+03  0.20839662703E+03  0.00000000000E+00 0.  1.
      99926    2    1    2    0    0  0.00000000000E+00  0.00000000000E+00  0.39267385047E+02  0.45606063910E+03  0.45436700915E+03 0.  0.
         25    1    3    3    0    0 -0.26414405999E+01  0.11273987884E+03  0.35957371479E+02  0.17221410556E+03  0.12509000000E+03 0.  0.
         25    1    3    3    0    0  0.30768286866E+02 -0.49112625742E+02 -0.18367507248E+02  0.13908131041E+03  0.12509000000E+03 0.  0.
         25    1    3    3    0    0 -0.28126846266E+02 -0.63627253099E+02  0.21677520816E+02  0.14476522313E+03  0.12509000000E+03 0.  0.
<mgrwt>
<rscale>  2 0.45436701E+03</rscale>
<asrwt>0</asrwt>
<pdfrwt beam="1">  1       21 0.36421178E-01 0.45436701E+03</pdfrwt>
<pdfrwt beam="2">  1       21 0.30646563E-01 0.45436701E+03</pdfrwt>
<totfact> 0.68815074E+04</totfact>
</mgrwt>
</event>
<event>
 7    0  0.4709932E-002  0.4570963E+03  0.7546771E-02  0.1025627E+00
         21   -1    0    0  502  501  0.00000000000E+00  0.00000000000E+00  0.19692594582E+03  0.19692594582E+03  0.00000000000E+00 0. -1.
         21   -1    0    0  501  502 -0.00000000000E+00 -0.00000000000E+00 -0.26524818098E+03  0.26524818098E+03  0.00000000000E+00 0. -1.
      99926    2    1    2    0    0  0.00000000000E+00  0.00000000000E+00 -0.68322235162E+02  0.46217412680E+03  0.45709626521E+03 0.  0.
      99925    2    3    3    0    0 -0.68378553522E+02  0.87293454532E+02 -0.12279152125E+02  0.28586726635E+03  0.26319867516E+03 0.  0.
         25    1    3    3    0    0  0.68378553522E+02 -0.87293454532E+02 -0.56043083037E+02  0.17630686045E+03  0.12509000000E+03 0.  0.
         25    1    4    4    0    0  0.40319107247E+01  0.55572966738E+02  0.40105809180E+01  0.13699709411E+03  0.12509000000E+03 0.  0.
         25    1    4    4    0    0 -0.72410464247E+02  0.31720487794E+02 -0.16289733043E+02  0.14887017223E+03  0.12509000000E+03 0.  0.
<mgrwt>
<rscale>  2 0.45709627E+03</rscale>
<asrwt>0</asrwt>
<pdfrwt beam="1">  1       21 0.28959698E-01 0.45709627E+03</pdfrwt>
<pdfrwt beam="2">  1       21 0.39007085E-01 0.45709627E+03</pdfrwt>
<totfact> 0.66897081E+04</totfact>
</mgrwt>
</event>
<event>
 7    0  0.4709932E-002  0.4522553E+03  0.7546771E-02  0.1027052E+00
         21   -1    0    0  502  501  0.00000000000E+00  0.00000000000E+00  0.41368374404E+03  0.41368374404E+03  0.00000000000E+00 0.  1.
         21   -1    0    0  501  502 -0.00000000000E+00 -0.00000000000E+00 -0.12360579611E+03  0.12360579611E+03  0.00000000000E+00 0.  1.
      99926    2    1    2    0    0  0.00000000000E+00  0.00000000000E+00  0.29007794793E+03  0.53728954016E+03  0.45225527536E+03 0.  0.
      99925    2    3    3    0    0 -0.45224478406E+02 -0.81903867431E+02  0.25316872663E+03  0.37678005239E+03  0.26289790183E+03 0.  0.
         25    1    4    4    0    0 -0.23229699132E+02 -0.41652951787E+02  0.18138382719E+03  0.22543777009E+03  0.12509000000E+03 0.  0.
         25    1    3    3    0    0  0.45224478406E+02  0.81903867431E+02  0.36909221303E+02  0.16050948777E+03  0.12509000000E+03 0.  0.
         25    1    4    4    0    0 -0.21994779274E+02 -0.40250915644E+02  0.71784899433E+02  0.15134228230E+03  0.12509000000E+03 0.  0.
<mgrwt>
<rscale>  2 0.45225528E+03</rscale>
<asrwt>0</asrwt>
<pdfrwt beam="1">  1       21 0.60835844E-01 0.45225528E+03</pdfrwt>
<pdfrwt beam="2">  1       21 0.18177323E-01 0.45225528E+03</pdfrwt>
<totfact> 0.64095357E+04</totfact>
</mgrwt>
</event>
<event>
 7    0  0.4709932E-002  0.4538719E+03  0.7546771E-02  0.1026574E+00
         21   -1    0    0  502  501  0.00000000000E+00  0.00000000000E+00  0.91507477239E+02  0.91507477239E+02  0.00000000000E+00 0. -1.
         21   -1    0    0  501  502 -0.00000000000E+00 -0.00000000000E+00 -0.56279480345E+03  0.56279480345E+03  0.00000000000E+00 0. -1.
      99926    2    1    2    0    0  0.00000000000E+00  0.00000000000E+00 -0.47128732622E+03  0.65430228069E+03  0.45387193201E+03 0.  0.
      99925    2    3    3    0    0  0.69040121429E+02 -0.88266939515E+02 -0.31172993829E+03  0.42264810068E+03  0.26248480261E+03 0.  0.
         25    1    3    3    0    0 -0.69040121429E+02  0.88266939515E+02 -0.15955738792E+03  0.23165418002E+03  0.12509000000E+03 0.  0.
         25    1    4    4    0    0  0.49268393474E+02 -0.81426993450E+02 -0.15158523646E+03  0.21836511138E+03  0.12509000000E+03 0.  0.
         25    1    4    4    0    0  0.19771727954E+02 -0.68399460653E+01 -0.16014470184E+03  0.20428298929E+03  0.12509000000E+03 0.  0.
<mgrwt>
<rscale>  2 0.45387193E+03</rscale>
<asrwt>0</asrwt>
<pdfrwt beam="1">  1       21 0.13456982E-01 0.45387193E+03</pdfrwt>
<pdfrwt beam="2">  1       21 0.82763942E-01 0.45387193E+03</pdfrwt>
<totfact> 0.55950502E+04</totfact>
</mgrwt>
</event>
<event>
 7    0  0.4709932E-002  0.4560762E+03  0.7546771E-02  0.1025925E+00
         21   -1    0    0  502  501  0.00000000000E+00  0.00000000000E+00  0.51959124872E+03  0.51959124872E+03  0.00000000000E+00 0.  1.
         21   -1    0    0  501  502 -0.00000000000E+00 -0.00000000000E+00 -0.10008129703E+03  0.10008129703E+03  0.00000000000E+00 0.  1.
      99926    2    1    2    0    0  0.00000000000E+00 -0.17763568394E-14  0.41950995169E+03  0.61967254576E+03  0.45607616074E+03 0.  0.
      99925    2    3    3    0    0  0.65914862713E+01 -0.12622305060E+02  0.10972763004E+03  0.28528449995E+03  0.26295308106E+03 0.  0.
         25    1    4    4    0    0  0.25383622632E+02  0.19122865950E+02  0.30259231379E+02  0.13256372612E+03  0.12509000000E+03 0.  0.
         25    1    4    4    0    0 -0.18792136361E+02 -0.31745171010E+02  0.79468398664E+02  0.15272077382E+03  0.12509000000E+03 0.  0.
         25    1    3    3    0    0 -0.65914862713E+01  0.12622305060E+02  0.30978232164E+03  0.33438804581E+03  0.12509000000E+03 0.  0.
<mgrwt>
<rscale>  2 0.45607616E+03</rscale>
<asrwt>0</asrwt>
<pdfrwt beam="1">  1       21 0.76410477E-01 0.45607616E+03</pdfrwt>
<pdfrwt beam="2">  1       21 0.14717838E-01 0.45607616E+03</pdfrwt>
<totfact> 0.56997507E+04</totfact>
</mgrwt>
</event>
<event>
 7    0  0.4709932E-002  0.4546676E+03  0.7546771E-02  0.1026339E+00
         21   -1    0    0  502  501  0.00000000000E+00  0.00000000000E+00  0.74967819075E+02  0.74967819075E+02  0.00000000000E+00 0. -1.
         21   -1    0    0  501  502 -0.00000000000E+00 -0.00000000000E+00 -0.68937113718E+03  0.68937113718E+03  0.00000000000E+00 0. -1.
      99926    2    1    2    0    0  0.00000000000E+00  0.00000000000E+00 -0.61440331811E+03  0.76433895626E+03  0.45466757390E+03 0.  0.
      99925    2    3    3    0    0 -0.54355385491E+02  0.76628711270E+02 -0.49202289754E+03  0.56571634234E+03  0.26291059499E+03 0.  0.
         25    1    3    3    0    0  0.54355385491E+02 -0.76628711270E+02 -0.12238042057E+03  0.19862261392E+03  0.12509000000E+03 0.  0.
         25    1    4    4    0    0 -0.89806746156E+01  0.59926012138E+02 -0.19147744630E+03  0.23660705820E+03  0.12509000000E+03 0.  0.
         25    1    4    4    0    0 -0.45374710876E+02  0.16702699133E+02 -0.30054545124E+03  0.32910928414E+03  0.12509000000E+03 0.  0.
<mgrwt>
<rscale>  2 0.45466757E+03</rscale>
<asrwt>0</asrwt>
<pdfrwt beam="1">  1       21 0.11024679E-01 0.45466757E+03</pdfrwt>
<pdfrwt beam="2">  1       21 0.10137811E+00 0.45466757E+03</pdfrwt>
<totfact> 0.49667327E+04</totfact>
</mgrwt>
</event>
<event>
 7    0  0.4709932E-002  0.4546770E+03  0.7546771E-02  0.1026336E+00
         21   -1    0    0  502  501  0.00000000000E+00  0.00000000000E+00  0.39460225003E+03  0.39460225003E+03  0.00000000000E+00 0. -1.
         21   -1    0    0  501  502 -0.00000000000E+00 -0.00000000000E+00 -0.13097439307E+03  0.13097439307E+03  0.00000000000E+00 0. -1.
      99926    2    1    2    0    0  0.00000000000E+00  0.00000000000E+00  0.26362785696E+03  0.52557664310E+03  0.45467698513E+03 0.  0.
      99925    2    3    3    0    0  0.82810733522E+02 -0.27354932302E+02  0.24869240586E+03  0.37235626029E+03  0.26305011298E+03 0.  0.
         25    1    4    4    0    0  0.66867712387E+02 -0.14885038960E+02  0.87510036719E+02  0.16732713459E+03  0.12509000000E+03 0.  0.
         25    1    4    4    0    0  0.15943021135E+02 -0.12469893342E+02  0.16118236914E+03  0.20502912570E+03  0.12509000000E+03 0.  0.
         25    1    3    3    0    0 -0.82810733522E+02  0.27354932302E+02  0.14935451100E+02  0.15322038281E+03  0.12509000000E+03 0.  0.
<mgrwt>
<rscale>  2 0.45467699E+03</rscale>
<asrwt>0</asrwt>
<pdfrwt beam="1">  1       21 0.58029742E-01 0.45467699E+03</pdfrwt>
<pdfrwt beam="2">  1       21 0.19260940E-01 0.45467699E+03</pdfrwt>
<totfact> 0.63669829E+04</totfact>
</mgrwt>
</event>
<event>
 7    0  0.4709932E-002  0.4755120E+03  0.7546771E-02  0.1020376E+00
         21   -1    0    0  502  501  0.00000000000E+00  0.00000000000E+00  0.26952212931E+03  0.26952212931E+03  0.00000000000E+00 0.  1.
         21   -1    0    0  501  502 -0.00000000000E+00 -0.00000000000E+00 -0.20973386984E+03  0.20973386984E+03  0.00000000000E+00 0.  1.
      99926    2    1    2    0    0  0.00000000000E+00  0.00000000000E+00  0.59788259464E+02  0.47925599915E+03  0.47551201536E+03 0.  0.
      99925    2    3    3    0    0  0.89101304409E+02 -0.93910543136E+02  0.11558795536E+02  0.29289124430E+03  0.26247560396E+03 0.  0.
         25    1    4    4    0    0  0.34026272724E+02 -0.97799756909E+01 -0.12498324102E+02  0.13060302969E+03  0.12509000000E+03 0.  0.
         25    1    4    4    0    0  0.55075031685E+02 -0.84130567445E+02  0.24057119637E+02  0.16228821460E+03  0.12509000000E+03 0.  0.
         25    1    3    3    0    0 -0.89101304409E+02  0.93910543136E+02  0.48229463928E+02  0.18636475485E+03  0.12509000000E+03 0.  0.
<mgrwt>
<rscale>  2 0.47551202E+03</rscale>
<asrwt>0</asrwt>
<pdfrwt beam="1">  1       21 0.39635608E-01 0.47551202E+03</pdfrwt>
<pdfrwt beam="2">  1       21 0.30843216E-01 0.47551202E+03</pdfrwt>
<totfact> 0.56904710E+04</totfact>
</mgrwt>
</event>
<event>
 7    0  0.4709932E-002  0.4402205E+03  0.7546771E-02  0.1030679E+00
         21   -1    0    0  502  501  0.00000000000E+00  0.00000000000E+00  0.67743847063E+02  0.67743847063E+02  0.00000000000E+00 0. -1.
         21   -1    0    0  501  502 -0.00000000000E+00 -0.00000000000E+00 -0.71517235395E+03  0.71517235395E+03  0.00000000000E+00 0. -1.
      99926    2    1    2    0    0  0.00000000000E+00  0.35527136788E-14 -0.64742850689E+03  0.78291620102E+03  0.44022052006E+03 0.  0.
      99925    2    3    3    0    0 -0.83425280100E+02  0.14728630554E+02 -0.50162344147E+03  0.57295588305E+03  0.26358235330E+03 0.  0.
         25    1    4    4    0    0 -0.78262439780E+01  0.32887715593E+02 -0.23430878118E+03  0.26775168528E+03  0.12509000000E+03 0.  0.
         25    1    3    3    0    0  0.83425280100E+02 -0.14728630554E+02 -0.14580506543E+03  0.20996031797E+03  0.12509000000E+03 0.  0.
         25    1    4    4    0    0 -0.75599036122E+02 -0.18159085039E+02 -0.26731466028E+03  0.30520419777E+03  0.12509000000E+03 0.  0.
<mgrwt>
<rscale>  2 0.44022052E+03</rscale>
<asrwt>0</asrwt>
<pdfrwt beam="1">  1       21 0.99623301E-02 0.44022052E+03</pdfrwt>
<pdfrwt beam="2">  1       21 0.10517241E+00 0.44022052E+03</pdfrwt>
<totfact> 0.54674259E+04</totfact>
</mgrwt>
</event>
<event>
 7    0  0.4709932E-002  0.4553846E+03  0.7546771E-02  0.1026128E+00
         21   -1    0    0  502  501  0.00000000000E+00  0.00000000000E+00  0.37268240763E+03  0.37268240763E+03  0.00000000000E+00 0.  1.
         21   -1    0    0  501  502 -0.00000000000E+00 -0.00000000000E+00 -0.13910981803E+03  0.13910981803E+03  0.00000000000E+00 0.  1.
      99926    2    1    2    0    0  0.44408920985E-15  0.00000000000E+00  0.23357258960E+03  0.51179222566E+03  0.45538459310E+03 0.  0.
      99925    2    3    3    0    0 -0.21568930438E+01  0.11314188747E+03  0.13804450576E+03  0.31793954502E+03  0.26310364846E+03 0.  0.
         25    1    4    4    0    0  0.34783338191E+02  0.36202863140E+02  0.70740121637E+02  0.15222417950E+03  0.12509000000E+03 0.  0.
         25    1    4    4    0    0 -0.36940231235E+02  0.76939024330E+02  0.67304384121E+02  0.16571536552E+03  0.12509000000E+03 0.  0.
         25    1    3    3    0    0  0.21568930438E+01 -0.11314188747E+03  0.95528083843E+02  0.19385268064E+03  0.12509000000E+03 0.  0.
<mgrwt>
<rscale>  2 0.45538459E+03</rscale>
<asrwt>0</asrwt>
<pdfrwt beam="1">  1       21 0.54806236E-01 0.45538459E+03</pdfrwt>
<pdfrwt beam="2">  1       21 0.20457326E-01 0.45538459E+03</pdfrwt>
<totfact> 0.64253577E+04</totfact>
</mgrwt>
</event>
<event>
 7    0  0.4709932E-002  0.4307458E+03  0.7546771E-02  0.1033625E+00
         21   -1    0    0  502  501  0.00000000000E+00  0.00000000000E+00  0.25489701998E+03  0.25489701998E+03  0.00000000000E+00 0. -1.
         21   -1    0    0  501  502 -0.00000000000E+00 -0.00000000000E+00 -0.18197732300E+03  0.18197732300E+03  0.00000000000E+00 0. -1.
      99926    2    1    2    0    0  0.35527136788E-14  0.35527136788E-14  0.72919696982E+02  0.43687434298E+03  0.43074575952E+03 0.  0.
      99925    2    3    3    0    0 -0.30458973005E+02 -0.21299154407E+02 -0.34608374436E+02  0.26778502558E+03  0.26292523144E+03 0.  0.
         25    1    4    4    0    0 -0.45988457786E+02 -0.26444571124E+02 -0.39612368663E+02  0.14153056717E+03  0.12509000000E+03 0.  0.
         25    1    3    3    0    0  0.30458973005E+02  0.21299154407E+02  0.10752807142E+03  0.16908931740E+03  0.12509000000E+03 0.  0.
         25    1    4    4    0    0  0.15529484781E+02  0.51454167169E+01  0.50039942276E+01  0.12625445841E+03  0.12509000000E+03 0.  0.
<mgrwt>
<rscale>  2 0.43074576E+03</rscale>
<asrwt>0</asrwt>
<pdfrwt beam="1">  1       21 0.37484856E-01 0.43074576E+03</pdfrwt>
<pdfrwt beam="2">  1       21 0.26761371E-01 0.43074576E+03</pdfrwt>
<totfact> 0.85226955E+04</totfact>
</mgrwt>
</event>
<event>
 7    0  0.4709932E-002  0.4577477E+03  0.7546771E-02  0.1025436E+00
         21   -1    0    0  502  501  0.00000000000E+00  0.00000000000E+00  0.90118721582E+03  0.90118721582E+03  0.00000000000E+00 0. -1.
         21   -1    0    0  501  502 -0.00000000000E+00 -0.00000000000E+00 -0.58126910362E+02  0.58126910362E+02  0.00000000000E+00 0. -1.
      99926    2    1    2    0    0 -0.88817841970E-15  0.00000000000E+00  0.84306030546E+03  0.95931412619E+03  0.45774765325E+03 0.  0.
      99925    2    3    3    0    0  0.56220334931E+01 -0.10391356055E+02  0.28756616983E+03  0.38978727839E+03  0.26286923141E+03 0.  0.
         25    1    4    4    0    0 -0.18602341747E+02  0.14846445448E+02  0.10134269446E+03  0.16274001930E+03  0.12509000000E+03 0.  0.
         25    1    4    4    0    0  0.24224375240E+02 -0.25237801503E+02  0.18622347537E+03  0.22704725909E+03  0.12509000000E+03 0.  0.
         25    1    3    3    0    0 -0.56220334931E+01  0.10391356055E+02  0.55549413563E+03  0.56952684780E+03  0.12509000000E+03 0.  0.
<mgrwt>
<rscale>  2 0.45774765E+03</rscale>
<asrwt>0</asrwt>
<pdfrwt beam="1">  1       21 0.13252752E+00 0.45774765E+03</pdfrwt>
<pdfrwt beam="2">  1       21 0.85480756E-02 0.45774765E+03</pdfrwt>
<totfact> 0.39901793E+04</totfact>
</mgrwt>
</event>
<event>
 7    0  0.4709932E-002  0.4544495E+03  0.7546771E-02  0.1026403E+00
         21   -1    0    0  502  501  0.00000000000E+00  0.00000000000E+00  0.11519971247E+04  0.11519971247E+04  0.00000000000E+00 0.  1.
         21   -1    0    0  501  502 -0.00000000000E+00 -0.00000000000E+00 -0.44818755151E+02  0.44818755151E+02  0.00000000000E+00 0.  1.
      99926    2    1    2    0    0  0.00000000000E+00  0.00000000000E+00  0.11071783695E+04  0.11968158798E+04  0.45444945622E+03 0.  0.
      99925    2    3    3    0    0 -0.77036722902E+02 -0.68426796185E+02  0.81648138724E+03  0.86399591840E+03  0.26311633965E+03 0.  0.
         25    1    4    4    0    0 -0.58463532208E+02 -0.60947053149E+02  0.36237458010E+03  0.39254983415E+03  0.12509000000E+03 0.  0.
         25    1    3    3    0    0  0.77036722902E+02  0.68426796185E+02  0.29069698227E+03  0.33281996141E+03  0.12509000000E+03 0.  0.
         25    1    4    4    0    0 -0.18573190694E+02 -0.74797430363E+01  0.45410680713E+03  0.47144608425E+03  0.12509000000E+03 0.  0.
<mgrwt>
<rscale>  2 0.45444946E+03</rscale>
<asrwt>0</asrwt>
<pdfrwt beam="1">  1       21 0.16941132E+00 0.45444946E+03</pdfrwt>
<pdfrwt beam="2">  1       21 0.65909942E-02 0.45444946E+03</pdfrwt>
<totfact> 0.32395745E+04</totfact>
</mgrwt>
</event>
<event>
 7    0  0.4709932E-002  0.4501915E+03  0.7546771E-02  0.1027665E+00
         21   -1    0    0  502  501  0.00000000000E+00  0.00000000000E+00  0.21710916909E+03  0.21710916909E+03  0.00000000000E+00 0. -1.
         21   -1    0    0  501  502 -0.00000000000E+00 -0.00000000000E+00 -0.23337617295E+03  0.23337617295E+03  0.00000000000E+00 0. -1.
      99926    2    1    2    0    0  0.00000000000E+00 -0.26645352591E-14 -0.16267003856E+02  0.45048534205E+03  0.45019154588E+03 0.  0.
      99925    2    3    3    0    0  0.76128761580E+02  0.61223005100E+01  0.65588269569E+02  0.28261376973E+03  0.26407508560E+03 0.  0.
         25    1    4    4    0    0  0.61805601415E+02 -0.25322761915E+02  0.56079375663E+02  0.15249124274E+03  0.12509000000E+03 0.  0.
         25    1    4    4    0    0  0.14323160165E+02  0.31445062425E+02  0.95088939063E+01  0.13012252699E+03  0.12509000000E+03 0.  0.
         25    1    3    3    0    0 -0.76128761580E+02 -0.61223005100E+01 -0.81855273425E+02  0.16787157231E+03  0.12509000000E+03 0.  0.
<mgrwt>
<rscale>  2 0.45019155E+03</rscale>
<asrwt>0</asrwt>
<pdfrwt beam="1">  1       21 0.31927819E-01 0.45019155E+03</pdfrwt>
<pdfrwt beam="2">  1       21 0.34320025E-01 0.45019155E+03</pdfrwt>
<totfact> 0.71585099E+04</totfact>
</mgrwt>
</event>
<event>
 7    0  0.4709932E-002  0.4474233E+03  0.7546771E-02  0.1028493E+00
         21   -1    0    0  502  501  0.00000000000E+00  0.00000000000E+00  0.80049696288E+03  0.80049696288E+03  0.00000000000E+00 0.  1.
         21   -1    0    0  501  502 -0.00000000000E+00 -0.00000000000E+00 -0.62519802398E+02  0.62519802398E+02  0.00000000000E+00 0.  1.
      99926    2    1    2    0    0  0.00000000000E+00  0.35527136788E-14  0.73797716048E+03  0.86301676528E+03  0.44742334289E+03 0.  0.
      99925    2    3    3    0    0 -0.60987962614E+02 -0.21016012293E+02  0.62967071923E+03  0.68542454227E+03  0.26298361952E+03 0.  0.
         25    1    4    4    0    0 -0.55271414641E+02  0.97517430710E-01  0.24833886637E+03  0.28350421414E+03  0.12509000000E+03 0.  0.
         25    1    3    3    0    0  0.60987962614E+02  0.21016012293E+02  0.10830644125E+03  0.17759222301E+03  0.12509000000E+03 0.  0.
         25    1    4    4    0    0 -0.57165479728E+01 -0.21113529724E+02  0.38133185285E+03  0.40192032812E+03  0.12509000000E+03 0.  0.
<mgrwt>
<rscale>  2 0.44742334E+03</rscale>
<asrwt>0</asrwt>
<pdfrwt beam="1">  1       21 0.11772014E+00 0.44742334E+03</pdfrwt>
<pdfrwt beam="2">  1       21 0.91940890E-02 0.44742334E+03</pdfrwt>
<totfact> 0.47630446E+04</totfact>
</mgrwt>
</event>
<event>
 7    0  0.4709932E-002  0.4249248E+03  0.7546771E-02  0.1035475E+00
         21   -1    0    0  502  501  0.00000000000E+00  0.00000000000E+00  0.60778890045E+03  0.60778890045E+03  0.00000000000E+00 0.  1.
         21   -1    0    0  501  502 -0.00000000000E+00 -0.00000000000E+00 -0.74269652643E+02  0.74269652643E+02  0.00000000000E+00 0.  1.
      99926    2    1    2    0    0 -0.35527136788E-14 -0.35527136788E-14  0.53351924781E+03  0.68205855309E+03  0.42492479578E+03 0.  0.
      99925    2    3    3    0    0 -0.18817450669E+02 -0.19851147499E+02  0.46964761489E+03  0.53896677102E+03  0.26299835281E+03 0.  0.
         25    1    3    3    0    0  0.18817450669E+02  0.19851147499E+02  0.63871632917E+02  0.14309178208E+03  0.12509000000E+03 0.  0.
         25    1    4    4    0    0 -0.43816028054E+02  0.95153109779E+01  0.25522797834E+03  0.28774852647E+03  0.12509000000E+03 0.  0.
         25    1    4    4    0    0  0.24998577385E+02 -0.29366458477E+02  0.21441963655E+03  0.25121824455E+03  0.12509000000E+03 0.  0.
<mgrwt>
<rscale>  2 0.42492480E+03</rscale>
<asrwt>0</asrwt>
<pdfrwt beam="1">  1       21 0.89380718E-01 0.42492480E+03</pdfrwt>
<pdfrwt beam="2">  1       21 0.10922008E-01 0.42492480E+03</pdfrwt>
<totfact> 0.68785967E+04</totfact>
</mgrwt>
</event>
<event>
 7    0  0.4709932E-002  0.4530161E+03  0.7546771E-02  0.1026826E+00
         21   -1    0    0  502  501  0.00000000000E+00  0.00000000000E+00  0.26245266942E+03  0.26245266942E+03  0.00000000000E+00 0.  1.
         21   -1    0    0  501  502 -0.00000000000E+00 -0.00000000000E+00 -0.19548625315E+03  0.19548625315E+03  0.00000000000E+00 0.  1.
      99926    2    1    2    0    0  0.00000000000E+00  0.00000000000E+00  0.66966416265E+02  0.45793892257E+03  0.45301606583E+03 0.  0.
      99925    2    3    3    0    0  0.71205653415E+02 -0.50581548373E+02  0.11206251569E+03  0.29884805421E+03  0.26291332026E+03 0.  0.
         25    1    4    4    0    0  0.45424618910E+02 -0.32611323361E+01  0.90443132455E+02  0.16093942741E+03  0.12509000000E+03 0.  0.
         25    1    3    3    0    0 -0.71205653415E+02  0.50581548373E+02 -0.45096099421E+02  0.15909086836E+03  0.12509000000E+03 0.  0.
         25    1    4    4    0    0  0.25781034505E+02 -0.47320416037E+02  0.21619383232E+02  0.13790862680E+03  0.12509000000E+03 0.  0.
<mgrwt>
<rscale>  2 0.45301607E+03</rscale>
<asrwt>0</asrwt>
<pdfrwt beam="1">  1       21 0.38595981E-01 0.45301607E+03</pdfrwt>
<pdfrwt beam="2">  1       21 0.28747978E-01 0.45301607E+03</pdfrwt>
<totfact> 0.69422910E+04</totfact>
</mgrwt>
</event>
<event>
 7    0  0.4709932E-002  0.4576460E+03  0.7546771E-02  0.1025466E+00
         21   -1    0    0  502  501  0.00000000000E+00  0.00000000000E+00  0.98593491073E+02  0.98593491073E+02  0.00000000000E+00 0. -1.
         21   -1    0    0  501  502 -0.00000000000E+00 -0.00000000000E+00 -0.53106911902E+03  0.53106911902E+03  0.00000000000E+00 0. -1.
      99926    2    1    2    0    0 -0.71054273576E-14 -0.35527136788E-14 -0.43247562794E+03  0.62966261009E+03  0.45764596992E+03 0.  0.
      99925    2    3    3    0    0  0.43653848484E+02 -0.26872577253E+02 -0.41435971514E+03  0.49326800502E+03  0.26266243993E+03 0.  0.
         25    1    3    3    0    0 -0.43653848484E+02  0.26872577253E+02 -0.18115912803E+02  0.13639460507E+03  0.12509000000E+03 0.  0.
         25    1    4    4    0    0  0.54067353591E+02  0.57117864733E+01 -0.18592834826E+03  0.23059219851E+03  0.12509000000E+03 0.  0.
         25    1    4    4    0    0 -0.10413505106E+02 -0.32584363726E+02 -0.22843136688E+03  0.26267580650E+03  0.12509000000E+03 0.  0.
<mgrwt>
<rscale>  2 0.45764597E+03</rscale>
<asrwt>0</asrwt>
<pdfrwt beam="1">  1       21 0.14499043E-01 0.45764597E+03</pdfrwt>
<pdfrwt beam="2">  1       21 0.78098399E-01 0.45764597E+03</pdfrwt>
<totfact> 0.55715669E+04</totfact>
</mgrwt>
</event>
<event>
 7    0  0.4709932E-002  0.4074449E+03  0.7546771E-02  0.1041232E+00
         21   -1    0    0  502  501  0.00000000000E+00  0.00000000000E+00  0.26786892547E+02  0.26786892547E+02  0.00000000000E+00 0. -1.
         21   -1    0    0  501  502 -0.00000000000E+00 -0.00000000000E+00 -0.15493708977E+04  0.15493708977E+04  0.00000000000E+00 0. -1.
      99926    2    1    2    0    0 -0.13322676296E-14  0.00000000000E+00 -0.15225840051E+04  0.15761577902E+04  0.40744487604E+03 0.  0.
      99925    2    3    3    0    0 -0.38487990025E+01 -0.47326747318E+02 -0.11370141182E+04  0.11680324662E+04  0.26314274255E+03 0.  0.
         25    1    3    3    0    0  0.38487990025E+01  0.47326747318E+02 -0.38556988699E+03  0.40812532403E+03  0.12509000000E+03 0.  0.
         25    1    4    4    0    0  0.33791084984E+02 -0.36514625181E+02 -0.64164267308E+03  0.65561267780E+03  0.12509000000E+03 0.  0.
         25    1    4    4    0    0 -0.37639883986E+02 -0.10812122137E+02 -0.49537144509E+03  0.51241978841E+03  0.12509000000E+03 0.  0.
<mgrwt>
<rscale>  2 0.40744488E+03</rscale>
<asrwt>0</asrwt>
<pdfrwt beam="1">  1       21 0.39392496E-02 0.40744488E+03</pdfrwt>
<pdfrwt beam="2">  1       21 0.22784862E+00 0.40744488E+03</pdfrwt>
<totfact> 0.32380787E+04</totfact>
</mgrwt>
</event>
<event>
 7    0  0.4709932E-002  0.4384021E+03  0.7546771E-02  0.1031238E+00
         21   -1    0    0  502  501  0.00000000000E+00  0.00000000000E+00  0.21818901976E+02  0.21818901976E+02  0.00000000000E+00 0. -1.
         21   -1    0    0  501  502 -0.00000000000E+00 -0.00000000000E+00 -0.22021781570E+04  0.22021781570E+04  0.00000000000E+00 0. -1.
      99926    2    1    2    0    0  0.00000000000E+00 -0.71054273576E-14 -0.21803592550E+04  0.22239970590E+04  0.43840214115E+03 0.  0.
      99925    2    3    3    0    0 -0.68946725534E+02  0.51945835007E+02 -0.11566355353E+04  0.11890527208E+04  0.26189423541E+03 0.  0.
         25    1    4    4    0    0 -0.68229366099E+02  0.44233218941E+02 -0.57227982203E+03  0.59140808826E+03  0.12509000000E+03 0.  0.
         25    1    3    3    0    0  0.68946725534E+02 -0.51945835007E+02 -0.10237237197E+04  0.10349443382E+04  0.12509000000E+03 0.  0.
         25    1    4    4    0    0 -0.71735943444E+00  0.77126160654E+01 -0.58435571327E+03  0.59764463252E+03  0.12509000000E+03 0.  0.
<mgrwt>
<rscale>  2 0.43840214E+03</rscale>
<asrwt>0</asrwt>
<pdfrwt beam="1">  1       21 0.32086621E-02 0.43840214E+03</pdfrwt>
<pdfrwt beam="2">  1       21 0.32384973E+00 0.43840214E+03</pdfrwt>
<totfact> 0.11839874E+04</totfact>
</mgrwt>
</event>
<event>
 6    0  0.4709932E-002  0.4513518E+03  0.7546771E-02  0.1027320E+00
         21   -1    0    0  502  501  0.00000000000E+00  0.00000000000E+00  0.16214860757E+03  0.16214860757E+03  0.00000000000E+00 0.  1.
         21   -1    0    0  501  502 -0.00000000000E+00 -0.00000000000E+00 -0.31409213044E+03  0.31409213044E+03  0.00000000000E+00 0.  1.
      99926    2    1    2    0    0 -0.35527136788E-14  0.00000000000E+00 -0.15194352288E+03  0.47624073801E+03  0.45135175462E+03 0.  0.
         25    1    3    3    0    0 -0.17190109755E+02  0.14903321438E+02  0.27288871344E+02  0.13003768478E+03  0.12509000000E+03 0.  0.
         25    1    3    3    0    0 -0.27217119606E+02 -0.30575635632E+02 -0.16606149175E+03  0.21189518219E+03  0.12509000000E+03 0.  0.
         25    1    3    3    0    0  0.44407229361E+02  0.15672314194E+02 -0.13170902475E+02  0.13430787104E+03  0.12509000000E+03 0.  0.
<mgrwt>
<rscale>  2 0.45135175E+03</rscale>
<asrwt>0</asrwt>
<pdfrwt beam="1">  1       21 0.23845384E-01 0.45135175E+03</pdfrwt>
<pdfrwt beam="2">  1       21 0.46190018E-01 0.45135175E+03</pdfrwt>
<totfact> 0.68949764E+04</totfact>
</mgrwt>
</event>
<event>
 7    0  0.4709932E-002  0.4521410E+03  0.7546771E-02  0.1027086E+00
         21   -1    0    0  502  501  0.00000000000E+00  0.00000000000E+00  0.27942009833E+03  0.27942009833E+03  0.00000000000E+00 0.  1.
         21   -1    0    0  501  502 -0.00000000000E+00 -0.00000000000E+00 -0.18290690254E+03  0.18290690254E+03  0.00000000000E+00 0.  1.
      99926    2    1    2    0    0  0.00000000000E+00  0.71054273576E-14  0.96513195787E+02  0.46232700087E+03  0.45214097224E+03 0.  0.
      99925    2    3    3    0    0  0.10043987280E+03  0.43553776836E+02  0.76096702239E+02  0.29484732797E+03  0.26298125256E+03 0.  0.
         25    1    4    4    0    0  0.30666518032E+02 -0.14090440869E+02  0.46392457761E+02  0.13761810960E+03  0.12509000000E+03 0.  0.
         25    1    3    3    0    0 -0.10043987280E+03 -0.43553776836E+02  0.20416493548E+02  0.16747967290E+03  0.12509000000E+03 0.  0.
         25    1    4    4    0    0  0.69773354771E+02  0.57644217705E+02  0.29704244478E+02  0.15722921838E+03  0.12509000000E+03 0.  0.
<mgrwt>
<rscale>  2 0.45214097E+03</rscale>
<asrwt>0</asrwt>
<pdfrwt beam="1">  1       21 0.41091191E-01 0.45214097E+03</pdfrwt>
<pdfrwt beam="2">  1       21 0.26898074E-01 0.45214097E+03</pdfrwt>
<totfact> 0.69575789E+04</totfact>
</mgrwt>
</event>
<event>
 7    0  0.4709932E-002  0.4585993E+03  0.7546771E-02  0.1025188E+00
         21   -1    0    0  502  501  0.00000000000E+00  0.00000000000E+00  0.14499707786E+04  0.14499707786E+04  0.00000000000E+00 0.  1.
         21   -1    0    0  501  502 -0.00000000000E+00 -0.00000000000E+00 -0.36261645684E+02  0.36261645684E+02  0.00000000000E+00 0.  1.
      99926    2    1    2    0    0  0.00000000000E+00  0.14210854715E-13  0.14137091330E+04  0.14862324243E+04  0.45859928751E+03 0.  0.
      99925    2    3    3    0    0  0.30402016846E+01 -0.10291478589E+03  0.69756155362E+03  0.75198753366E+03  0.26132821070E+03 0.  0.
         25    1    3    3    0    0 -0.30402016846E+01  0.10291478589E+03  0.71614757933E+03  0.73424489066E+03  0.12509000000E+03 0.  0.
         25    1    4    4    0    0  0.36881948443E+02 -0.41164528157E+02  0.36441291225E+03  0.38922882115E+03  0.12509000000E+03 0.  0.
         25    1    4    4    0    0 -0.33841746758E+02 -0.61750257731E+02  0.33314864137E+03  0.36275871251E+03  0.12509000000E+03 0.  0.
<mgrwt>
<rscale>  2 0.45859929E+03</rscale>
<asrwt>0</asrwt>
<pdfrwt beam="1">  1       21 0.21323096E+00 0.45859929E+03</pdfrwt>
<pdfrwt beam="2">  1       21 0.53325959E-02 0.45859929E+03</pdfrwt>
<totfact> 0.23455916E+04</totfact>
</mgrwt>
</event>
<event>
 7    0  0.4709932E-002  0.4539501E+03  0.7546771E-02  0.1026551E+00
         21   -1    0    0  502  501  0.00000000000E+00  0.00000000000E+00  0.11769725936E+04  0.11769725936E+04  0.00000000000E+00 0.  1.
         21   -1    0    0  501  502 -0.00000000000E+00 -0.00000000000E+00 -0.43771346036E+02  0.43771346036E+02  0.00000000000E+00 0.  1.
      99926    2    1    2    0    0  0.00000000000E+00  0.00000000000E+00  0.11332012476E+04  0.12207439396E+04  0.45395010593E+03 0.  0.
      99925    2    3    3    0    0 -0.48356163737E+01 -0.68601254300E+02  0.47548442708E+03  0.54771463914E+03  0.26301401152E+03 0.  0.
         25    1    3    3    0    0  0.48356163737E+01  0.68601254300E+02  0.65771682048E+03  0.67302930049E+03  0.12509000000E+03 0.  0.
         25    1    4    4    0    0 -0.27945697112E+02 -0.69469631194E+01  0.26067071304E+03  0.29056144104E+03  0.12509000000E+03 0.  0.
         25    1    4    4    0    0  0.23110080738E+02 -0.61654291180E+02  0.21481371405E+03  0.25715319810E+03  0.12509000000E+03 0.  0.
<mgrwt>
<rscale>  2 0.45395011E+03</rscale>
<asrwt>0</asrwt>
<pdfrwt beam="1">  1       21 0.17308419E+00 0.45395011E+03</pdfrwt>
<pdfrwt beam="2">  1       21 0.64369634E-02 0.45395011E+03</pdfrwt>
<totfact> 0.31764229E+04</totfact>
</mgrwt>
</event>
<event>
 7    0  0.4709932E-002  0.4462768E+03  0.7546771E-02  0.1028838E+00
         21   -1    0    0  502  501  0.00000000000E+00  0.00000000000E+00  0.82243454284E+02  0.82243454284E+02  0.00000000000E+00 0.  1.
         21   -1    0    0  501  502 -0.00000000000E+00 -0.00000000000E+00 -0.60540670501E+03  0.60540670501E+03  0.00000000000E+00 0.  1.
      99926    2    1    2    0    0  0.53290705182E-14  0.00000000000E+00 -0.52316325073E+03  0.68765015930E+03  0.44627676913E+03 0.  0.
      99925    2    3    3    0    0  0.15179353543E+02 -0.51688584298E+02 -0.47002229467E+03  0.54145306004E+03  0.26334072268E+03 0.  0.
         25    1    3    3    0    0 -0.15179353543E+02  0.51688584298E+02 -0.53140956064E+02  0.14619709926E+03  0.12509000000E+03 0.  0.
         25    1    4    4    0    0  0.36805636570E+02 -0.52826003473E+02 -0.27202792264E+03  0.30625469845E+03  0.12509000000E+03 0.  0.
         25    1    4    4    0    0 -0.21626283027E+02  0.11374191750E+01 -0.19799437202E+03  0.23519836159E+03  0.12509000000E+03 0.  0.
<mgrwt>
<rscale>  2 0.44627677E+03</rscale>
<asrwt>0</asrwt>
<pdfrwt beam="1">  1       21 0.12094626E-01 0.44627677E+03</pdfrwt>
<pdfrwt beam="2">  1       21 0.89030395E-01 0.44627677E+03</pdfrwt>
<totfact> 0.57421584E+04</totfact>
</mgrwt>
</event>
<event>
 7    0  0.4709932E-002  0.4393487E+03  0.7546771E-02  0.1030947E+00
         21   -1    0    0  502  501  0.00000000000E+00  0.00000000000E+00  0.33088718507E+02  0.33088718507E+02  0.00000000000E+00 0. -1.
         21   -1    0    0  501  502 -0.00000000000E+00 -0.00000000000E+00 -0.14584067827E+04  0.14584067827E+04  0.00000000000E+00 0. -1.
      99926    2    1    2    0    0  0.00000000000E+00  0.71054273576E-14 -0.14253180642E+04  0.14914955012E+04  0.43934866110E+03 0.  0.
      99925    2    3    3    0    0  0.77866746601E+02  0.34717617812E+02 -0.74813937658E+03  0.79760283928E+03  0.26303843680E+03 0.  0.
         25    1    3    3    0    0 -0.77866746601E+02 -0.34717617812E+02 -0.67717868765E+03  0.69389266196E+03  0.12509000000E+03 0.  0.
         25    1    4    4    0    0  0.59046503609E+02  0.39727091025E+02 -0.31455897627E+03  0.34591847161E+03  0.12509000000E+03 0.  0.
         25    1    4    4    0    0  0.18820242992E+02 -0.50094732130E+01 -0.43358040031E+03  0.45168436767E+03  0.12509000000E+03 0.  0.
<mgrwt>
<rscale>  2 0.43934866E+03</rscale>
<asrwt>0</asrwt>
<pdfrwt beam="1">  1       21 0.48659883E-02 0.43934866E+03</pdfrwt>
<pdfrwt beam="2">  1       21 0.21447157E+00 0.43934866E+03</pdfrwt>
<totfact> 0.27141127E+04</totfact>
</mgrwt>
</event>
<event>
 7    0  0.4709932E-002  0.4538759E+03  0.7546771E-02  0.1026572E+00
         21   -1    0    0  502  501  0.00000000000E+00  0.00000000000E+00  0.35850216433E+02  0.35850216433E+02  0.00000000000E+00 0.  1.
         21   -1    0    0  501  502 -0.00000000000E+00 -0.00000000000E+00 -0.14365554518E+04  0.14365554518E+04  0.00000000000E+00 0.  1.
      99926    2    1    2    0    0 -0.33723024373E-14 -0.14210854715E-13 -0.14007052354E+04  0.14724056682E+04  0.45387585909E+03 0.  0.
      99925    2    3    3    0    0 -0.50295085645E-02  0.81800044642E+02 -0.63330461888E+03  0.69058570071E+03  0.26294984770E+03 0.  0.
         25    1    4    4    0    0 -0.37194558394E+02  0.33407691714E+02 -0.27574273932E+03  0.30688935372E+03  0.12509000000E+03 0.  0.
         25    1    3    3    0    0  0.50295085645E-02 -0.81800044642E+02 -0.76740061650E+03  0.78181996753E+03  0.12509000000E+03 0.  0.
         25    1    4    4    0    0  0.37189528885E+02  0.48392352928E+02 -0.35756187956E+03  0.38369634699E+03  0.12509000000E+03 0.  0.
<mgrwt>
<rscale>  2 0.45387586E+03</rscale>
<asrwt>0</asrwt>
<pdfrwt beam="1">  1       21 0.52720903E-02 0.45387586E+03</pdfrwt>
<pdfrwt beam="2">  1       21 0.21125817E+00 0.45387586E+03</pdfrwt>
<totfact> 0.24678376E+04</totfact>
</mgrwt>
</event>
<event>
 7    0  0.4709932E-002  0.4483500E+03  0.7546771E-02  0.1028215E+00
         21   -1    0    0  502  501  0.00000000000E+00  0.00000000000E+00  0.16952890023E+03  0.16952890023E+03  0.00000000000E+00 0.  1.
         21   -1    0    0  501  502 -0.00000000000E+00 -0.00000000000E+00 -0.29643572385E+03  0.29643572385E+03  0.00000000000E+00 0.  1.
      99926    2    1    2    0    0  0.00000000000E+00  0.35527136788E-14 -0.12690682362E+03  0.46596462409E+03  0.44834996266E+03 0.  0.
      99925    2    3    3    0    0  0.82839102901E+02  0.30178748531E+02 -0.14299472309E+03  0.31208349320E+03  0.26301243710E+03 0.  0.
         25    1    3    3    0    0 -0.82839102901E+02 -0.30178748531E+02  0.16087899468E+02  0.15388113088E+03  0.12509000000E+03 0.  0.
         25    1    4    4    0    0  0.67764056029E+01 -0.24421451774E+01 -0.46055129326E+02  0.13349332112E+03  0.12509000000E+03 0.  0.
         25    1    4    4    0    0  0.76062697298E+02  0.32620893708E+02 -0.96939593764E+02  0.17859017209E+03  0.12509000000E+03 0.  0.
<mgrwt>
<rscale>  2 0.44834996E+03</rscale>
<asrwt>0</asrwt>
<pdfrwt beam="1">  1       21 0.24930721E-01 0.44834996E+03</pdfrwt>
<pdfrwt beam="2">  1       21 0.43593488E-01 0.44834996E+03</pdfrwt>
<totfact> 0.71431820E+04</totfact>
</mgrwt>
</event>
<event>
 7    0  0.4709932E-002  0.4552587E+03  0.7546771E-02  0.1026165E+00
         21   -1    0    0  502  501  0.00000000000E+00  0.00000000000E+00  0.33104816420E+03  0.33104816420E+03  0.00000000000E+00 0. -1.
         21   -1    0    0  501  502 -0.00000000000E+00 -0.00000000000E+00 -0.15651840518E+03  0.15651840518E+03  0.00000000000E+00 0. -1.
      99926    2    1    2    0    0  0.00000000000E+00 -0.71054273576E-14  0.17452975902E+03  0.48756656937E+03  0.45525874268E+03 0.  0.
      99925    2    3    3    0    0 -0.21344542229E+02 -0.37647743151E+02 -0.25174295545E+01  0.26650966012E+03  0.26296030012E+03 0.  0.
         25    1    4    4    0    0  0.19869620474E+02 -0.33541456174E+02  0.20887150669E+02  0.13267860514E+03  0.12509000000E+03 0.  0.
         25    1    4    4    0    0 -0.41214162702E+02 -0.41062869765E+01 -0.23404580223E+02  0.13383105497E+03  0.12509000000E+03 0.  0.
         25    1    3    3    0    0  0.21344542229E+02  0.37647743151E+02  0.17704718857E+03  0.22105690925E+03  0.12509000000E+03 0.  0.
<mgrwt>
<rscale>  2 0.45525874E+03</rscale>
<asrwt>0</asrwt>
<pdfrwt beam="1">  1       21 0.48683553E-01 0.45525874E+03</pdfrwt>
<pdfrwt beam="2">  1       21 0.23017413E-01 0.45525874E+03</pdfrwt>
<totfact> 0.66017592E+04</totfact>
</mgrwt>
</event>
<event>
 7    0  0.4709932E-002  0.4520537E+03  0.7546771E-02  0.1027111E+00
         21   -1    0    0  502  501  0.00000000000E+00  0.00000000000E+00  0.66799140932E+02  0.66799140932E+02  0.00000000000E+00 0.  1.
         21   -1    0    0  501  502 -0.00000000000E+00 -0.00000000000E+00 -0.76480229042E+03  0.76480229042E+03  0.00000000000E+00 0.  1.
      99926    2    1    2    0    0 -0.35527136788E-14  0.00000000000E+00 -0.69800314949E+03  0.83160143135E+03  0.45205369585E+03 0.  0.
      99925    2    3    3    0    0 -0.26329151490E+02  0.16836151356E+02 -0.24611811113E+03  0.36168199548E+03  0.26317876248E+03 0.  0.
         25    1    4    4    0    0  0.11003946771E+02  0.25812429208E+02 -0.16004880778E+03  0.20506217915E+03  0.12509000000E+03 0.  0.
         25    1    3    3    0    0  0.26329151490E+02 -0.16836151356E+02 -0.45188503836E+03  0.46991943587E+03  0.12509000000E+03 0.  0.
         25    1    4    4    0    0 -0.37333098261E+02 -0.89762778517E+01 -0.86069303347E+02  0.15661981633E+03  0.12509000000E+03 0.  0.
<mgrwt>
<rscale>  2 0.45205370E+03</rscale>
<asrwt>0</asrwt>
<pdfrwt beam="1">  1       21 0.98234028E-02 0.45205370E+03</pdfrwt>
<pdfrwt beam="2">  1       21 0.11247093E+00 0.45205370E+03</pdfrwt>
<totfact> 0.47359285E+04</totfact>
</mgrwt>
</event>
<event>
 7    0  0.4709932E-002  0.4556235E+03  0.7546771E-02  0.1026058E+00
         21   -1    0    0  502  501  0.00000000000E+00  0.00000000000E+00  0.16566660018E+04  0.16566660018E+04  0.00000000000E+00 0.  1.
         21   -1    0    0  501  502 -0.00000000000E+00 -0.00000000000E+00 -0.31326895924E+02  0.31326895924E+02  0.00000000000E+00 0.  1.
      99926    2    1    2    0    0 -0.14210854715E-13  0.00000000000E+00  0.16253391059E+04  0.16879928977E+04  0.45562354382E+03 0.  0.
      99925    2    3    3    0    0  0.86357626840E+02 -0.69416075307E+02  0.92441013381E+03  0.96742009557E+03  0.26285226762E+03 0.  0.
         25    1    3    3    0    0 -0.86357626840E+02  0.69416075307E+02  0.70092897209E+03  0.72057280218E+03  0.12509000000E+03 0.  0.
         25    1    4    4    0    0  0.76198679338E+01 -0.10809235402E+02  0.38119923012E+03  0.40141657053E+03  0.12509000000E+03 0.  0.
         25    1    4    4    0    0  0.78737758906E+02 -0.58606839905E+02  0.54321090369E+03  0.56600352504E+03  0.12509000000E+03 0.  0.
<mgrwt>
<rscale>  2 0.45562354E+03</rscale>
<asrwt>0</asrwt>
<pdfrwt beam="1">  1       21 0.24362729E+00 0.45562354E+03</pdfrwt>
<pdfrwt beam="2">  1       21 0.46068976E-02 0.45562354E+03</pdfrwt>
<totfact> 0.19418380E+04</totfact>
</mgrwt>
</event>
<event>
 7    0  0.4709932E-002  0.4408804E+03  0.7546771E-02  0.1030477E+00
         21   -1    0    0  502  501  0.00000000000E+00  0.00000000000E+00  0.19423095888E+03  0.19423095888E+03  0.00000000000E+00 0. -1.
         21   -1    0    0  501  502 -0.00000000000E+00 -0.00000000000E+00 -0.25018611049E+03  0.25018611049E+03  0.00000000000E+00 0. -1.
      99926    2    1    2    0    0  0.14210854715E-13  0.44408920985E-14 -0.55955151617E+02  0.44441706937E+03  0.44088042886E+03 0.  0.
      99925    2    3    3    0    0 -0.93251417901E+02 -0.74781353074E+01 -0.69307322568E+02  0.28764482049E+03  0.26302906369E+03 0.  0.
         25    1    4    4    0    0 -0.69026253372E+02 -0.38630898125E+02 -0.37189579868E+02  0.15260256517E+03  0.12509000000E+03 0.  0.
         25    1    4    4    0    0 -0.24225164529E+02  0.31152762818E+02 -0.32117742700E+02  0.13504225533E+03  0.12509000000E+03 0.  0.
         25    1    3    3    0    0  0.93251417901E+02  0.74781353074E+01  0.13352170950E+02  0.15677224887E+03  0.12509000000E+03 0.  0.
<mgrwt>
<rscale>  2 0.44088043E+03</rscale>
<asrwt>0</asrwt>
<pdfrwt beam="1">  1       21 0.28563376E-01 0.44088043E+03</pdfrwt>
<pdfrwt beam="2">  1       21 0.36792075E-01 0.44088043E+03</pdfrwt>
<totfact> 0.77721138E+04</totfact>
</mgrwt>
</event>
<event>
 7    0  0.4709932E-002  0.4464453E+03  0.7546771E-02  0.1028787E+00
         21   -1    0    0  502  501  0.00000000000E+00  0.00000000000E+00  0.19148483334E+03  0.19148483334E+03  0.00000000000E+00 0.  1.
         21   -1    0    0  501  502 -0.00000000000E+00 -0.00000000000E+00 -0.26022092824E+03  0.26022092824E+03  0.00000000000E+00 0.  1.
      99926    2    1    2    0    0 -0.88817841970E-15  0.00000000000E+00 -0.68736094898E+02  0.45170576158E+03  0.44644534302E+03 0.  0.
      99925    2    3    3    0    0 -0.21425879391E+01 -0.10119185130E+03 -0.71411107658E+02  0.29077395849E+03  0.26306951018E+03 0.  0.
         25    1    4    4    0    0 -0.30611284315E+02 -0.69530923010E+02 -0.15071478320E+02  0.14712667175E+03  0.12509000000E+03 0.  0.
         25    1    3    3    0    0  0.21425879391E+01  0.10119185130E+03  0.26750127595E+01  0.16093180309E+03  0.12509000000E+03 0.  0.
         25    1    4    4    0    0  0.28468696376E+02 -0.31660928293E+02 -0.56339629338E+02  0.14364728674E+03  0.12509000000E+03 0.  0.
<mgrwt>
<rscale>  2 0.44644534E+03</rscale>
<asrwt>0</asrwt>
<pdfrwt beam="1">  1       21 0.28159534E-01 0.44644534E+03</pdfrwt>
<pdfrwt beam="2">  1       21 0.38267784E-01 0.44644534E+03</pdfrwt>
<totfact> 0.73689525E+04</totfact>
</mgrwt>
</event>
<event>
 7    0  0.4709932E-002  0.4541077E+03  0.7546771E-02  0.1026504E+00
         21   -1    0    0  502  501  0.00000000000E+00  0.00000000000E+00  0.27976046371E+04  0.27976046371E+04  0.00000000000E+00 0.  1.
         21   -1    0    0  501  502 -0.00000000000E+00 -0.00000000000E+00 -0.18427710995E+02  0.18427710995E+02  0.00000000000E+00 0.  1.
      99926    2    1    2    0    0  0.00000000000E+00  0.14210854715E-13  0.27791769261E+04  0.28160323481E+04  0.45410769529E+03 0.  0.
      99925    2    3    3    0    0  0.39526772647E+02 -0.94005757565E+02  0.20483523421E+04  0.20675996331E+04  0.26233847818E+03 0.  0.
         25    1    3    3    0    0 -0.39526772647E+02  0.94005757565E+02  0.73082458400E+03  0.74843271500E+03  0.12509000000E+03 0.  0.
         25    1    4    4    0    0 -0.11707532212E+02 -0.19856101174E+02  0.90018540101E+03  0.90912738126E+03  0.12509000000E+03 0.  0.
         25    1    4    4    0    0  0.51234304859E+02 -0.74149656390E+02  0.11481669411E+04  0.11584722518E+04  0.12509000000E+03 0.  0.
<mgrwt>
<rscale>  2 0.45410770E+03</rscale>
<asrwt>0</asrwt>
<pdfrwt beam="1">  1       21 0.41141215E+00 0.45410770E+03</pdfrwt>
<pdfrwt beam="2">  1       21 0.27099594E-02 0.45410770E+03</pdfrwt>
<totfact> 0.44395856E+03</totfact>
</mgrwt>
</event>
<event>
 7    0  0.4709932E-002  0.4506374E+03  0.7546771E-02  0.1027532E+00
         21   -1    0    0  502  501  0.00000000000E+00  0.00000000000E+00  0.41975627377E+03  0.41975627377E+03  0.00000000000E+00 0. -1.
         21   -1    0    0  501  502 -0.00000000000E+00 -0.00000000000E+00 -0.12094761564E+03  0.12094761564E+03  0.00000000000E+00 0. -1.
      99926    2    1    2    0    0 -0.14210854715E-13 -0.13322676296E-14  0.29880865813E+03  0.54070388942E+03  0.45063741728E+03 0.  0.
      99925    2    3    3    0    0  0.95115034853E+02  0.20186000493E+01  0.25194249791E+03  0.37670727459E+03  0.26340539834E+03 0.  0.
         25    1    4    4    0    0  0.59678720976E+02  0.27252728912E+02  0.16976927736E+03  0.22084695290E+03  0.12509000000E+03 0.  0.
         25    1    4    4    0    0  0.35436313877E+02 -0.25234128863E+02  0.82173220552E+02  0.15586032169E+03  0.12509000000E+03 0.  0.
         25    1    3    3    0    0 -0.95115034853E+02 -0.20186000493E+01  0.46866160216E+02  0.16399661483E+03  0.12509000000E+03 0.  0.
<mgrwt>
<rscale>  2 0.45063742E+03</rscale>
<asrwt>0</asrwt>
<pdfrwt beam="1">  1       21 0.61728863E-01 0.45063742E+03</pdfrwt>
<pdfrwt beam="2">  1       21 0.17786414E-01 0.45063742E+03</pdfrwt>
<totfact> 0.64689616E+04</totfact>
</mgrwt>
</event>
<event>
 7    0  0.4709932E-002  0.4532688E+03  0.7546771E-02  0.1026752E+00
         21   -1    0    0  502  501  0.00000000000E+00  0.00000000000E+00  0.18887563475E+03  0.18887563475E+03  0.00000000000E+00 0. -1.
         21   -1    0    0  501  502 -0.00000000000E+00 -0.00000000000E+00 -0.27194169402E+03  0.27194169402E+03  0.00000000000E+00 0. -1.
      99926    2    1    2    0    0  0.00000000000E+00  0.00000000000E+00 -0.83066059263E+02  0.46081732877E+03  0.45326883887E+03 0.  0.
      99925    2    3    3    0    0 -0.40578529444E+02 -0.10084704842E+03 -0.77312506868E+02  0.29499406233E+03  0.26311124808E+03 0.  0.
         25    1    4    4    0    0 -0.27171766183E+01 -0.20032208975E+02 -0.60499332271E+02  0.14041491997E+03  0.12509000000E+03 0.  0.
         25    1    3    3    0    0  0.40578529444E+02  0.10084704842E+03 -0.57535523953E+01  0.16582326644E+03  0.12509000000E+03 0.  0.
         25    1    4    4    0    0 -0.37861352826E+02 -0.80814839448E+02 -0.16813174597E+02  0.15457914236E+03  0.12509000000E+03 0.  0.
<mgrwt>
<rscale>  2 0.45326884E+03</rscale>
<asrwt>0</asrwt>
<pdfrwt beam="1">  1       21 0.27775829E-01 0.45326884E+03</pdfrwt>
<pdfrwt beam="2">  1       21 0.39991425E-01 0.45326884E+03</pdfrwt>
<totfact> 0.69067345E+04</totfact>
</mgrwt>
</event>
<event>
 7    0  0.4709932E-002  0.4604728E+03  0.7546771E-02  0.1024644E+00
         21   -1    0    0  502  501  0.00000000000E+00  0.00000000000E+00  0.71389415898E+02  0.71389415898E+02  0.00000000000E+00 0. -1.
         21   -1    0    0  501  502 -0.00000000000E+00 -0.00000000000E+00 -0.74253022785E+03  0.74253022785E+03  0.00000000000E+00 0. -1.
      99926    2    1    2    0    0  0.00000000000E+00  0.00000000000E+00 -0.67114081195E+03  0.81391964374E+03  0.46047279725E+03 0.  0.
      99925    2    3    3    0    0  0.89209359302E+02  0.29209609327E+02 -0.29329902231E+03  0.40499002002E+03  0.26302298143E+03 0.  0.
         25    1    4    4    0    0  0.67626233512E+02  0.62833122129E+01 -0.10556895945E+03  0.17721484354E+03  0.12509000000E+03 0.  0.
         25    1    4    4    0    0  0.21583125790E+02  0.22926297114E+02 -0.18773006286E+03  0.22777517648E+03  0.12509000000E+03 0.  0.
         25    1    3    3    0    0 -0.89209359302E+02 -0.29209609327E+02 -0.37784178964E+03  0.40892962372E+03  0.12509000000E+03 0.  0.
<mgrwt>
<rscale>  2 0.46047280E+03</rscale>
<asrwt>0</asrwt>
<pdfrwt beam="1">  1       21 0.10498444E-01 0.46047280E+03</pdfrwt>
<pdfrwt beam="2">  1       21 0.10919562E+00 0.46047280E+03</pdfrwt>
<totfact> 0.45129371E+04</totfact>
</mgrwt>
</event>
<event>
 7    0  0.4709932E-002  0.4569031E+03  0.7546771E-02  0.1025683E+00
         21   -1    0    0  502  501  0.00000000000E+00  0.00000000000E+00  0.36835470111E+03  0.36835470111E+03  0.00000000000E+00 0.  1.
         21   -1    0    0  501  502 -0.00000000000E+00 -0.00000000000E+00 -0.14168435865E+03  0.14168435865E+03  0.00000000000E+00 0.  1.
      99926    2    1    2    0    0 -0.71054273576E-14  0.00000000000E+00  0.22667034246E+03  0.51003905977E+03  0.45690305135E+03 0.  0.
      99925    2    3    3    0    0 -0.31952987665E+02 -0.76094588819E+02  0.52931387763E+02  0.28059601161E+03  0.26290874853E+03 0.  0.
         25    1    4    4    0    0 -0.47671953166E+02 -0.51518807392E+02  0.50860066188E+01  0.14352762172E+03  0.12509000000E+03 0.  0.
         25    1    3    3    0    0  0.31952987665E+02  0.76094588819E+02  0.17373895470E+03  0.22944304816E+03  0.12509000000E+03 0.  0.
         25    1    4    4    0    0  0.15718965501E+02 -0.24575781426E+02  0.47845381145E+02  0.13706838989E+03  0.12509000000E+03 0.  0.
<mgrwt>
<rscale>  2 0.45690305E+03</rscale>
<asrwt>0</asrwt>
<pdfrwt beam="1">  1       21 0.54169809E-01 0.45690305E+03</pdfrwt>
<pdfrwt beam="2">  1       21 0.20835935E-01 0.45690305E+03</pdfrwt>
<totfact> 0.63604880E+04</totfact>
</mgrwt>
</event>
<event>
 7    0  0.4709932E-002  0.4572651E+03  0.7546771E-02  0.1025577E+00
         21   -1    0    0  502  501  0.00000000000E+00  0.00000000000E+00  0.68217934907E+02  0.68217934907E+02  0.00000000000E+00 0. -1.
         21   -1    0    0  501  502 -0.00000000000E+00 -0.00000000000E+00 -0.76626253270E+03  0.76626253270E+03  0.00000000000E+00 0. -1.
      99926    2    1    2    0    0  0.14210854715E-13 -0.14210854715E-13 -0.69804459780E+03  0.83448046761E+03  0.45726512037E+03 0.  0.
      99925    2    3    3    0    0 -0.87334759488E+02  0.74275912425E+02 -0.45845202928E+03  0.54088827022E+03  0.26313035995E+03 0.  0.
         25    1    3    3    0    0  0.87334759488E+02 -0.74275912425E+02 -0.23959256851E+03  0.29359219739E+03  0.12509000000E+03 0.  0.
         25    1    4    4    0    0 -0.42823512088E+02  0.79047099869E+02 -0.25388957554E+03  0.29696754343E+03  0.12509000000E+03 0.  0.
         25    1    4    4    0    0 -0.44511247400E+02 -0.47711874443E+01 -0.20456245374E+03  0.24392072679E+03  0.12509000000E+03 0.  0.
<mgrwt>
<rscale>  2 0.45726512E+03</rscale>
<asrwt>0</asrwt>
<pdfrwt beam="1">  1       21 0.10032049E-01 0.45726512E+03</pdfrwt>
<pdfrwt beam="2">  1       21 0.11268566E+00 0.45726512E+03</pdfrwt>
<totfact> 0.45330813E+04</totfact>
</mgrwt>
</event>
<event>
 7    0  0.4709932E-002  0.4483078E+03  0.7546771E-02  0.1028228E+00
         21   -1    0    0  502  501  0.00000000000E+00  0.00000000000E+00  0.51390499370E+03  0.51390499370E+03  0.00000000000E+00 0. -1.
         21   -1    0    0  501  502 -0.00000000000E+00 -0.00000000000E+00 -0.97770932675E+02  0.97770932675E+02  0.00000000000E+00 0. -1.
      99926    2    1    2    0    0  0.00000000000E+00  0.00000000000E+00  0.41613406103E+03  0.61167592638E+03  0.44830779846E+03 0.  0.
      99925    2    3    3    0    0 -0.36273726643E+02 -0.75427125553E+02  0.35401261604E+03  0.44885204440E+03  0.26294142111E+03 0.  0.
         25    1    3    3    0    0  0.36273726643E+02  0.75427125553E+02  0.62121444988E+02  0.16282388197E+03  0.12509000000E+03 0.  0.
         25    1    4    4    0    0 -0.45344820247E+02 -0.70076369746E+02  0.19609075404E+03  0.24711524081E+03  0.12509000000E+03 0.  0.
         25    1    4    4    0    0  0.90710936043E+01 -0.53507558065E+01  0.15792186200E+03  0.20173680360E+03  0.12509000000E+03 0.  0.
<mgrwt>
<rscale>  2 0.44830780E+03</rscale>
<asrwt>0</asrwt>
<pdfrwt beam="1">  1       21 0.75574262E-01 0.44830780E+03</pdfrwt>
<pdfrwt beam="2">  1       21 0.14378079E-01 0.44830780E+03</pdfrwt>
<totfact> 0.61133048E+04</totfact>
</mgrwt>
</event>
<event>
 7    0  0.4709932E-002  0.4678487E+03  0.7546771E-02  0.1022529E+00
         21   -1    0    0  502  501  0.00000000000E+00  0.00000000000E+00  0.13437141687E+04  0.13437141687E+04  0.00000000000E+00 0. -1.
         21   -1    0    0  501  502 -0.00000000000E+00 -0.00000000000E+00 -0.40723399475E+02  0.40723399475E+02  0.00000000000E+00 0. -1.
      99926    2    1    2    0    0  0.13322676296E-14  0.14210854715E-13  0.13029907692E+04  0.13844375682E+04  0.46784873142E+03 0.  0.
      99925    2    3    3    0    0  0.28461688787E+01  0.12469123146E+03  0.83620066416E+03  0.88534187178E+03  0.26275972921E+03 0.  0.
         25    1    3    3    0    0 -0.28461688787E+01 -0.12469123146E+03  0.46679010509E+03  0.49909569642E+03  0.12509000000E+03 0.  0.
         25    1    4    4    0    0 -0.68236025257E+01  0.10432707602E+03  0.43860994492E+03  0.46792829816E+03  0.12509000000E+03 0.  0.
         25    1    4    4    0    0  0.96697714044E+01  0.20364155438E+02  0.39759071924E+03  0.41741357361E+03  0.12509000000E+03 0.  0.
<mgrwt>
<rscale>  2 0.46784873E+03</rscale>
<asrwt>0</asrwt>
<pdfrwt beam="1">  1       21 0.19760500E+00 0.46784873E+03</pdfrwt>
<pdfrwt beam="2">  1       21 0.59887361E-02 0.46784873E+03</pdfrwt>
<totfact> 0.24237535E+04</totfact>
</mgrwt>
</event>
<event>
 7    0  0.4709932E-002  0.4543015E+03  0.7546771E-02  0.1026447E+00
         21   -1    0    0  502  501  0.00000000000E+00  0.00000000000E+00  0.56220475433E+02  0.56220475433E+02  0.00000000000E+00 0. -1.
         21   -1    0    0  501  502 -0.00000000000E+00 -0.00000000000E+00 -0.91777001265E+03  0.91777001265E+03  0.00000000000E+00 0. -1.
      99926    2    1    2    0    0 -0.71054273576E-14  0.00000000000E+00 -0.86154953722E+03  0.97399048809E+03  0.45430151419E+03 0.  0.
      99925    2    3    3    0    0  0.49767901067E+02  0.70982589163E+02 -0.38924558751E+03  0.47777087848E+03  0.26313022060E+03 0.  0.
         25    1    3    3    0    0 -0.49767901067E+02 -0.70982589163E+02 -0.47230394971E+03  0.49621960960E+03  0.12509000000E+03 0.  0.
         25    1    4    4    0    0  0.36262649194E+02  0.18558066016E+01 -0.22173560147E+03  0.25716261160E+03  0.12509000000E+03 0.  0.
         25    1    4    4    0    0  0.13505251874E+02  0.69126782562E+02 -0.16750998604E+03  0.22060826689E+03  0.12509000000E+03 0.  0.
<mgrwt>
<rscale>  2 0.45430151E+03</rscale>
<asrwt>0</asrwt>
<pdfrwt beam="1">  1       21 0.82677169E-02 0.45430151E+03</pdfrwt>
<pdfrwt beam="2">  1       21 0.13496618E+00 0.45430151E+03</pdfrwt>
<totfact> 0.40404480E+04</totfact>
</mgrwt>
</event>
<event>
 7    0  0.4709932E-002  0.4501876E+03  0.7546771E-02  0.1027666E+00
         21   -1    0    0  502  501  0.00000000000E+00  0.00000000000E+00  0.10637652969E+03  0.10637652969E+03  0.00000000000E+00 0.  1.
         21   -1    0    0  501  502 -0.00000000000E+00 -0.00000000000E+00 -0.47630066599E+03  0.47630066599E+03  0.00000000000E+00 0.  1.
      99926    2    1    2    0    0 -0.14210854715E-13 -0.17763568394E-14 -0.36992413629E+03  0.58267719568E+03  0.45018756952E+03 0.  0.
      99925    2    3    3    0    0 -0.86540755889E+02 -0.12803272082E+02 -0.31702139663E+03  0.42112400267E+03  0.26303922426E+03 0.  0.
         25    1    3    3    0    0  0.86540755889E+02  0.12803272082E+02 -0.52902739667E+02  0.16155319300E+03  0.12509000000E+03 0.  0.
         25    1    4    4    0    0 -0.83082625868E+02 -0.19635035184E+02 -0.16167515351E+03  0.22152792305E+03  0.12509000000E+03 0.  0.
         25    1    4    4    0    0 -0.34581300212E+01  0.68317631021E+01 -0.15534624312E+03  0.19959607962E+03  0.12509000000E+03 0.  0.
<mgrwt>
<rscale>  2 0.45018757E+03</rscale>
<asrwt>0</asrwt>
<pdfrwt beam="1">  1       21 0.15643607E-01 0.45018757E+03</pdfrwt>
<pdfrwt beam="2">  1       21 0.70044215E-01 0.45018757E+03</pdfrwt>
<totfact> 0.62085790E+04</totfact>
</mgrwt>
</event>
<event>
 7    0  0.4709932E-002  0.4500920E+03  0.7546771E-02  0.1027695E+00
         21   -1    0    0  502  501  0.00000000000E+00  0.00000000000E+00  0.43414119636E+02  0.43414119636E+02  0.00000000000E+00 0.  1.
         21   -1    0    0  501  502 -0.00000000000E+00 -0.00000000000E+00 -0.11665720378E+04  0.11665720378E+04  0.00000000000E+00 0.  1.
      99926    2    1    2    0    0 -0.88817841970E-15  0.00000000000E+00 -0.11231579181E+04  0.12099861574E+04  0.45009198176E+03 0.  0.
      99925    2    3    3    0    0 -0.60706850162E+01  0.10806131438E+03 -0.68570187883E+03  0.74230101192E+03  0.26288709514E+03 0.  0.
         25    1    4    4    0    0 -0.42267256889E+02  0.44622977346E+02 -0.34439878134E+03  0.37153164037E+03  0.12509000000E+03 0.  0.
         25    1    3    3    0    0  0.60706850162E+01 -0.10806131438E+03 -0.43745603930E+03  0.46768514548E+03  0.12509000000E+03 0.  0.
         25    1    4    4    0    0  0.36196571872E+02  0.63438337035E+02 -0.34130309749E+03  0.37076937155E+03  0.12509000000E+03 0.  0.
<mgrwt>
<rscale>  2 0.45009198E+03</rscale>
<asrwt>0</asrwt>
<pdfrwt beam="1">  1       21 0.63844302E-02 0.45009198E+03</pdfrwt>
<pdfrwt beam="2">  1       21 0.17155469E+00 0.45009198E+03</pdfrwt>
<totfact> 0.33087991E+04</totfact>
</mgrwt>
</event>
<event>
 7    0  0.4709932E-002  0.4609083E+03  0.7546771E-02  0.1024518E+00
         21   -1    0    0  502  501  0.00000000000E+00  0.00000000000E+00  0.12495356570E+04  0.12495356570E+04  0.00000000000E+00 0.  1.
         21   -1    0    0  501  502 -0.00000000000E+00 -0.00000000000E+00 -0.42503075307E+02  0.42503075307E+02  0.00000000000E+00 0.  1.
      99926    2    1    2    0    0  0.00000000000E+00  0.00000000000E+00  0.12070325817E+04  0.12920387323E+04  0.46090826910E+03 0.  0.
      99925    2    3    3    0    0 -0.67400013187E+02  0.96801142283E+02  0.78983189377E+03  0.84079916730E+03  0.26305055863E+03 0.  0.
         25    1    4    4    0    0 -0.75514887947E+02  0.48801724122E+02  0.41919602082E+03  0.44660599923E+03  0.12509000000E+03 0.  0.
         25    1    4    4    0    0  0.81148747608E+01  0.47999418161E+02  0.37063587295E+03  0.39419316807E+03  0.12509000000E+03 0.  0.
         25    1    3    3    0    0  0.67400013187E+02 -0.96801142283E+02  0.41720068797E+03  0.45123956505E+03  0.12509000000E+03 0.  0.
<mgrwt>
<rscale>  2 0.46090827E+03</rscale>
<asrwt>0</asrwt>
<pdfrwt beam="1">  1       21 0.18375522E+00 0.46090827E+03</pdfrwt>
<pdfrwt beam="2">  1       21 0.62504530E-02 0.46090827E+03</pdfrwt>
<totfact> 0.28035715E+04</totfact>
</mgrwt>
</event>
<event>
 7    0  0.4709932E-002  0.4592322E+03  0.7546771E-02  0.1025004E+00
         21   -1    0    0  502  501  0.00000000000E+00  0.00000000000E+00  0.33959790969E+04  0.33959790969E+04  0.00000000000E+00 0.  1.
         21   -1    0    0  501  502 -0.00000000000E+00 -0.00000000000E+00 -0.15525286033E+02  0.15525286033E+02  0.00000000000E+00 0.  1.
      99926    2    1    2    0    0 -0.17763568394E-14  0.71054273576E-14  0.33804538109E+04  0.34115043829E+04  0.45923217153E+03 0.  0.
      99925    2    3    3    0    0 -0.70088655529E+01  0.47820912924E+02  0.13269306317E+04  0.13536071747E+04  0.26300478764E+03 0.  0.
         25    1    4    4    0    0  0.66928855177E+01  0.38739204792E+01  0.81637161296E+03  0.82593578475E+03  0.12509000000E+03 0.  0.
         25    1    4    4    0    0 -0.13701751071E+02  0.43946992444E+02  0.51055901871E+03  0.52767138999E+03  0.12509000000E+03 0.  0.
         25    1    3    3    0    0  0.70088655529E+01 -0.47820912924E+02  0.20535231792E+04  0.20578972082E+04  0.12509000000E+03 0.  0.
<mgrwt>
<rscale>  2 0.45923217E+03</rscale>
<asrwt>0</asrwt>
<pdfrwt beam="1">  1       21 0.49940817E+00 0.45923217E+03</pdfrwt>
<pdfrwt beam="2">  1       21 0.22831327E-02 0.45923217E+03</pdfrwt>
<totfact> 0.14825413E+03</totfact>
</mgrwt>
</event>
<event>
 7    0  0.4709932E-002  0.4555273E+03  0.7546771E-02  0.1026086E+00
         21   -1    0    0  502  501  0.00000000000E+00  0.00000000000E+00  0.98133554700E+02  0.98133554700E+02  0.00000000000E+00 0. -1.
         21   -1    0    0  501  502 -0.00000000000E+00 -0.00000000000E+00 -0.52862939061E+03  0.52862939061E+03  0.00000000000E+00 0. -1.
      99926    2    1    2    0    0  0.00000000000E+00  0.00000000000E+00 -0.43049583591E+03  0.62676294531E+03  0.45552730421E+03 0.  0.
      99925    2    3    3    0    0 -0.70783579130E+02 -0.83429592085E+02 -0.30972335176E+03  0.42132606221E+03  0.26384897984E+03 0.  0.
         25    1    4    4    0    0 -0.28834291511E+02 -0.58344455090E+02 -0.10224731539E+03  0.17417667298E+03  0.12509000000E+03 0.  0.
         25    1    3    3    0    0  0.70783579130E+02  0.83429592085E+02 -0.12077248416E+03  0.20543688310E+03  0.12509000000E+03 0.  0.
         25    1    4    4    0    0 -0.41949287619E+02 -0.25085136995E+02 -0.20747603636E+03  0.24714938923E+03  0.12509000000E+03 0.  0.
<mgrwt>
<rscale>  2 0.45552730E+03</rscale>
<asrwt>0</asrwt>
<pdfrwt beam="1">  1       21 0.14431405E-01 0.45552730E+03</pdfrwt>
<pdfrwt beam="2">  1       21 0.77739616E-01 0.45552730E+03</pdfrwt>
<totfact> 0.56823524E+04</totfact>
</mgrwt>
</event>
<event>
 7    0  0.4709932E-002  0.4511965E+03  0.7546771E-02  0.1027366E+00
         21   -1    0    0  502  501  0.00000000000E+00  0.00000000000E+00  0.16522661510E+03  0.16522661510E+03  0.00000000000E+00 0.  1.
         21   -1    0    0  501  502 -0.00000000000E+00 -0.00000000000E+00 -0.30802895464E+03  0.30802895464E+03  0.00000000000E+00 0.  1.
      99926    2    1    2    0    0  0.00000000000E+00  0.00000000000E+00 -0.14280233954E+03  0.47325556974E+03  0.45119654931E+03 0.  0.
      99925    2    3    3    0    0  0.88684888904E+02 -0.53971016064E+02 -0.53383447786E+02  0.28772625562E+03  0.26298046616E+03 0.  0.
         25    1    4    4    0    0  0.18457577667E+02 -0.45936895705E+02 -0.51450981391E+02  0.14403330221E+03  0.12509000000E+03 0.  0.
         25    1    3    3    0    0 -0.88684888904E+02  0.53971016064E+02 -0.89418891750E+02  0.18552931412E+03  0.12509000000E+03 0.  0.
         25    1    4    4    0    0  0.70227311236E+02 -0.80341203592E+01 -0.19324663957E+01  0.14369295341E+03  0.12509000000E+03 0.  0.
<mgrwt>
<rscale>  2 0.45119655E+03</rscale>
<asrwt>0</asrwt>
<pdfrwt beam="1">  1       21 0.24298031E-01 0.45119655E+03</pdfrwt>
<pdfrwt beam="2">  1       21 0.45298376E-01 0.45119655E+03</pdfrwt>
<totfact> 0.69261536E+04</totfact>
</mgrwt>
</event>
<event>
 7    0  0.4709932E-002  0.4558300E+03  0.7546771E-02  0.1025998E+00
         21   -1    0    0  502  501  0.00000000000E+00  0.00000000000E+00  0.82427275013E+03  0.82427275013E+03  0.00000000000E+00 0. -1.
         21   -1    0    0  501  502 -0.00000000000E+00 -0.00000000000E+00 -0.63019483241E+02  0.63019483241E+02  0.00000000000E+00 0. -1.
      99926    2    1    2    0    0  0.00000000000E+00  0.00000000000E+00  0.76125326689E+03  0.88729223337E+03  0.45582998042E+03 0.  0.
      99925    2    3    3    0    0 -0.41894091259E+02 -0.10450355153E+03  0.52054283407E+03  0.59358297623E+03  0.26210646768E+03 0.  0.
         25    1    4    4    0    0 -0.17614877219E+02 -0.10965191296E+02  0.21626868528E+03  0.25069936508E+03  0.12509000000E+03 0.  0.
         25    1    4    4    0    0 -0.24279214040E+02 -0.93538360236E+02  0.30427414879E+03  0.34288361114E+03  0.12509000000E+03 0.  0.
         25    1    3    3    0    0  0.41894091259E+02  0.10450355153E+03  0.24071043282E+03  0.29370925715E+03  0.12509000000E+03 0.  0.
<mgrwt>
<rscale>  2 0.45582998E+03</rscale>
<asrwt>0</asrwt>
<pdfrwt beam="1">  1       21 0.12121657E+00 0.45582998E+03</pdfrwt>
<pdfrwt beam="2">  1       21 0.92675716E-02 0.45582998E+03</pdfrwt>
<totfact> 0.43504252E+04</totfact>
</mgrwt>
</event>
<event>
 7    0  0.4709932E-002  0.4343029E+03  0.7546771E-02  0.1032509E+00
         21   -1    0    0  502  501  0.00000000000E+00  0.00000000000E+00  0.20022538402E+03  0.20022538402E+03  0.00000000000E+00 0.  1.
         21   -1    0    0  501  502 -0.00000000000E+00 -0.00000000000E+00 -0.23550833908E+03  0.23550833908E+03  0.00000000000E+00 0.  1.
      99926    2    1    2    0    0  0.00000000000E+00  0.00000000000E+00 -0.35282955055E+02  0.43573372310E+03  0.43430287880E+03 0.  0.
      99925    2    3    3    0    0  0.47391016725E+02 -0.72886614169E+01  0.56649746128E+02  0.27325860901E+03  0.26298676889E+03 0.  0.
         25    1    3    3    0    0 -0.47391016725E+02  0.72886614169E+01 -0.91932701182E+02  0.16247511409E+03  0.12509000000E+03 0.  0.
         25    1    4    4    0    0  0.34813284827E+02  0.23259662483E+02  0.57447107821E+02  0.14387722195E+03  0.12509000000E+03 0.  0.
         25    1    4    4    0    0  0.12577731897E+02 -0.30548323900E+02 -0.79736169352E+00  0.12938138706E+03  0.12509000000E+03 0.  0.
<mgrwt>
<rscale>  2 0.43430288E+03</rscale>
<asrwt>0</asrwt>
<pdfrwt beam="1">  1       21 0.29444910E-01 0.43430288E+03</pdfrwt>
<pdfrwt beam="2">  1       21 0.34633579E-01 0.43430288E+03</pdfrwt>
<totfact> 0.82838393E+04</totfact>
</mgrwt>
</event>
<event>
 7    0  0.4709932E-002  0.4589593E+03  0.7546771E-02  0.1025083E+00
         21   -1    0    0  502  501  0.00000000000E+00  0.00000000000E+00  0.22061741990E+03  0.22061741990E+03  0.00000000000E+00 0.  1.
         21   -1    0    0  501  502 -0.00000000000E+00 -0.00000000000E+00 -0.23869783355E+03  0.23869783355E+03  0.00000000000E+00 0.  1.
      99926    2    1    2    0    0 -0.17763568394E-14  0.00000000000E+00 -0.18080413651E+02  0.45931525346E+03  0.45895925821E+03 0.  0.
      99925    2    3    3    0    0  0.12146988588E+02  0.37361291610E+02  0.98770827921E+02  0.28368741910E+03  0.26301988493E+03 0.  0.
         25    1    4    4    0    0  0.40016176147E+02  0.41357731710E+02  0.49167977053E+02  0.14620791495E+03  0.12509000000E+03 0.  0.
         25    1    3    3    0    0 -0.12146988588E+02 -0.37361291610E+02 -0.11685124157E+03  0.17562783435E+03  0.12509000000E+03 0.  0.
         25    1    4    4    0    0 -0.27869187559E+02 -0.39964400999E+01  0.49602850868E+02  0.13747950416E+03  0.12509000000E+03 0.  0.
<mgrwt>
<rscale>  2 0.45895926E+03</rscale>
<asrwt>0</asrwt>
<pdfrwt beam="1">  1       21 0.32443738E-01 0.45895926E+03</pdfrwt>
<pdfrwt beam="2">  1       21 0.35102622E-01 0.45895926E+03</pdfrwt>
<totfact> 0.66117331E+04</totfact>
</mgrwt>
</event>
<event>
 7    0  0.4709932E-002  0.4569358E+03  0.7546771E-02  0.1025674E+00
         21   -1    0    0  502  501  0.00000000000E+00  0.00000000000E+00  0.35386913041E+03  0.35386913041E+03  0.00000000000E+00 0.  1.
         21   -1    0    0  501  502 -0.00000000000E+00 -0.00000000000E+00 -0.14750533644E+03  0.14750533644E+03  0.00000000000E+00 0.  1.
      99926    2    1    2    0    0  0.35527136788E-14  0.00000000000E+00  0.20636379397E+03  0.50137446686E+03  0.45693581667E+03 0.  0.
      99925    2    3    3    0    0  0.20402400576E+02 -0.79520241506E+02  0.41274312933E+02  0.27857013205E+03  0.26297912998E+03 0.  0.
         25    1    4    4    0    0 -0.25470968976E+02 -0.56536623042E+02  0.11221564709E+02  0.14006638290E+03  0.12509000000E+03 0.  0.
         25    1    4    4    0    0  0.45873369552E+02 -0.22983618464E+02  0.30052748224E+02  0.13850374915E+03  0.12509000000E+03 0.  0.
         25    1    3    3    0    0 -0.20402400576E+02  0.79520241506E+02  0.16508948104E+03  0.22280433480E+03  0.12509000000E+03 0.  0.
<mgrwt>
<rscale>  2 0.45693582E+03</rscale>
<asrwt>0</asrwt>
<pdfrwt beam="1">  1       21 0.52039578E-01 0.45693582E+03</pdfrwt>
<pdfrwt beam="2">  1       21 0.21691961E-01 0.45693582E+03</pdfrwt>
<totfact> 0.64182265E+04</totfact>
</mgrwt>
</event>
<event>
 7    0  0.4709932E-002  0.4543272E+03  0.7546771E-02  0.1026439E+00
         21   -1    0    0  502  501  0.00000000000E+00  0.00000000000E+00  0.13670289518E+04  0.13670289518E+04  0.00000000000E+00 0. -1.
         21   -1    0    0  501  502 -0.00000000000E+00 -0.00000000000E+00 -0.37748500057E+02  0.37748500057E+02  0.00000000000E+00 0. -1.
      99926    2    1    2    0    0  0.00000000000E+00  0.00000000000E+00  0.13292804517E+04  0.14047774518E+04  0.45432716170E+03 0.  0.
      99925    2    3    3    0    0  0.91391458394E+02 -0.59800555988E+02  0.92051513971E+03  0.96356877834E+03  0.26303642902E+03 0.  0.
         25    1    4    4    0    0  0.85351209399E+02 -0.24538347074E+02  0.54348358623E+03  0.56472017497E+03  0.12509000000E+03 0.  0.
         25    1    3    3    0    0 -0.91391458394E+02  0.59800555988E+02  0.40876531200E+03  0.44120867349E+03  0.12509000000E+03 0.  0.
         25    1    4    4    0    0  0.60402489957E+01 -0.35262208913E+02  0.37703155348E+03  0.39884860336E+03  0.12509000000E+03 0.  0.
<mgrwt>
<rscale>  2 0.45432716E+03</rscale>
<asrwt>0</asrwt>
<pdfrwt beam="1">  1       21 0.20103364E+00 0.45432716E+03</pdfrwt>
<pdfrwt beam="2">  1       21 0.55512509E-02 0.45432716E+03</pdfrwt>
<totfact> 0.26342440E+04</totfact>
</mgrwt>
</event>
<event>
 6    0  0.4709932E-002  0.4554499E+03  0.7546771E-02  0.1026109E+00
         21   -1    0    0  502  501  0.00000000000E+00  0.00000000000E+00  0.61587878503E+03  0.61587878503E+03  0.00000000000E+00 0. -1.
         21   -1    0    0  501  502 -0.00000000000E+00 -0.00000000000E+00 -0.84202691071E+02  0.84202691071E+02  0.00000000000E+00 0. -1.
      99926    2    1    2    0    0 -0.71054273576E-14 -0.14210854715E-13  0.53167609396E+03  0.70008147610E+03  0.45544989219E+03 0.  0.
         25    1    3    3    0    0  0.50015411912E+02  0.10016527582E+03  0.14444525456E+03  0.22146458763E+03  0.12509000000E+03 0.  0.
         25    1    3    3    0    0 -0.56903755220E+02 -0.57124852320E+02  0.20592406318E+03  0.25407383574E+03  0.12509000000E+03 0.  0.
         25    1    3    3    0    0  0.68883433078E+01 -0.43040423496E+02  0.18130677622E+03  0.22454305273E+03  0.12509000000E+03 0.  0.
<mgrwt>
<rscale>  2 0.45544989E+03</rscale>
<asrwt>0</asrwt>
<pdfrwt beam="1">  1       21 0.90570407E-01 0.45544989E+03</pdfrwt>
<pdfrwt beam="2">  1       21 0.12382749E-01 0.45544989E+03</pdfrwt>
<totfact> 0.52711657E+04</totfact>
</mgrwt>
</event>
<event>
 7    0  0.4709932E-002  0.4539453E+03  0.7546771E-02  0.1026552E+00
         21   -1    0    0  502  501  0.00000000000E+00  0.00000000000E+00  0.61451530735E+03  0.61451530735E+03  0.00000000000E+00 0. -1.
         21   -1    0    0  501  502 -0.00000000000E+00 -0.00000000000E+00 -0.83832890315E+02  0.83832890315E+02  0.00000000000E+00 0. -1.
      99926    2    1    2    0    0  0.14210854715E-13  0.00000000000E+00  0.53068241704E+03  0.69834819767E+03  0.45394534631E+03 0.  0.
      99925    2    3    3    0    0  0.80808664048E+02 -0.72157817454E+02  0.37837029508E+03  0.47344092477E+03  0.26314527974E+03 0.  0.
         25    1    4    4    0    0  0.78184246806E+02 -0.19410929802E+02  0.19618258920E+03  0.24622078923E+03  0.12509000000E+03 0.  0.
         25    1    3    3    0    0 -0.80808664048E+02  0.72157817454E+02  0.15231212196E+03  0.22490727290E+03  0.12509000000E+03 0.  0.
         25    1    4    4    0    0  0.26244172424E+01 -0.52746887652E+02  0.18218770588E+03  0.22722013554E+03  0.12509000000E+03 0.  0.
<mgrwt>
<rscale>  2 0.45394535E+03</rscale>
<asrwt>0</asrwt>
<pdfrwt beam="1">  1       21 0.90369896E-01 0.45394535E+03</pdfrwt>
<pdfrwt beam="2">  1       21 0.12328367E-01 0.45394535E+03</pdfrwt>
<totfact> 0.53434881E+04</totfact>
</mgrwt>
</event>
<event>
 7    0  0.4709932E-002  0.4708849E+03  0.7546771E-02  0.1021671E+00
         21   -1    0    0  502  501  0.00000000000E+00  0.00000000000E+00  0.61166945674E+03  0.61166945674E+03  0.00000000000E+00 0.  1.
         21   -1    0    0  501  502 -0.00000000000E+00 -0.00000000000E+00 -0.90625996952E+02  0.90625996952E+02  0.00000000000E+00 0.  1.
      99926    2    1    2    0    0  0.00000000000E+00 -0.71054273576E-14  0.52104345978E+03  0.70229545369E+03  0.47088492999E+03 0.  0.
      99925    2    3    3    0    0  0.12311054599E+03 -0.31246436109E+02  0.31693181663E+03  0.43129431481E+03  0.26350799474E+03 0.  0.
         25    1    4    4    0    0  0.69198501297E+02 -0.56603340673E+02  0.15842012960E+03  0.22076416448E+03  0.12509000000E+03 0.  0.
         25    1    4    4    0    0  0.53912044689E+02  0.25356904564E+02  0.15851168703E+03  0.21053015033E+03  0.12509000000E+03 0.  0.
         25    1    3    3    0    0 -0.12311054599E+03  0.31246436109E+02  0.20411164316E+03  0.27100113888E+03  0.12509000000E+03 0.  0.
<mgrwt>
<rscale>  2 0.47088493E+03</rscale>
<asrwt>0</asrwt>
<pdfrwt beam="1">  1       21 0.89951389E-01 0.47088493E+03</pdfrwt>
<pdfrwt beam="2">  1       21 0.13327353E-01 0.47088493E+03</pdfrwt>
<totfact> 0.46663504E+04</totfact>
</mgrwt>
</event>
<event>
 7    0  0.4709932E-002  0.4651869E+03  0.7546771E-02  0.1023288E+00
         21   -1    0    0  502  501  0.00000000000E+00  0.00000000000E+00  0.35069906731E+03  0.35069906731E+03  0.00000000000E+00 0.  1.
         21   -1    0    0  501  502 -0.00000000000E+00 -0.00000000000E+00 -0.15426252106E+03  0.15426252106E+03  0.00000000000E+00 0.  1.
      99926    2    1    2    0    0  0.00000000000E+00  0.00000000000E+00  0.19643654625E+03  0.50496158836E+03  0.46518693987E+03 0.  0.
      99925    2    3    3    0    0 -0.84630481339E+02 -0.84498155329E+02  0.93590842783E+02  0.30364839097E+03  0.26294646386E+03 0.  0.
         25    1    4    4    0    0 -0.44044259814E+01 -0.31736316138E+02  0.24266075886E+02  0.13138852031E+03  0.12509000000E+03 0.  0.
         25    1    4    4    0    0 -0.80226055358E+02 -0.52761839191E+02  0.69324766896E+02  0.17225987066E+03  0.12509000000E+03 0.  0.
         25    1    3    3    0    0  0.84630481339E+02  0.84498155329E+02  0.10284570347E+03  0.20131319740E+03  0.12509000000E+03 0.  0.
<mgrwt>
<rscale>  2 0.46518694E+03</rscale>
<asrwt>0</asrwt>
<pdfrwt beam="1">  1       21 0.51573392E-01 0.46518694E+03</pdfrwt>
<pdfrwt beam="2">  1       21 0.22685665E-01 0.46518694E+03</pdfrwt>
<totfact> 0.59928740E+04</totfact>
</mgrwt>
</event>
<event>
 7    0  0.4709932E-002  0.4548890E+03  0.7546771E-02  0.1026274E+00
         21   -1    0    0  502  501  0.00000000000E+00  0.00000000000E+00  0.87924688456E+02  0.87924688456E+02  0.00000000000E+00 0.  1.
         21   -1    0    0  501  502 -0.00000000000E+00 -0.00000000000E+00 -0.58835585409E+03  0.58835585409E+03  0.00000000000E+00 0.  1.
      99926    2    1    2    0    0  0.71054273576E-14  0.00000000000E+00 -0.50043116563E+03  0.67628054254E+03  0.45488902019E+03 0.  0.
      99925    2    3    3    0    0 -0.35993707144E+02  0.34467320641E+02 -0.46579677845E+03  0.53724604315E+03  0.26302685969E+03 0.  0.
         25    1    4    4    0    0  0.83028847797E+01  0.35512295742E+02 -0.28096715559E+03  0.30970972161E+03  0.12509000000E+03 0.  0.
         25    1    4    4    0    0 -0.44296591924E+02 -0.10449751014E+01 -0.18482962286E+03  0.22753632153E+03  0.12509000000E+03 0.  0.
         25    1    3    3    0    0  0.35993707144E+02 -0.34467320641E+02 -0.34634387180E+02  0.13903449939E+03  0.12509000000E+03 0.  0.
<mgrwt>
<rscale>  2 0.45488902E+03</rscale>
<asrwt>0</asrwt>
<pdfrwt beam="1">  1       21 0.12930101E-01 0.45488902E+03</pdfrwt>
<pdfrwt beam="2">  1       21 0.86522920E-01 0.45488902E+03</pdfrwt>
<totfact> 0.54257730E+04</totfact>
</mgrwt>
</event>
<event>
 7    0  0.4709932E-002  0.4375228E+03  0.7546771E-02  0.1031510E+00
         21   -1    0    0  502  501  0.00000000000E+00  0.00000000000E+00  0.15529862194E+03  0.15529862194E+03  0.00000000000E+00 0. -1.
         21   -1    0    0  501  502 -0.00000000000E+00 -0.00000000000E+00 -0.30815827252E+03  0.30815827252E+03  0.00000000000E+00 0. -1.
      99926    2    1    2    0    0  0.88817841970E-15  0.71054273576E-14 -0.15285965058E+03  0.46345689446E+03  0.43752282255E+03 0.  0.
      99925    2    3    3    0    0  0.51355960799E+01 -0.57751623902E+02 -0.17854376416E+03  0.32321137332E+03  0.26310851699E+03 0.  0.
         25    1    4    4    0    0 -0.34971242662E+02 -0.44903560800E+02 -0.90369533740E+02  0.16447941608E+03  0.12509000000E+03 0.  0.
         25    1    3    3    0    0 -0.51355960799E+01  0.57751623902E+02  0.25684113575E+02  0.14024552114E+03  0.12509000000E+03 0.  0.
         25    1    4    4    0    0  0.40106838741E+02 -0.12848063102E+02 -0.88174230418E+02  0.15873195724E+03  0.12509000000E+03 0.  0.
<mgrwt>
<rscale>  2 0.43752282E+03</rscale>
<asrwt>0</asrwt>
<pdfrwt beam="1">  1       21 0.22838033E-01 0.43752282E+03</pdfrwt>
<pdfrwt beam="2">  1       21 0.45317392E-01 0.43752282E+03</pdfrwt>
<totfact> 0.78223869E+04</totfact>
</mgrwt>
</event>
<event>
 7    0  0.4709932E-002  0.4371978E+03  0.7546771E-02  0.1031610E+00
         21   -1    0    0  502  501  0.00000000000E+00  0.00000000000E+00  0.77527040941E+02  0.77527040941E+02  0.00000000000E+00 0. -1.
         21   -1    0    0  501  502 -0.00000000000E+00 -0.00000000000E+00 -0.61637170037E+03  0.61637170037E+03  0.00000000000E+00 0. -1.
      99926    2    1    2    0    0  0.35527136788E-14  0.71054273576E-14 -0.53884465943E+03  0.69389874131E+03  0.43719777698E+03 0.  0.
      99925    2    3    3    0    0  0.30105920335E+02  0.44046151925E+02 -0.21908410323E+03  0.34642104226E+03  0.26298909539E+03 0.  0.
         25    1    4    4    0    0 -0.15599855085E+02  0.40618812291E+02 -0.13365433261E+03  0.18816012361E+03  0.12509000000E+03 0.  0.
         25    1    3    3    0    0 -0.30105920335E+02 -0.44046151925E+02 -0.31976055620E+03  0.34747769906E+03  0.12509000000E+03 0.  0.
         25    1    4    4    0    0  0.45705775420E+02  0.34273396333E+01 -0.85429770617E+02  0.15826091865E+03  0.12509000000E+03 0.  0.
<mgrwt>
<rscale>  2 0.43719778E+03</rscale>
<asrwt>0</asrwt>
<pdfrwt beam="1">  1       21 0.11401035E-01 0.43719778E+03</pdfrwt>
<pdfrwt beam="2">  1       21 0.90642900E-01 0.43719778E+03</pdfrwt>
<totfact> 0.61396625E+04</totfact>
</mgrwt>
</event>
<event>
 7    0  0.4709932E-002  0.4616408E+03  0.7546771E-02  0.1024306E+00
         21   -1    0    0  502  501  0.00000000000E+00  0.00000000000E+00  0.28110097661E+03  0.28110097661E+03  0.00000000000E+00 0. -1.
         21   -1    0    0  501  502 -0.00000000000E+00 -0.00000000000E+00 -0.18953351941E+03  0.18953351941E+03  0.00000000000E+00 0. -1.
      99926    2    1    2    0    0  0.00000000000E+00 -0.14210854715E-13  0.91567457203E+02  0.47063449602E+03  0.46164080151E+03 0.  0.
      99925    2    3    3    0    0 -0.21853125268E+02  0.10165929297E+03 -0.24484120781E+01  0.28275511262E+03  0.26293019617E+03 0.  0.
         25    1    4    4    0    0 -0.79511286658E+01  0.22347351321E+02 -0.31550192518E+02  0.13116991769E+03  0.12509000000E+03 0.  0.
         25    1    4    4    0    0 -0.13901996603E+02  0.79311941646E+02  0.29101780440E+02  0.15158519493E+03  0.12509000000E+03 0.  0.
         25    1    3    3    0    0  0.21853125268E+02 -0.10165929297E+03  0.94015869281E+02  0.18787938340E+03  0.12509000000E+03 0.  0.
<mgrwt>
<rscale>  2 0.46164080E+03</rscale>
<asrwt>0</asrwt>
<pdfrwt beam="1">  1       21 0.41338379E-01 0.46164080E+03</pdfrwt>
<pdfrwt beam="2">  1       21 0.27872576E-01 0.46164080E+03</pdfrwt>
<totfact> 0.63950845E+04</totfact>
</mgrwt>
</event>
<event>
 7    0  0.4709932E-002  0.4537188E+03  0.7546771E-02  0.1026619E+00
         21   -1    0    0  502  501  0.00000000000E+00  0.00000000000E+00  0.77575907946E+02  0.77575907946E+02  0.00000000000E+00 0. -1.
         21   -1    0    0  501  502 -0.00000000000E+00 -0.00000000000E+00 -0.66341711279E+03  0.66341711279E+03  0.00000000000E+00 0. -1.
      99926    2    1    2    0    0  0.17763568394E-14  0.00000000000E+00 -0.58584120484E+03  0.74099302073E+03  0.45371878899E+03 0.  0.
      99925    2    3    3    0    0 -0.70381045973E+01  0.37104244612E+02 -0.54115916587E+03  0.60289793541E+03  0.26307112694E+03 0.  0.
         25    1    3    3    0    0  0.70381045973E+01 -0.37104244612E+02 -0.44682038971E+02  0.13809508533E+03  0.12509000000E+03 0.  0.
         25    1    4    4    0    0  0.20236390487E+02  0.51399461417E+02 -0.29031065046E+03  0.32090372077E+03  0.12509000000E+03 0.  0.
         25    1    4    4    0    0 -0.27274495085E+02 -0.14295216805E+02 -0.25084851541E+03  0.28199421463E+03  0.12509000000E+03 0.  0.
<mgrwt>
<rscale>  2 0.45371879E+03</rscale>
<asrwt>0</asrwt>
<pdfrwt beam="1">  1       21 0.11408222E-01 0.45371879E+03</pdfrwt>
<pdfrwt beam="2">  1       21 0.97561342E-01 0.45371879E+03</pdfrwt>
<totfact> 0.51247382E+04</totfact>
</mgrwt>
</event>
<event>
 7    0  0.4709932E-002  0.4316218E+03  0.7546771E-02  0.1033349E+00
         21   -1    0    0  502  501  0.00000000000E+00  0.00000000000E+00  0.13683512223E+03  0.13683512223E+03  0.00000000000E+00 0.  1.
         21   -1    0    0  501  502 -0.00000000000E+00 -0.00000000000E+00 -0.34036842042E+03  0.34036842042E+03  0.00000000000E+00 0.  1.
      99926    2    1    2    0    0  0.71054273576E-14  0.00000000000E+00 -0.20353329819E+03  0.47720354265E+03  0.43162184566E+03 0.  0.
      99925    2    3    3    0    0  0.43660892157E+02 -0.65342444801E+02 -0.17821805094E+03  0.32732266182E+03  0.26306376159E+03 0.  0.
         25    1    4    4    0    0  0.58091290007E+02 -0.34881827611E+02 -0.11621868985E+03  0.18369984170E+03  0.12509000000E+03 0.  0.
         25    1    3    3    0    0 -0.43660892157E+02  0.65342444801E+02 -0.25315247256E+02  0.14988088084E+03  0.12509000000E+03 0.  0.
         25    1    4    4    0    0 -0.14430397849E+02 -0.30460617190E+02 -0.61999361088E+02  0.14362282011E+03  0.12509000000E+03 0.  0.
<mgrwt>
<rscale>  2 0.43162185E+03</rscale>
<asrwt>0</asrwt>
<pdfrwt beam="1">  1       21 0.20122812E-01 0.43162185E+03</pdfrwt>
<pdfrwt beam="2">  1       21 0.50054179E-01 0.43162185E+03</pdfrwt>
<totfact> 0.80908949E+04</totfact>
</mgrwt>
</event>
<event>
 7    0  0.4709932E-002  0.4519416E+03  0.7546771E-02  0.1027145E+00
         21   -1    0    0  502  501  0.00000000000E+00  0.00000000000E+00  0.42577495248E+03  0.42577495248E+03  0.00000000000E+00 0. -1.
         21   -1    0    0  501  502 -0.00000000000E+00 -0.00000000000E+00 -0.11992911115E+03  0.11992911115E+03  0.00000000000E+00 0. -1.
      99926    2    1    2    0    0  0.00000000000E+00 -0.88817841970E-15  0.30584584134E+03  0.54570406363E+03  0.45194164048E+03 0.  0.
      99925    2    3    3    0    0  0.10914188278E+03  0.67555212064E+00  0.17919744627E+03  0.33689857754E+03  0.26358399013E+03 0.  0.
         25    1    4    4    0    0  0.13406944592E+02  0.16604993077E+02  0.83335050706E+02  0.15181472503E+03  0.12509000000E+03 0.  0.
         25    1    4    4    0    0  0.95734938187E+02 -0.15929440956E+02  0.95862395568E+02  0.18508385252E+03  0.12509000000E+03 0.  0.
         25    1    3    3    0    0 -0.10914188278E+03 -0.67555212064E+00  0.12664839507E+03  0.20880548609E+03  0.12509000000E+03 0.  0.
<mgrwt>
<rscale>  2 0.45194164E+03</rscale>
<asrwt>0</asrwt>
<pdfrwt beam="1">  1       21 0.62613963E-01 0.45194164E+03</pdfrwt>
<pdfrwt beam="2">  1       21 0.17636634E-01 0.45194164E+03</pdfrwt>
<totfact> 0.63678365E+04</totfact>
</mgrwt>
</event>
<event>
 7    0  0.4709932E-002  0.4388332E+03  0.7546771E-02  0.1031105E+00
         21   -1    0    0  502  501  0.00000000000E+00  0.00000000000E+00  0.73637189020E+03  0.73637189020E+03  0.00000000000E+00 0.  1.
         21   -1    0    0  501  502 -0.00000000000E+00 -0.00000000000E+00 -0.65379529553E+02  0.65379529553E+02  0.00000000000E+00 0.  1.
      99926    2    1    2    0    0  0.53290705182E-14  0.00000000000E+00  0.67099236065E+03  0.80175141975E+03  0.43883321550E+03 0.  0.
      99925    2    3    3    0    0  0.98242419061E+01  0.86059428975E+02  0.50911085977E+03  0.57958961054E+03  0.26311120856E+03 0.  0.
         25    1    4    4    0    0  0.34209775517E+02  0.14989155650E+02  0.22250175510E+03  0.25797194160E+03  0.12509000000E+03 0.  0.
         25    1    3    3    0    0 -0.98242419061E+01 -0.86059428975E+02  0.16188150088E+03  0.22216180921E+03  0.12509000000E+03 0.  0.
         25    1    4    4    0    0 -0.24385533611E+02  0.71070273325E+02  0.28660910467E+03  0.32161766895E+03  0.12509000000E+03 0.  0.
<mgrwt>
<rscale>  2 0.43883322E+03</rscale>
<asrwt>0</asrwt>
<pdfrwt beam="1">  1       21 0.10828998E+00 0.43883322E+03</pdfrwt>
<pdfrwt beam="2">  1       21 0.96146371E-02 0.43883322E+03</pdfrwt>
<totfact> 0.54241539E+04</totfact>
</mgrwt>
</event>
<event>
 7    0  0.4709932E-002  0.4534512E+03  0.7546771E-02  0.1026698E+00
         21   -1    0    0  502  501  0.00000000000E+00  0.00000000000E+00  0.29131593224E+02  0.29131593224E+02  0.00000000000E+00 0. -1.
         21   -1    0    0  501  502 -0.00000000000E+00 -0.00000000000E+00 -0.17645615754E+04  0.17645615754E+04  0.00000000000E+00 0. -1.
      99926    2    1    2    0    0  0.00000000000E+00  0.17763568394E-14 -0.17354299822E+04  0.17936931686E+04  0.45345116620E+03 0.  0.
      99925    2    3    3    0    0 -0.43746239467E+02  0.10266268040E+02 -0.68897145009E+03  0.73882725430E+03  0.26299224880E+03 0.  0.
         25    1    3    3    0    0  0.43746239467E+02 -0.10266268040E+02 -0.10464585321E+04  0.10548659143E+04  0.12509000000E+03 0.  0.
         25    1    4    4    0    0  0.17858774891E+02  0.11483272471E+02 -0.30612465974E+03  0.33137685011E+03  0.12509000000E+03 0.  0.
         25    1    4    4    0    0 -0.61605014358E+02 -0.12170044309E+01 -0.38284679036E+03  0.40745040420E+03  0.12509000000E+03 0.  0.
<mgrwt>
<rscale>  2 0.45345117E+03</rscale>
<asrwt>0</asrwt>
<pdfrwt beam="1">  1       21 0.42840559E-02 0.45345117E+03</pdfrwt>
<pdfrwt beam="2">  1       21 0.25949447E+00 0.45345117E+03</pdfrwt>
<totfact> 0.17591506E+04</totfact>
</mgrwt>
</event>
<event>
 7    0  0.4709932E-002  0.4442378E+03  0.7546771E-02  0.1029454E+00
         21   -1    0    0  502  501  0.00000000000E+00  0.00000000000E+00  0.74208517780E+02  0.74208517780E+02  0.00000000000E+00 0.  1.
         21   -1    0    0  501  502 -0.00000000000E+00 -0.00000000000E+00 -0.66484019575E+03  0.66484019575E+03  0.00000000000E+00 0.  1.
      99926    2    1    2    0    0 -0.71054273576E-14 -0.14210854715E-13 -0.59063167797E+03  0.73904871353E+03  0.44423779887E+03 0.  0.
      99925    2    3    3    0    0 -0.32584119267E+02 -0.91714025536E+02 -0.32061578718E+03  0.42595243970E+03  0.26299773875E+03 0.  0.
         25    1    3    3    0    0  0.32584119267E+02  0.91714025536E+02 -0.27001589080E+03  0.31309627384E+03  0.12509000000E+03 0.  0.
         25    1    4    4    0    0 -0.90348093487E+01 -0.44939966060E+01 -0.12967736436E+03  0.18045927716E+03  0.12509000000E+03 0.  0.
         25    1    4    4    0    0 -0.23549309918E+02 -0.87220028930E+02 -0.19093842282E+03  0.24549316254E+03  0.12509000000E+03 0.  0.
<mgrwt>
<rscale>  2 0.44423780E+03</rscale>
<asrwt>0</asrwt>
<pdfrwt beam="1">  1       21 0.10913017E-01 0.44423780E+03</pdfrwt>
<pdfrwt beam="2">  1       21 0.97770619E-01 0.44423780E+03</pdfrwt>
<totfact> 0.55371912E+04</totfact>
</mgrwt>
</event>
<event>
 7    0  0.4709932E-002  0.4514568E+03  0.7546771E-02  0.1027288E+00
         21   -1    0    0  502  501  0.00000000000E+00  0.00000000000E+00  0.49644330653E+02  0.49644330653E+02  0.00000000000E+00 0. -1.
         21   -1    0    0  501  502 -0.00000000000E+00 -0.00000000000E+00 -0.10263671768E+04  0.10263671768E+04  0.00000000000E+00 0. -1.
      99926    2    1    2    0    0 -0.17763568394E-14  0.00000000000E+00 -0.97672284616E+03  0.10760115075E+04  0.45145680412E+03 0.  0.
      99925    2    3    3    0    0  0.55933322560E+01 -0.29480575268E+02 -0.86846894496E+03  0.90788416017E+03  0.26289722373E+03 0.  0.
         25    1    3    3    0    0 -0.55933322560E+01  0.29480575268E+02 -0.10825390120E+03  0.16812734730E+03  0.12509000000E+03 0.  0.
         25    1    4    4    0    0 -0.35565303913E+02 -0.32558032377E+01 -0.40794428353E+03  0.42818399977E+03  0.12509000000E+03 0.  0.
         25    1    4    4    0    0  0.41158636169E+02 -0.26224772031E+02 -0.46052466144E+03  0.47970016040E+03  0.12509000000E+03 0.  0.
<mgrwt>
<rscale>  2 0.45145680E+03</rscale>
<asrwt>0</asrwt>
<pdfrwt beam="1">  1       21 0.73006365E-02 0.45145680E+03</pdfrwt>
<pdfrwt beam="2">  1       21 0.15093636E+00 0.45145680E+03</pdfrwt>
<totfact> 0.37359455E+04</totfact>
</mgrwt>
</event>
<event>
 7    0  0.4709932E-002  0.4541244E+03  0.7546771E-02  0.1026499E+00
         21   -1    0    0  502  501  0.00000000000E+00  0.00000000000E+00  0.34247386648E+03  0.34247386648E+03  0.00000000000E+00 0.  1.
         21   -1    0    0  501  502 -0.00000000000E+00 -0.00000000000E+00 -0.15054360111E+03  0.15054360111E+03  0.00000000000E+00 0.  1.
      99926    2    1    2    0    0  0.35527136788E-14 -0.14210854715E-13  0.19193026537E+03  0.49301746758E+03  0.45412442852E+03 0.  0.
      99925    2    3    3    0    0  0.26902861430E+02  0.91082099933E+02  0.55796686365E+02  0.28517239953E+03  0.26304051848E+03 0.  0.
         25    1    4    4    0    0  0.74203981502E+01  0.36648635020E+01  0.33107167062E+02  0.12966142890E+03  0.12509000000E+03 0.  0.
         25    1    3    3    0    0 -0.26902861430E+02 -0.91082099933E+02  0.13613357901E+03  0.20784506805E+03  0.12509000000E+03 0.  0.
         25    1    4    4    0    0  0.19482463280E+02  0.87417236431E+02  0.22689519303E+02  0.15551097063E+03  0.12509000000E+03 0.  0.
<mgrwt>
<rscale>  2 0.45412443E+03</rscale>
<asrwt>0</asrwt>
<pdfrwt beam="1">  1       21 0.50363804E-01 0.45412443E+03</pdfrwt>
<pdfrwt beam="2">  1       21 0.22138765E-01 0.45412443E+03</pdfrwt>
<totfact> 0.66223147E+04</totfact>
</mgrwt>
</event>
<event>
 7    0  0.4709932E-002  0.4521400E+03  0.7546771E-02  0.1027086E+00
         21   -1    0    0  502  501  0.00000000000E+00  0.00000000000E+00  0.64014653965E+03  0.64014653965E+03  0.00000000000E+00 0.  1.
         21   -1    0    0  501  502 -0.00000000000E+00 -0.00000000000E+00 -0.79837426266E+02  0.79837426266E+02  0.00000000000E+00 0.  1.
      99926    2    1    2    0    0 -0.71054273576E-14  0.71054273576E-14  0.56030911338E+03  0.71998396591E+03  0.45214003211E+03 0.  0.
      99925    2    3    3    0    0 -0.36613188307E+02  0.46877801217E+02  0.20506848907E+03  0.33869475407E+03  0.26291252808E+03 0.  0.
         25    1    4    4    0    0 -0.28736655531E+02  0.43628304720E+02  0.63838298940E+02  0.14984011764E+03  0.12509000000E+03 0.  0.
         25    1    4    4    0    0 -0.78765327760E+01  0.32494964970E+01  0.14123019013E+03  0.18885463642E+03  0.12509000000E+03 0.  0.
         25    1    3    3    0    0  0.36613188307E+02 -0.46877801217E+02  0.35524062432E+03  0.38128921185E+03  0.12509000000E+03 0.  0.
<mgrwt>
<rscale>  2 0.45214003E+03</rscale>
<asrwt>0</asrwt>
<pdfrwt beam="1">  1       21 0.94139195E-01 0.45214003E+03</pdfrwt>
<pdfrwt beam="2">  1       21 0.11740798E-01 0.45214003E+03</pdfrwt>
<totfact> 0.53013924E+04</totfact>
</mgrwt>
</event>
<event>
 7    0  0.4709932E-002  0.4540852E+03  0.7546771E-02  0.1026511E+00
         21   -1    0    0  502  501  0.00000000000E+00  0.00000000000E+00  0.25852781204E+03  0.25852781204E+03  0.00000000000E+00 0. -1.
         21   -1    0    0  501  502 -0.00000000000E+00 -0.00000000000E+00 -0.19939183571E+03  0.19939183571E+03  0.00000000000E+00 0. -1.
      99926    2    1    2    0    0  0.14210854715E-13  0.00000000000E+00  0.59135976321E+02  0.45791964775E+03  0.45408516833E+03 0.  0.
      99925    2    3    3    0    0 -0.81850368956E+02 -0.26916485840E+02  0.10952834861E+03  0.29788565326E+03  0.26327822386E+03 0.  0.
         25    1    3    3    0    0  0.81850368956E+02  0.26916485840E+02 -0.50392372289E+02  0.16003399449E+03  0.12509000000E+03 0.  0.
         25    1    4    4    0    0 -0.17385981740E+02 -0.16408821702E+01  0.86458999330E+02  0.15306087521E+03  0.12509000000E+03 0.  0.
         25    1    4    4    0    0 -0.64464387216E+02 -0.25275603670E+02  0.23069349280E+02  0.14482477805E+03  0.12509000000E+03 0.  0.
<mgrwt>
<rscale>  2 0.45408517E+03</rscale>
<asrwt>0</asrwt>
<pdfrwt beam="1">  1       21 0.38018796E-01 0.45408517E+03</pdfrwt>
<pdfrwt beam="2">  1       21 0.29322329E-01 0.45408517E+03</pdfrwt>
<totfact> 0.68833245E+04</totfact>
</mgrwt>
</event>
<event>
 7    0  0.4709932E-002  0.4516333E+03  0.7546771E-02  0.1027236E+00
         21   -1    0    0  502  501  0.00000000000E+00  0.00000000000E+00  0.36350605745E+03  0.36350605745E+03  0.00000000000E+00 0.  1.
         21   -1    0    0  501  502 -0.00000000000E+00 -0.00000000000E+00 -0.14028145563E+03  0.14028145563E+03  0.00000000000E+00 0.  1.
      99926    2    1    2    0    0 -0.14210854715E-13  0.71054273576E-14  0.22322460182E+03  0.50378751308E+03  0.45163329757E+03 0.  0.
      99925    2    3    3    0    0 -0.10064525185E+03  0.35402298052E+02  0.17061702968E+03  0.33116696339E+03  0.26301824536E+03 0.  0.
         25    1    4    4    0    0 -0.66123085753E+02  0.26491104288E+02  0.46226648418E+02  0.15119011939E+03  0.12509000000E+03 0.  0.
         25    1    3    3    0    0  0.10064525185E+03 -0.35402298052E+02  0.52607572140E+02  0.17262054969E+03  0.12509000000E+03 0.  0.
         25    1    4    4    0    0 -0.34522166101E+02  0.89111937641E+01  0.12439038126E+03  0.17997684400E+03  0.12509000000E+03 0.  0.
<mgrwt>
<rscale>  2 0.45163330E+03</rscale>
<asrwt>0</asrwt>
<pdfrwt beam="1">  1       21 0.53456773E-01 0.45163330E+03</pdfrwt>
<pdfrwt beam="2">  1       21 0.20629626E-01 0.45163330E+03</pdfrwt>
<totfact> 0.66771911E+04</totfact>
</mgrwt>
</event>
<event>
 7    0  0.4709932E-002  0.4536275E+03  0.7546771E-02  0.1026646E+00
         21   -1    0    0  502  501  0.00000000000E+00  0.00000000000E+00  0.16125741083E+03  0.16125741083E+03  0.00000000000E+00 0. -1.
         21   -1    0    0  501  502 -0.00000000000E+00 -0.00000000000E+00 -0.31902091237E+03  0.31902091237E+03  0.00000000000E+00 0. -1.
      99926    2    1    2    0    0  0.17763568394E-14  0.00000000000E+00 -0.15776350154E+03  0.48027832319E+03  0.45362754029E+03 0.  0.
      99925    2    3    3    0    0 -0.86894921698E+01  0.92014305642E+02 -0.32715873174E+02  0.28071240131E+03  0.26303418823E+03 0.  0.
         25    1    4    4    0    0 -0.43636301981E+02  0.57178494605E+02 -0.19125540437E+02  0.14555686687E+03  0.12509000000E+03 0.  0.
         25    1    3    3    0    0  0.86894921698E+01 -0.92014305642E+02 -0.12504762836E+03  0.19956592188E+03  0.12509000000E+03 0.  0.
         25    1    4    4    0    0  0.34946809811E+02  0.34835811038E+02 -0.13590332737E+02  0.13515553444E+03  0.12509000000E+03 0.  0.
<mgrwt>
<rscale>  2 0.45362754E+03</rscale>
<asrwt>0</asrwt>
<pdfrwt beam="1">  1       21 0.23714325E-01 0.45362754E+03</pdfrwt>
<pdfrwt beam="2">  1       21 0.46914840E-01 0.45362754E+03</pdfrwt>
<totfact> 0.67411246E+04</totfact>
</mgrwt>
</event>
<event>
 7    0  0.4709932E-002  0.4637746E+03  0.7546771E-02  0.1023692E+00
         21   -1    0    0  502  501  0.00000000000E+00  0.00000000000E+00  0.21284201241E+03  0.21284201241E+03  0.00000000000E+00 0.  1.
         21   -1    0    0  501  502 -0.00000000000E+00 -0.00000000000E+00 -0.25263679708E+03  0.25263679708E+03  0.00000000000E+00 0.  1.
      99926    2    1    2    0    0  0.00000000000E+00  0.00000000000E+00 -0.39794784667E+02  0.46547880950E+03  0.46377461897E+03 0.  0.
      99925    2    3    3    0    0  0.51355860433E+02 -0.72738817501E+02  0.57639571676E+02  0.28362908619E+03  0.26304900368E+03 0.  0.
         25    1    4    4    0    0  0.56526244130E+02 -0.13564213017E+02  0.42449747600E+02  0.14432149293E+03  0.12509000000E+03 0.  0.
         25    1    4    4    0    0 -0.51703836967E+01 -0.59174604484E+02  0.15189824076E+02  0.13930759326E+03  0.12509000000E+03 0.  0.
         25    1    3    3    0    0 -0.51355860433E+02  0.72738817501E+02 -0.97434356343E+02  0.18184972331E+03  0.12509000000E+03 0.  0.
<mgrwt>
<rscale>  2 0.46377462E+03</rscale>
<asrwt>0</asrwt>
<pdfrwt beam="1">  1       21 0.31300296E-01 0.46377462E+03</pdfrwt>
<pdfrwt beam="2">  1       21 0.37152470E-01 0.46377462E+03</pdfrwt>
<totfact> 0.63240109E+04</totfact>
</mgrwt>
</event>
<event>
 7    0  0.4709932E-002  0.4557594E+03  0.7546771E-02  0.1026018E+00
         21   -1    0    0  502  501  0.00000000000E+00  0.00000000000E+00  0.12593892290E+04  0.12593892290E+04  0.00000000000E+00 0. -1.
         21   -1    0    0  501  502 -0.00000000000E+00 -0.00000000000E+00 -0.41233596366E+02  0.41233596366E+02  0.00000000000E+00 0. -1.
      99926    2    1    2    0    0  0.17763568394E-14  0.00000000000E+00  0.12181556327E+04  0.13006228254E+04  0.45575935377E+03 0.  0.
      99925    2    3    3    0    0 -0.10494406393E+02 -0.79524271046E+02  0.99651878195E+03  0.10337808423E+04  0.26309485906E+03 0.  0.
         25    1    4    4    0    0 -0.36005753105E+02 -0.58516563008E+02  0.44671393194E+03  0.46895783126E+03  0.12509000000E+03 0.  0.
         25    1    4    4    0    0  0.25511346713E+02 -0.21007708038E+02  0.54980485000E+03  0.56482301103E+03  0.12509000000E+03 0.  0.
         25    1    3    3    0    0  0.10494406393E+02  0.79524271046E+02  0.22163685071E+03  0.26684198310E+03  0.12509000000E+03 0.  0.
<mgrwt>
<rscale>  2 0.45575935E+03</rscale>
<asrwt>0</asrwt>
<pdfrwt beam="1">  1       21 0.18520427E+00 0.45575935E+03</pdfrwt>
<pdfrwt beam="2">  1       21 0.60637650E-02 0.45575935E+03</pdfrwt>
<totfact> 0.28925410E+04</totfact>
</mgrwt>
</event>
<event>
 7    0  0.4709932E-002  0.4527360E+03  0.7546771E-02  0.1026909E+00
         21   -1    0    0  502  501  0.00000000000E+00  0.00000000000E+00  0.41667127577E+02  0.41667127577E+02  0.00000000000E+00 0. -1.
         21   -1    0    0  501  502 -0.00000000000E+00 -0.00000000000E+00 -0.12298059091E+04  0.12298059091E+04  0.00000000000E+00 0. -1.
      99926    2    1    2    0    0 -0.71054273576E-14 -0.71054273576E-14 -0.11881387816E+04  0.12714730367E+04  0.45273603661E+03 0.  0.
      99925    2    3    3    0    0 -0.45672464977E+02  0.61454134523E+02 -0.52353102318E+03  0.59087508983E+03  0.26303242165E+03 0.  0.
         25    1    4    4    0    0 -0.52500830085E+02  0.27865708172E+02 -0.33020329705E+03  0.35807060803E+03  0.12509000000E+03 0.  0.
         25    1    3    3    0    0  0.45672464977E+02 -0.61454134523E+02 -0.66460775837E+03  0.68059794688E+03  0.12509000000E+03 0.  0.
         25    1    4    4    0    0  0.68283651075E+01  0.33588426351E+02 -0.19332772614E+03  0.23280448180E+03  0.12509000000E+03 0.  0.
<mgrwt>
<rscale>  2 0.45273604E+03</rscale>
<asrwt>0</asrwt>
<pdfrwt beam="1">  1       21 0.61275194E-02 0.45273604E+03</pdfrwt>
<pdfrwt beam="2">  1       21 0.18085379E+00 0.45273604E+03</pdfrwt>
<totfact> 0.30488230E+04</totfact>
</mgrwt>
</event>
<event>
 7    0  0.4709932E-002  0.4455722E+03  0.7546771E-02  0.1029051E+00
         21   -1    0    0  502  501  0.00000000000E+00  0.00000000000E+00  0.12254198973E+03  0.12254198973E+03  0.00000000000E+00 0.  1.
         21   -1    0    0  501  502 -0.00000000000E+00 -0.00000000000E+00 -0.40503378832E+03  0.40503378832E+03  0.00000000000E+00 0.  1.
      99926    2    1    2    0    0  0.14210854715E-13  0.71054273576E-14 -0.28249179859E+03  0.52757577805E+03  0.44557219990E+03 0.  0.
      99925    2    3    3    0    0 -0.82246085287E+02 -0.56229847571E+02 -0.21476403446E+03  0.35390720739E+03  0.26305989174E+03 0.  0.
         25    1    4    4    0    0 -0.28403829042E+02 -0.47928982042E+01 -0.14110907878E+03  0.19075908784E+03  0.12509000000E+03 0.  0.
         25    1    4    4    0    0 -0.53842256245E+02 -0.51436949367E+02 -0.73654955672E+02  0.16314811955E+03  0.12509000000E+03 0.  0.
         25    1    3    3    0    0  0.82246085287E+02  0.56229847571E+02 -0.67727764130E+02  0.17366857067E+03  0.12509000000E+03 0.  0.
<mgrwt>
<rscale>  2 0.44557220E+03</rscale>
<asrwt>0</asrwt>
<pdfrwt beam="1">  1       21 0.18020881E-01 0.44557220E+03</pdfrwt>
<pdfrwt beam="2">  1       21 0.59563792E-01 0.44557220E+03</pdfrwt>
<totfact> 0.68331907E+04</totfact>
</mgrwt>
</event>
<event>
 7    0  0.4709932E-002  0.4513844E+03  0.7546771E-02  0.1027310E+00
         21   -1    0    0  502  501  0.00000000000E+00  0.00000000000E+00  0.64308095994E+02  0.64308095994E+02  0.00000000000E+00 0.  1.
         21   -1    0    0  501  502 -0.00000000000E+00 -0.00000000000E+00 -0.79207721503E+03  0.79207721503E+03  0.00000000000E+00 0.  1.
      99926    2    1    2    0    0  0.00000000000E+00  0.00000000000E+00 -0.72776911903E+03  0.85638531102E+03  0.45138443739E+03 0.  0.
      99925    2    3    3    0    0  0.20319492914E+02  0.75174078559E+02 -0.60621907348E+03  0.66537236499E+03  0.26297299320E+03 0.  0.
         25    1    3    3    0    0 -0.20319492914E+02 -0.75174078559E+02 -0.12155004555E+03  0.19101294604E+03  0.12509000000E+03 0.  0.
         25    1    4    4    0    0  0.75417238258E+01  0.67577362205E+02 -0.25225972528E+03  0.28966541834E+03  0.12509000000E+03 0.  0.
         25    1    4    4    0    0  0.12777769089E+02  0.75967163545E+01 -0.35395934820E+03  0.37570694665E+03  0.12509000000E+03 0.  0.
<mgrwt>
<rscale>  2 0.45138444E+03</rscale>
<asrwt>0</asrwt>
<pdfrwt beam="1">  1       21 0.94570731E-02 0.45138444E+03</pdfrwt>
<pdfrwt beam="2">  1       21 0.11648194E+00 0.45138444E+03</pdfrwt>
<totfact> 0.46458680E+04</totfact>
</mgrwt>
</event>
<event>
 7    0  0.4709932E-002  0.4351436E+03  0.7546771E-02  0.1032247E+00
         21   -1    0    0  502  501  0.00000000000E+00  0.00000000000E+00  0.39596923542E+04  0.39596923542E+04  0.00000000000E+00 0.  1.
         21   -1    0    0  501  502 -0.00000000000E+00 -0.00000000000E+00 -0.11954839191E+02  0.11954839191E+02  0.00000000000E+00 0.  1.
      99926    2    1    2    0    0  0.71054273576E-14 -0.71054273576E-14  0.39477375150E+04  0.39716471934E+04  0.43514358706E+03 0.  0.
      99925    2    3    3    0    0  0.41915555625E+02 -0.38943732107E+02  0.32056369882E+04  0.32169060271E+04  0.26287327580E+03 0.  0.
         25    1    4    4    0    0  0.13492134491E+02 -0.57697981044E+02  0.17913406088E+04  0.17966802107E+04  0.12509000000E+03 0.  0.
         25    1    3    3    0    0 -0.41915555625E+02  0.38943732107E+02  0.74210052680E+03  0.75474116626E+03  0.12509000000E+03 0.  0.
         25    1    4    4    0    0  0.28423421134E+02  0.18754248938E+02  0.14142963795E+04  0.14202258165E+04  0.12509000000E+03 0.  0.
<mgrwt>
<rscale>  2 0.43514359E+03</rscale>
<asrwt>0</asrwt>
<pdfrwt beam="1">  1       21 0.58230679E+00 0.43514359E+03</pdfrwt>
<pdfrwt beam="2">  1       21 0.17580673E-02 0.43514359E+03</pdfrwt>
<totfact> 0.56158538E+02</totfact>
</mgrwt>
</event>
<event>
 7    0  0.4709932E-002  0.4534479E+03  0.7546771E-02  0.1026699E+00
         21   -1    0    0  502  501  0.00000000000E+00  0.00000000000E+00  0.76034351209E+03  0.76034351209E+03  0.00000000000E+00 0.  1.
         21   -1    0    0  501  502 -0.00000000000E+00 -0.00000000000E+00 -0.67605960159E+02  0.67605960159E+02  0.00000000000E+00 0.  1.
      99926    2    1    2    0    0  0.00000000000E+00 -0.14210854715E-13  0.69273755193E+03  0.82794947225E+03  0.45344791624E+03 0.  0.
      99925    2    3    3    0    0 -0.26863703515E+02 -0.89200983302E+02  0.54909488997E+03  0.61591363465E+03  0.26299416947E+03 0.  0.
         25    1    4    4    0    0  0.18950221880E+01 -0.44434824083E+01  0.24896614424E+03  0.27866643989E+03  0.12509000000E+03 0.  0.
         25    1    3    3    0    0  0.26863703515E+02  0.89200983302E+02  0.14364266196E+03  0.21203583759E+03  0.12509000000E+03 0.  0.
         25    1    4    4    0    0 -0.28758725703E+02 -0.84757500894E+02  0.30012874573E+03  0.33724719476E+03  0.12509000000E+03 0.  0.
<mgrwt>
<rscale>  2 0.45344792E+03</rscale>
<asrwt>0</asrwt>
<pdfrwt beam="1">  1       21 0.11181522E+00 0.45344792E+03</pdfrwt>
<pdfrwt beam="2">  1       21 0.99420534E-02 0.45344792E+03</pdfrwt>
<totfact> 0.47012362E+04</totfact>
</mgrwt>
</event>
<event>
 7    0  0.4709932E-002  0.4287960E+03  0.7546771E-02  0.1034241E+00
         21   -1    0    0  502  501  0.00000000000E+00  0.00000000000E+00  0.46832444401E+03  0.46832444401E+03  0.00000000000E+00 0. -1.
         21   -1    0    0  501  502 -0.00000000000E+00 -0.00000000000E+00 -0.98150996088E+02  0.98150996088E+02  0.00000000000E+00 0. -1.
      99926    2    1    2    0    0  0.00000000000E+00  0.00000000000E+00  0.37017344792E+03  0.56647544010E+03  0.42879603856E+03 0.  0.
      99925    2    3    3    0    0 -0.67879106408E+02  0.52396621454E+02  0.22628523165E+03  0.35741969177E+03  0.26304153850E+03 0.  0.
         25    1    4    4    0    0 -0.75830044316E+02  0.25964334141E+02  0.12119834860E+03  0.19173129654E+03  0.12509000000E+03 0.  0.
         25    1    4    4    0    0  0.79509379082E+01  0.26432287313E+02  0.10508688305E+03  0.16568839523E+03  0.12509000000E+03 0.  0.
         25    1    3    3    0    0  0.67879106408E+02 -0.52396621454E+02  0.14388821627E+03  0.20905574833E+03  0.12509000000E+03 0.  0.
<mgrwt>
<rscale>  2 0.42879604E+03</rscale>
<asrwt>0</asrwt>
<pdfrwt beam="1">  1       21 0.68871241E-01 0.42879604E+03</pdfrwt>
<pdfrwt beam="2">  1       21 0.14433970E-01 0.42879604E+03</pdfrwt>
<totfact> 0.75204999E+04</totfact>
</mgrwt>
</event>
<event>
 7    0  0.4709932E-002  0.4662585E+03  0.7546771E-02  0.1022982E+00
         21   -1    0    0  502  501  0.00000000000E+00  0.00000000000E+00  0.43531814467E+02  0.43531814467E+02  0.00000000000E+00 0.  1.
         21   -1    0    0  501  502 -0.00000000000E+00 -0.00000000000E+00 -0.12484949248E+04  0.12484949248E+04  0.00000000000E+00 0.  1.
      99926    2    1    2    0    0  0.00000000000E+00  0.00000000000E+00 -0.12049631103E+04  0.12920267393E+04  0.46625850954E+03 0.  0.
      99925    2    3    3    0    0 -0.24743062843E+02 -0.92943491973E+02 -0.96510559030E+03  0.10049207486E+04  0.26303269508E+03 0.  0.
         25    1    4    4    0    0 -0.15780563584E+02 -0.89238882142E+02 -0.51707901993E+03  0.53965806324E+03  0.12509000000E+03 0.  0.
         25    1    4    4    0    0 -0.89624992593E+01 -0.37046098310E+01 -0.44802657037E+03  0.46526268536E+03  0.12509000000E+03 0.  0.
         25    1    3    3    0    0  0.24743062843E+02  0.92943491973E+02 -0.23985752001E+03  0.28710599065E+03  0.12509000000E+03 0.  0.
<mgrwt>
<rscale>  2 0.46625851E+03</rscale>
<asrwt>0</asrwt>
<pdfrwt beam="1">  1       21 0.64017379E-02 0.46625851E+03</pdfrwt>
<pdfrwt beam="2">  1       21 0.18360218E+00 0.46625851E+03</pdfrwt>
<totfact> 0.26911242E+04</totfact>
</mgrwt>
</event>
<event>
 7    0  0.4709932E-002  0.4401639E+03  0.7546771E-02  0.1030697E+00
         21   -1    0    0  502  501  0.00000000000E+00  0.00000000000E+00  0.62033480350E+02  0.62033480350E+02  0.00000000000E+00 0.  1.
         21   -1    0    0  501  502 -0.00000000000E+00 -0.00000000000E+00 -0.78080516863E+03  0.78080516863E+03  0.00000000000E+00 0.  1.
      99926    2    1    2    0    0  0.71054273576E-14  0.00000000000E+00 -0.71877168828E+03  0.84283864898E+03  0.44016388805E+03 0.  0.
      99925    2    3    3    0    0 -0.34138810019E+02  0.88144692505E+02 -0.51166898325E+03  0.58308110107E+03  0.26314155285E+03 0.  0.
         25    1    4    4    0    0 -0.40454243912E+02  0.74317138329E+02 -0.31781420212E+03  0.35187065531E+03  0.12509000000E+03 0.  0.
         25    1    4    4    0    0  0.63154338925E+01  0.13827554176E+02 -0.19385478113E+03  0.23121044575E+03  0.12509000000E+03 0.  0.
         25    1    3    3    0    0  0.34138810019E+02 -0.88144692505E+02 -0.20710270503E+03  0.25975754791E+03  0.12509000000E+03 0.  0.
<mgrwt>
<rscale>  2 0.44016389E+03</rscale>
<asrwt>0</asrwt>
<pdfrwt beam="1">  1       21 0.91225712E-02 0.44016389E+03</pdfrwt>
<pdfrwt beam="2">  1       21 0.11482428E+00 0.44016389E+03</pdfrwt>
<totfact> 0.51498722E+04</totfact>
</mgrwt>
</event>
<event>
 7    0  0.4709932E-002  0.4514017E+03  0.7546771E-02  0.1027305E+00
         21   -1    0    0  502  501  0.00000000000E+00  0.00000000000E+00  0.25824619701E+02  0.25824619701E+02  0.00000000000E+00 0.  1.
         21   -1    0    0  501  502 -0.00000000000E+00 -0.00000000000E+00 -0.19725702899E+04  0.19725702899E+04  0.00000000000E+00 0.  1.
      99926    2    1    2    0    0 -0.35527136788E-14  0.00000000000E+00 -0.19467456702E+04  0.19983949096E+04  0.45140171718E+03 0.  0.
      99925    2    3    3    0    0  0.28190911618E+02 -0.10599779152E+03 -0.11863614443E+04  0.12200235725E+04  0.26262860022E+03 0.  0.
         25    1    4    4    0    0  0.23178402955E+02 -0.11746370550E+02 -0.55247413422E+03  0.56705413557E+03  0.12509000000E+03 0.  0.
         25    1    4    4    0    0  0.50125086634E+01 -0.94251420975E+02 -0.63388731010E+03  0.65296943696E+03  0.12509000000E+03 0.  0.
         25    1    3    3    0    0 -0.28190911618E+02  0.10599779152E+03 -0.76038422587E+03  0.77837133706E+03  0.12509000000E+03 0.  0.
<mgrwt>
<rscale>  2 0.45140172E+03</rscale>
<asrwt>0</asrwt>
<pdfrwt beam="1">  1       21 0.37977382E-02 0.45140172E+03</pdfrwt>
<pdfrwt beam="2">  1       21 0.29008387E+00 0.45140172E+03</pdfrwt>
<totfact> 0.14126339E+04</totfact>
</mgrwt>
</event>
<event>
 7    0  0.4709932E-002  0.4255956E+03  0.7546771E-02  0.1035260E+00
         21   -1    0    0  502  501  0.00000000000E+00  0.00000000000E+00  0.16564335976E+03  0.16564335976E+03  0.00000000000E+00 0. -1.
         21   -1    0    0  501  502 -0.00000000000E+00 -0.00000000000E+00 -0.27337596058E+03  0.27337596058E+03  0.00000000000E+00 0. -1.
      99926    2    1    2    0    0  0.00000000000E+00  0.00000000000E+00 -0.10773260082E+03  0.43901932034E+03  0.42559564184E+03 0.  0.
      99925    2    3    3    0    0  0.73832814352E+02  0.34789461264E+02 -0.82359423079E+02  0.28751718393E+03  0.26309972519E+03 0.  0.
         25    1    4    4    0    0  0.32341459641E+02 -0.13445675868E+02 -0.11797762022E+02  0.13043562205E+03  0.12509000000E+03 0.  0.
         25    1    4    4    0    0  0.41491354711E+02  0.48235137132E+02 -0.70561661058E+02  0.15708156188E+03  0.12509000000E+03 0.  0.
         25    1    3    3    0    0 -0.73832814352E+02 -0.34789461264E+02 -0.25373177741E+02  0.15150213642E+03  0.12509000000E+03 0.  0.
<mgrwt>
<rscale>  2 0.42559564E+03</rscale>
<asrwt>0</asrwt>
<pdfrwt beam="1">  1       21 0.24359318E-01 0.42559564E+03</pdfrwt>
<pdfrwt beam="2">  1       21 0.40202347E-01 0.42559564E+03</pdfrwt>
<totfact> 0.88778978E+04</totfact>
</mgrwt>
</event>
<event>
 7    0  0.4709932E-002  0.4560080E+03  0.7546771E-02  0.1025945E+00
         21   -1    0    0  502  501  0.00000000000E+00  0.00000000000E+00  0.48092425341E+03  0.48092425341E+03  0.00000000000E+00 0.  1.
         21   -1    0    0  501  502 -0.00000000000E+00 -0.00000000000E+00 -0.10809565340E+03  0.10809565340E+03  0.00000000000E+00 0.  1.
      99926    2    1    2    0    0  0.14210854715E-13  0.00000000000E+00  0.37282860001E+03  0.58901990680E+03  0.45600798855E+03 0.  0.
      99925    2    3    3    0    0  0.92870034752E+02 -0.52975421678E+02  0.28601866823E+03  0.40296961518E+03  0.26295739869E+03 0.  0.
         25    1    4    4    0    0  0.83727914751E+02 -0.42701548642E+02  0.17928056557E+03  0.23795549008E+03  0.12509000000E+03 0.  0.
         25    1    4    4    0    0  0.91421200010E+01 -0.10273873036E+02  0.10673810266E+03  0.16501412511E+03  0.12509000000E+03 0.  0.
         25    1    3    3    0    0 -0.92870034752E+02  0.52975421678E+02  0.86809931782E+02  0.18605029162E+03  0.12509000000E+03 0.  0.
<mgrwt>
<rscale>  2 0.45600799E+03</rscale>
<asrwt>0</asrwt>
<pdfrwt beam="1">  1       21 0.70724154E-01 0.45600799E+03</pdfrwt>
<pdfrwt beam="2">  1       21 0.15896420E-01 0.45600799E+03</pdfrwt>
<totfact> 0.58888695E+04</totfact>
</mgrwt>
</event>
<event>
 7    0  0.4709932E-002  0.4679853E+03  0.7546771E-02  0.1022490E+00
         21   -1    0    0  502  501  0.00000000000E+00  0.00000000000E+00  0.51400098225E+03  0.51400098225E+03  0.00000000000E+00 0. -1.
         21   -1    0    0  501  502 -0.00000000000E+00 -0.00000000000E+00 -0.10652229353E+03  0.10652229353E+03  0.00000000000E+00 0. -1.
      99926    2    1    2    0    0  0.14210854715E-13  0.00000000000E+00  0.40747868872E+03  0.62052327578E+03  0.46798531390E+03 0.  0.
      99925    2    3    3    0    0  0.74337163158E+02  0.27784289974E+02  0.38142518668E+03  0.47010960066E+03  0.26309671796E+03 0.  0.
         25    1    4    4    0    0  0.31747099024E+02  0.92193749181E+00  0.12132203935E+03  0.17713066814E+03  0.12509000000E+03 0.  0.
         25    1    4    4    0    0  0.42590064134E+02  0.26862352482E+02  0.26010314734E+03  0.29297893252E+03  0.12509000000E+03 0.  0.
         25    1    3    3    0    0 -0.74337163158E+02 -0.27784289974E+02  0.26053502040E+02  0.15041367512E+03  0.12509000000E+03 0.  0.
<mgrwt>
<rscale>  2 0.46798531E+03</rscale>
<asrwt>0</asrwt>
<pdfrwt beam="1">  1       21 0.75588378E-01 0.46798531E+03</pdfrwt>
<pdfrwt beam="2">  1       21 0.15665043E-01 0.46798531E+03</pdfrwt>
<totfact> 0.51901836E+04</totfact>
</mgrwt>
</event>
<event>
 7    0  0.4709932E-002  0.4630374E+03  0.7546771E-02  0.1023904E+00
         21   -1    0    0  502  501  0.00000000000E+00  0.00000000000E+00  0.28009616102E+03  0.28009616102E+03  0.00000000000E+00 0.  1.
         21   -1    0    0  501  502 -0.00000000000E+00 -0.00000000000E+00 -0.19136610116E+03  0.19136610116E+03  0.00000000000E+00 0.  1.
      99926    2    1    2    0    0  0.00000000000E+00  0.00000000000E+00  0.88730059858E+02  0.47146226219E+03  0.46303740793E+03 0.  0.
      99925    2    3    3    0    0  0.41251690340E+02  0.11060700251E+03  0.30468120203E+02  0.28986498062E+03  0.26297868675E+03 0.  0.
         25    1    4    4    0    0 -0.54963179074E+00  0.77543904022E+02 -0.11338198395E+02  0.14761240459E+03  0.12509000000E+03 0.  0.
         25    1    4    4    0    0  0.41801322131E+02  0.33063098484E+02  0.41806318598E+02  0.14225257603E+03  0.12509000000E+03 0.  0.
         25    1    3    3    0    0 -0.41251690340E+02 -0.11060700251E+03  0.58261939655E+02  0.18159728156E+03  0.12509000000E+03 0.  0.
<mgrwt>
<rscale>  2 0.46303741E+03</rscale>
<asrwt>0</asrwt>
<pdfrwt beam="1">  1       21 0.41190612E-01 0.46303741E+03</pdfrwt>
<pdfrwt beam="2">  1       21 0.28142074E-01 0.46303741E+03</pdfrwt>
<totfact> 0.63197827E+04</totfact>
</mgrwt>
</event>
<event>
 7    0  0.4709932E-002  0.4353401E+03  0.7546771E-02  0.1032186E+00
         21   -1    0    0  502  501  0.00000000000E+00  0.00000000000E+00  0.15701395684E+03  0.15701395684E+03  0.00000000000E+00 0. -1.
         21   -1    0    0  501  502 -0.00000000000E+00 -0.00000000000E+00 -0.30175826061E+03  0.30175826061E+03  0.00000000000E+00 0. -1.
      99926    2    1    2    0    0  0.00000000000E+00  0.00000000000E+00 -0.14474430376E+03  0.45877221745E+03  0.43534013602E+03 0.  0.
      99925    2    3    3    0    0  0.74690226665E+02  0.48711107677E+02 -0.12222339786E+03  0.30351082085E+03  0.26311377277E+03 0.  0.
         25    1    3    3    0    0 -0.74690226665E+02 -0.48711107677E+02 -0.22520905904E+02  0.15526139660E+03  0.12509000000E+03 0.  0.
         25    1    4    4    0    0  0.17317240062E+02  0.59282836397E+02 -0.68279150505E+02  0.15531867881E+03  0.12509000000E+03 0.  0.
         25    1    4    4    0    0  0.57372986603E+02 -0.10571728720E+02 -0.53944247355E+02  0.14819214204E+03  0.12509000000E+03 0.  0.
<mgrwt>
<rscale>  2 0.43534014E+03</rscale>
<asrwt>0</asrwt>
<pdfrwt beam="1">  1       21 0.23090288E-01 0.43534014E+03</pdfrwt>
<pdfrwt beam="2">  1       21 0.44376215E-01 0.43534014E+03</pdfrwt>
<totfact> 0.80057819E+04</totfact>
</mgrwt>
</event>
<event>
 7    0  0.4709932E-002  0.4345944E+03  0.7546771E-02  0.1032418E+00
         21   -1    0    0  502  501  0.00000000000E+00  0.00000000000E+00  0.20152064465E+03  0.20152064465E+03  0.00000000000E+00 0. -1.
         21   -1    0    0  501  502 -0.00000000000E+00 -0.00000000000E+00 -0.23430890489E+03  0.23430890489E+03  0.00000000000E+00 0. -1.
      99926    2    1    2    0    0  0.00000000000E+00  0.35527136788E-14 -0.32788260234E+02  0.43582954954E+03  0.43459443881E+03 0.  0.
      99925    2    3    3    0    0  0.79877220651E+02 -0.24552252477E+02 -0.61520446783E+02  0.28267528050E+03  0.26293985121E+03 0.  0.
         25    1    4    4    0    0  0.12777914489E+02  0.12573346442E+02 -0.48568277374E+02  0.13538001997E+03  0.12509000000E+03 0.  0.
         25    1    4    4    0    0  0.67099306162E+02 -0.37125598919E+02 -0.12952169410E+02  0.14729526053E+03  0.12509000000E+03 0.  0.
         25    1    3    3    0    0 -0.79877220651E+02  0.24552252477E+02  0.28732186549E+02  0.15315426904E+03  0.12509000000E+03 0.  0.
<mgrwt>
<rscale>  2 0.43459444E+03</rscale>
<asrwt>0</asrwt>
<pdfrwt beam="1">  1       21 0.29635389E-01 0.43459444E+03</pdfrwt>
<pdfrwt beam="2">  1       21 0.34457192E-01 0.43459444E+03</pdfrwt>
<totfact> 0.82629131E+04</totfact>
</mgrwt>
</event>
<event>
 7    0  0.4709932E-002  0.4570811E+03  0.7546771E-02  0.1025631E+00
         21   -1    0    0  502  501  0.00000000000E+00  0.00000000000E+00  0.11368601837E+03  0.11368601837E+03  0.00000000000E+00 0.  1.
         21   -1    0    0  501  502 -0.00000000000E+00 -0.00000000000E+00 -0.45943013292E+03  0.45943013292E+03  0.00000000000E+00 0.  1.
      99926    2    1    2    0    0  0.00000000000E+00  0.44408920985E-15 -0.34574411454E+03  0.57311615129E+03  0.45708109797E+03 0.  0.
      99925    2    3    3    0    0  0.83191965605E+02  0.59012769807E+00 -0.31686241972E+03  0.42013604870E+03  0.26304230647E+03 0.  0.
         25    1    3    3    0    0 -0.83191965605E+02 -0.59012769807E+00 -0.28881694827E+02  0.15298010259E+03  0.12509000000E+03 0.  0.
         25    1    4    4    0    0  0.52256887014E+02 -0.61923454998E+01 -0.22118238085E+03  0.25949620629E+03  0.12509000000E+03 0.  0.
         25    1    4    4    0    0  0.30935078591E+02  0.67824731978E+01 -0.95680038870E+02  0.16063984241E+03  0.12509000000E+03 0.  0.
<mgrwt>
<rscale>  2 0.45708110E+03</rscale>
<asrwt>0</asrwt>
<pdfrwt beam="1">  1       21 0.16718532E-01 0.45708110E+03</pdfrwt>
<pdfrwt beam="2">  1       21 0.67563253E-01 0.45708110E+03</pdfrwt>
<totfact> 0.59381118E+04</totfact>
</mgrwt>
</event>
<event>
 7    0  0.4709932E-002  0.4526384E+03  0.7546771E-02  0.1026938E+00
         21   -1    0    0  502  501  0.00000000000E+00  0.00000000000E+00  0.25046592748E+03  0.25046592748E+03  0.00000000000E+00 0.  1.
         21   -1    0    0  501  502 -0.00000000000E+00 -0.00000000000E+00 -0.20450043495E+03  0.20450043495E+03  0.00000000000E+00 0.  1.
      99926    2    1    2    0    0  0.00000000000E+00  0.00000000000E+00  0.45965492529E+02  0.45496636243E+03  0.45263844781E+03 0.  0.
      99925    2    3    3    0    0 -0.35617673744E+02  0.88269760702E+02 -0.28540927097E+02  0.28101555328E+03  0.26285925384E+03 0.  0.
         25    1    3    3    0    0  0.35617673744E+02 -0.88269760702E+02  0.74506419626E+02  0.17395080915E+03  0.12509000000E+03 0.  0.
         25    1    4    4    0    0  0.18686658689E+02  0.28653007561E+02 -0.11674077248E+01  0.12968830709E+03  0.12509000000E+03 0.  0.
         25    1    4    4    0    0 -0.54304332433E+02  0.59616753140E+02 -0.27373519372E+02  0.15132724619E+03  0.12509000000E+03 0.  0.
<mgrwt>
<rscale>  2 0.45263845E+03</rscale>
<asrwt>0</asrwt>
<pdfrwt beam="1">  1       21 0.36833225E-01 0.45263845E+03</pdfrwt>
<pdfrwt beam="2">  1       21 0.30073593E-01 0.45263845E+03</pdfrwt>
<totfact> 0.69855187E+04</totfact>
</mgrwt>
</event>
<event>
 7    0  0.4709932E-002  0.4576270E+03  0.7546771E-02  0.1025472E+00
         21   -1    0    0  502  501  0.00000000000E+00  0.00000000000E+00  0.15488450229E+03  0.15488450229E+03  0.00000000000E+00 0. -1.
         21   -1    0    0  501  502 -0.00000000000E+00 -0.00000000000E+00 -0.33803002572E+03  0.33803002572E+03  0.00000000000E+00 0. -1.
      99926    2    1    2    0    0  0.14210854715E-13  0.00000000000E+00 -0.18314552343E+03  0.49291452801E+03  0.45762697601E+03 0.  0.
      99925    2    3    3    0    0 -0.11382489473E+03 -0.20114180595E+02 -0.11289649705E+03  0.30867793900E+03  0.26301285912E+03 0.  0.
         25    1    3    3    0    0  0.11382489473E+03  0.20114180595E+02 -0.70249026385E+02  0.18423658901E+03  0.12509000000E+03 0.  0.
         25    1    4    4    0    0 -0.34468895227E+02 -0.35523351518E+02 -0.28577712044E+02  0.13752893138E+03  0.12509000000E+03 0.  0.
         25    1    4    4    0    0 -0.79355999500E+02  0.15409170923E+02 -0.84318785005E+02  0.17114900762E+03  0.12509000000E+03 0.  0.
<mgrwt>
<rscale>  2 0.45762698E+03</rscale>
<asrwt>0</asrwt>
<pdfrwt beam="1">  1       21 0.22777132E-01 0.45762698E+03</pdfrwt>
<pdfrwt beam="2">  1       21 0.49710298E-01 0.45762698E+03</pdfrwt>
<totfact> 0.64417431E+04</totfact>
</mgrwt>
</event>
<event>
 7    0  0.4709932E-002  0.4173071E+03  0.7546771E-02  0.1037946E+00
         21   -1    0    0  502  501  0.00000000000E+00  0.00000000000E+00  0.89224974367E+03  0.89224974367E+03  0.00000000000E+00 0.  1.
         21   -1    0    0  501  502 -0.00000000000E+00 -0.00000000000E+00 -0.48793854202E+02  0.48793854202E+02  0.00000000000E+00 0.  1.
      99926    2    1    2    0    0 -0.35527136788E-14 -0.71054273576E-14  0.84345588947E+03  0.94104359787E+03  0.41730709989E+03 0.  0.
      99925    2    3    3    0    0  0.17670310822E+02  0.53381528354E+02  0.65406821607E+03  0.70721240579E+03  0.26302533753E+03 0.  0.
         25    1    4    4    0    0  0.35422417063E+02  0.56398814721E+02  0.37406454568E+03  0.40000920785E+03  0.12509000000E+03 0.  0.
         25    1    4    4    0    0 -0.17752106242E+02 -0.30172863667E+01  0.28000367039E+03  0.30720319794E+03  0.12509000000E+03 0.  0.
         25    1    3    3    0    0 -0.17670310822E+02 -0.53381528354E+02  0.18938767340E+03  0.23383119208E+03  0.12509000000E+03 0.  0.
<mgrwt>
<rscale>  2 0.41730710E+03</rscale>
<asrwt>0</asrwt>
<pdfrwt beam="1">  1       21 0.13121319E+00 0.41730710E+03</pdfrwt>
<pdfrwt beam="2">  1       21 0.71755673E-02 0.41730710E+03</pdfrwt>
<totfact> 0.56379249E+04</totfact>
</mgrwt>
</event>
<event>
 7    0  0.4709932E-002  0.4616265E+03  0.7546771E-02  0.1024311E+00
         21   -1    0    0  502  501  0.00000000000E+00  0.00000000000E+00  0.51672019697E+02  0.51672019697E+02  0.00000000000E+00 0. -1.
         21   -1    0    0  501  502 -0.00000000000E+00 -0.00000000000E+00 -0.10310174955E+04  0.10310174955E+04  0.00000000000E+00 0. -1.
      99926    2    1    2    0    0  0.00000000000E+00  0.00000000000E+00 -0.97934547578E+03  0.10826895152E+04  0.46162649982E+03 0.  0.
      99925    2    3    3    0    0 -0.35365719980E+02 -0.96594724869E+02 -0.46619743891E+03  0.54459129843E+03  0.26202739409E+03 0.  0.
         25    1    4    4    0    0 -0.20128780649E+02 -0.84898454595E+02 -0.21889216596E+03  0.26678493927E+03  0.12509000000E+03 0.  0.
         25    1    4    4    0    0 -0.15236939332E+02 -0.11696270274E+02 -0.24730527295E+03  0.27780635916E+03  0.12509000000E+03 0.  0.
         25    1    3    3    0    0  0.35365719980E+02  0.96594724869E+02 -0.51314803687E+03  0.53809821675E+03  0.12509000000E+03 0.  0.
<mgrwt>
<rscale>  2 0.46162650E+03</rscale>
<asrwt>0</asrwt>
<pdfrwt beam="1">  1       21 0.75988276E-02 0.46162650E+03</pdfrwt>
<pdfrwt beam="2">  1       21 0.15162020E+00 0.46162650E+03</pdfrwt>
<totfact> 0.34292614E+04</totfact>
</mgrwt>
</event>
<event>
 7    0  0.4709932E-002  0.4583779E+03  0.7546771E-02  0.1025253E+00
         21   -1    0    0  502  501  0.00000000000E+00  0.00000000000E+00  0.32011219430E+03  0.32011219430E+03  0.00000000000E+00 0. -1.
         21   -1    0    0  501  502 -0.00000000000E+00 -0.00000000000E+00 -0.16409116028E+03  0.16409116028E+03  0.00000000000E+00 0. -1.
      99926    2    1    2    0    0  0.00000000000E+00  0.00000000000E+00  0.15602103402E+03  0.48420335459E+03  0.45837792872E+03 0.  0.
      99925    2    3    3    0    0 -0.64578115976E+02  0.38388211158E+02  0.19097538378E+03  0.33415901952E+03  0.26371701746E+03 0.  0.
         25    1    4    4    0    0 -0.25072369775E+02 -0.62585676085E+01  0.52017059444E+02  0.13791691690E+03  0.12509000000E+03 0.  0.
         25    1    3    3    0    0  0.64578115976E+02 -0.38388211158E+02 -0.34954349761E+02  0.15004433507E+03  0.12509000000E+03 0.  0.
         25    1    4    4    0    0 -0.39505746201E+02  0.44646778767E+02  0.13895832434E+03  0.19624210262E+03  0.12509000000E+03 0.  0.
<mgrwt>
<rscale>  2 0.45837793E+03</rscale>
<asrwt>0</asrwt>
<pdfrwt beam="1">  1       21 0.47075323E-01 0.45837793E+03</pdfrwt>
<pdfrwt beam="2">  1       21 0.24131053E-01 0.45837793E+03</pdfrwt>
<totfact> 0.64644549E+04</totfact>
</mgrwt>
</event>
<event>
 7    0  0.4709932E-002  0.4518605E+03  0.7546771E-02  0.1027169E+00
         21   -1    0    0  502  501  0.00000000000E+00  0.00000000000E+00  0.73005724097E+03  0.73005724097E+03  0.00000000000E+00 0.  1.
         21   -1    0    0  501  502 -0.00000000000E+00 -0.00000000000E+00 -0.69918448118E+02  0.69918448118E+02  0.00000000000E+00 0.  1.
      99926    2    1    2    0    0  0.00000000000E+00  0.00000000000E+00  0.66013879285E+03  0.79997568908E+03  0.45186046220E+03 0.  0.
      99925    2    3    3    0    0  0.97758591024E+02  0.32034282682E+02  0.48675893143E+03  0.56271839871E+03  0.26293497589E+03 0.  0.
         25    1    4    4    0    0  0.41274255524E+02  0.75453148387E+01  0.15949289900E+03  0.20699272663E+03  0.12509000000E+03 0.  0.
         25    1    4    4    0    0  0.56484335500E+02  0.24488967843E+02  0.32726603243E+03  0.35572567209E+03  0.12509000000E+03 0.  0.
         25    1    3    3    0    0 -0.97758591024E+02 -0.32034282682E+02  0.17337986142E+03  0.23725729037E+03  0.12509000000E+03 0.  0.
<mgrwt>
<rscale>  2 0.45186046E+03</rscale>
<asrwt>0</asrwt>
<pdfrwt beam="1">  1       21 0.10736135E+00 0.45186046E+03</pdfrwt>
<pdfrwt beam="2">  1       21 0.10282125E-01 0.45186046E+03</pdfrwt>
<totfact> 0.48961218E+04</totfact>
</mgrwt>
</event>
<event>
 7    0  0.4709932E-002  0.4576804E+03  0.7546771E-02  0.1025456E+00
         21   -1    0    0  502  501  0.00000000000E+00  0.00000000000E+00  0.10520059071E+03  0.10520059071E+03  0.00000000000E+00 0.  1.
         21   -1    0    0  501  502 -0.00000000000E+00 -0.00000000000E+00 -0.49779033440E+03  0.49779033440E+03  0.00000000000E+00 0.  1.
      99926    2    1    2    0    0  0.00000000000E+00  0.22204460493E-15 -0.39258974369E+03  0.60299092510E+03  0.45768040039E+03 0.  0.
      99925    2    3    3    0    0 -0.92492953334E+02 -0.10434390498E+01 -0.33797333492E+03  0.43810764703E+03  0.26297585456E+03 0.  0.
         25    1    4    4    0    0 -0.56737986281E+01 -0.38955435041E+01 -0.17286365590E+03  0.21348704617E+03  0.12509000000E+03 0.  0.
         25    1    3    3    0    0  0.92492953334E+02  0.10434390498E+01 -0.54616408767E+02  0.16488327807E+03  0.12509000000E+03 0.  0.
         25    1    4    4    0    0 -0.86819154706E+02  0.28521044543E+01 -0.16510967902E+03  0.22462060086E+03  0.12509000000E+03 0.  0.
<mgrwt>
<rscale>  2 0.45768040E+03</rscale>
<asrwt>0</asrwt>
<pdfrwt beam="1">  1       21 0.15470675E-01 0.45768040E+03</pdfrwt>
<pdfrwt beam="2">  1       21 0.73204461E-01 0.45768040E+03</pdfrwt>
<totfact> 0.57272027E+04</totfact>
</mgrwt>
</event>
<event>
 7    0  0.4709932E-002  0.4543241E+03  0.7546771E-02  0.1026440E+00
         21   -1    0    0  502  501  0.00000000000E+00  0.00000000000E+00  0.40171138035E+03  0.40171138035E+03  0.00000000000E+00 0. -1.
         21   -1    0    0  501  502 -0.00000000000E+00 -0.00000000000E+00 -0.12845692228E+03  0.12845692228E+03  0.00000000000E+00 0. -1.
      99926    2    1    2    0    0  0.00000000000E+00  0.00000000000E+00  0.27325445807E+03  0.53016830263E+03  0.45432414669E+03 0.  0.
      99925    2    3    3    0    0 -0.24740203989E+02  0.96710693773E+02  0.11147041496E+03  0.30260156366E+03  0.26301524087E+03 0.  0.
         25    1    3    3    0    0  0.24740203989E+02 -0.96710693773E+02  0.16178404311E+03  0.22756673898E+03  0.12509000000E+03 0.  0.
         25    1    4    4    0    0 -0.75861965138E+01  0.65513074748E+02  0.97565728116E+02  0.17180248177E+03  0.12509000000E+03 0.  0.
         25    1    4    4    0    0 -0.17154007476E+02  0.31197619025E+02  0.13904686843E+02  0.13079908188E+03  0.12509000000E+03 0.  0.
<mgrwt>
<rscale>  2 0.45432415E+03</rscale>
<asrwt>0</asrwt>
<pdfrwt beam="1">  1       21 0.59075203E-01 0.45432415E+03</pdfrwt>
<pdfrwt beam="2">  1       21 0.18890724E-01 0.45432415E+03</pdfrwt>
<totfact> 0.63534788E+04</totfact>
</mgrwt>
</event>
<event>
 7    0  0.4709932E-002  0.4579157E+03  0.7546771E-02  0.1025387E+00
         21   -1    0    0  502  501  0.00000000000E+00  0.00000000000E+00  0.66780992493E+02  0.66780992493E+02  0.00000000000E+00 0. -1.
         21   -1    0    0  501  502 -0.00000000000E+00 -0.00000000000E+00 -0.78497927844E+03  0.78497927844E+03  0.00000000000E+00 0. -1.
      99926    2    1    2    0    0  0.00000000000E+00  0.17763568394E-14 -0.71819828594E+03  0.85176027093E+03  0.45791569224E+03 0.  0.
      99925    2    3    3    0    0 -0.11494177157E+03  0.11604418518E+02 -0.46792066046E+03  0.54905138223E+03  0.26298555562E+03 0.  0.
         25    1    3    3    0    0  0.11494177157E+03 -0.11604418518E+02 -0.25027762548E+03  0.30270888870E+03  0.12509000000E+03 0.  0.
         25    1    4    4    0    0 -0.96479712886E+02  0.12434312810E+02 -0.29451004864E+03  0.33443478285E+03  0.12509000000E+03 0.  0.
         25    1    4    4    0    0 -0.18462058681E+02 -0.82989429160E+00 -0.17341061183E+03  0.21461659938E+03  0.12509000000E+03 0.  0.
<mgrwt>
<rscale>  2 0.45791569E+03</rscale>
<asrwt>0</asrwt>
<pdfrwt beam="1">  1       21 0.98207349E-02 0.45791569E+03</pdfrwt>
<pdfrwt beam="2">  1       21 0.11543812E+00 0.45791569E+03</pdfrwt>
<totfact> 0.44337908E+04</totfact>
</mgrwt>
</event>
<event>
 7    0  0.4709932E-002  0.4438840E+03  0.7546771E-02  0.1029562E+00
         21   -1    0    0  502  501  0.00000000000E+00  0.00000000000E+00  0.65917426544E+03  0.65917426544E+03  0.00000000000E+00 0.  1.
         21   -1    0    0  501  502 -0.00000000000E+00 -0.00000000000E+00 -0.74727205141E+02  0.74727205141E+02  0.00000000000E+00 0.  1.
      99926    2    1    2    0    0  0.00000000000E+00  0.00000000000E+00  0.58444706030E+03  0.73390147058E+03  0.44388399636E+03 0.  0.
      99925    2    3    3    0    0 -0.19933917123E+02  0.95069175794E+02  0.31855267246E+03  0.42441343718E+03  0.26308829560E+03 0.  0.
         25    1    4    4    0    0 -0.32597372875E+02  0.16311449153E+02  0.12515772851E+03  0.18066714477E+03  0.12509000000E+03 0.  0.
         25    1    4    4    0    0  0.12663455752E+02  0.78757726642E+02  0.19339494395E+03  0.24374629241E+03  0.12509000000E+03 0.  0.
         25    1    3    3    0    0  0.19933917123E+02 -0.95069175794E+02  0.26589438784E+03  0.30948803340E+03  0.12509000000E+03 0.  0.
<mgrwt>
<rscale>  2 0.44388400E+03</rscale>
<asrwt>0</asrwt>
<pdfrwt beam="1">  1       21 0.96937389E-01 0.44388400E+03</pdfrwt>
<pdfrwt beam="2">  1       21 0.10989295E-01 0.44388400E+03</pdfrwt>
<totfact> 0.55821946E+04</totfact>
</mgrwt>
</event>
<event>
 7    0  0.4709932E-002  0.4598314E+03  0.7546771E-02  0.1024830E+00
         21   -1    0    0  502  501  0.00000000000E+00  0.00000000000E+00  0.38211634738E+03  0.38211634738E+03  0.00000000000E+00 0. -1.
         21   -1    0    0  501  502 -0.00000000000E+00 -0.00000000000E+00 -0.13833806150E+03  0.13833806150E+03  0.00000000000E+00 0. -1.
      99926    2    1    2    0    0 -0.14210854715E-13  0.00000000000E+00  0.24377828588E+03  0.52045440888E+03  0.45983142461E+03 0.  0.
      99925    2    3    3    0    0  0.72518454482E+02  0.19319703447E+02  0.25538985595E+03  0.37411742161E+03  0.26288341418E+03 0.  0.
         25    1    4    4    0    0  0.96003994014E+01  0.40750328065E+01  0.78691018661E+02  0.14815045757E+03  0.12509000000E+03 0.  0.
         25    1    3    3    0    0 -0.72518454482E+02 -0.19319703447E+02 -0.11611570076E+02  0.14633698726E+03  0.12509000000E+03 0.  0.
         25    1    4    4    0    0  0.62918055080E+02  0.15244670640E+02  0.17669883729E+03  0.22596696404E+03  0.12509000000E+03 0.  0.
<mgrwt>
<rscale>  2 0.45983142E+03</rscale>
<asrwt>0</asrwt>
<pdfrwt beam="1">  1       21 0.56193580E-01 0.45983142E+03</pdfrwt>
<pdfrwt beam="2">  1       21 0.20343833E-01 0.45983142E+03</pdfrwt>
<totfact> 0.61466036E+04</totfact>
</mgrwt>
</event>
<event>
 7    0  0.4709932E-002  0.4494769E+03  0.7546771E-02  0.1027878E+00
         21   -1    0    0  502  501  0.00000000000E+00  0.00000000000E+00  0.10042230819E+03  0.10042230819E+03  0.00000000000E+00 0. -1.
         21   -1    0    0  501  502 -0.00000000000E+00 -0.00000000000E+00 -0.50294975035E+03  0.50294975035E+03  0.00000000000E+00 0. -1.
      99926    2    1    2    0    0  0.00000000000E+00  0.00000000000E+00 -0.40252744216E+03  0.60337205853E+03  0.44947691746E+03 0.  0.
      99925    2    3    3    0    0 -0.41165123277E+02 -0.98811423076E+02 -0.27304284825E+03  0.39391554070E+03  0.26298059152E+03 0.  0.
         25    1    3    3    0    0  0.41165123277E+02  0.98811423076E+02 -0.12948459391E+03  0.20945651784E+03  0.12509000000E+03 0.  0.
         25    1    4    4    0    0 -0.31813708166E+02 -0.18168251214E+02 -0.92929762411E+02  0.16008012438E+03  0.12509000000E+03 0.  0.
         25    1    4    4    0    0 -0.93514151104E+01 -0.80643171862E+02 -0.18011308584E+03  0.23383541632E+03  0.12509000000E+03 0.  0.
<mgrwt>
<rscale>  2 0.44947692E+03</rscale>
<asrwt>0</asrwt>
<pdfrwt beam="1">  1       21 0.14767987E-01 0.44947692E+03</pdfrwt>
<pdfrwt beam="2">  1       21 0.73963198E-01 0.44947692E+03</pdfrwt>
<totfact> 0.61093612E+04</totfact>
</mgrwt>
</event>
<event>
 7    0  0.4709932E-002  0.4504157E+03  0.7546771E-02  0.1027598E+00
         21   -1    0    0  502  501  0.00000000000E+00  0.00000000000E+00  0.19255598897E+03  0.19255598897E+03  0.00000000000E+00 0. -1.
         21   -1    0    0  501  502 -0.00000000000E+00 -0.00000000000E+00 -0.26339656708E+03  0.26339656708E+03  0.00000000000E+00 0. -1.
      99926    2    1    2    0    0  0.00000000000E+00  0.00000000000E+00 -0.70840578116E+02  0.45595255605E+03  0.45041574780E+03 0.  0.
      99925    2    3    3    0    0 -0.79803881564E+02 -0.68191520462E+02 -0.11298265345E+02  0.28213789014E+03  0.26163981975E+03 0.  0.
         25    1    4    4    0    0 -0.54700773551E+02  0.32524792380E+00  0.34481010975E+01  0.13657114598E+03  0.12509000000E+03 0.  0.
         25    1    4    4    0    0 -0.25103108013E+02 -0.68516768386E+02 -0.14746366443E+02  0.14556674416E+03  0.12509000000E+03 0.  0.
         25    1    3    3    0    0  0.79803881564E+02  0.68191520462E+02 -0.59542312771E+02  0.17381466591E+03  0.12509000000E+03 0.  0.
<mgrwt>
<rscale>  2 0.45041575E+03</rscale>
<asrwt>0</asrwt>
<pdfrwt beam="1">  1       21 0.28317057E-01 0.45041575E+03</pdfrwt>
<pdfrwt beam="2">  1       21 0.38734789E-01 0.45041575E+03</pdfrwt>
<totfact> 0.71038190E+04</totfact>
</mgrwt>
</event>
<event>
 7    0  0.4709932E-002  0.4572762E+03  0.7546771E-02  0.1025574E+00
         21   -1    0    0  502  501  0.00000000000E+00  0.00000000000E+00  0.64636352254E+03  0.64636352254E+03  0.00000000000E+00 0. -1.
         21   -1    0    0  501  502 -0.00000000000E+00 -0.00000000000E+00 -0.80876118696E+02  0.80876118696E+02  0.00000000000E+00 0. -1.
      99926    2    1    2    0    0  0.00000000000E+00 -0.71054273576E-14  0.56548740384E+03  0.72723964123E+03  0.45727616588E+03 0.  0.
      99925    2    3    3    0    0  0.10736352156E+03  0.40135932603E+02  0.33534174340E+03  0.44131595916E+03  0.26299785569E+03 0.  0.
         25    1    3    3    0    0 -0.10736352156E+03 -0.40135932603E+02  0.23014566044E+03  0.28592368207E+03  0.12509000000E+03 0.  0.
         25    1    4    4    0    0  0.62125743333E+02  0.59433796694E+02  0.16252627891E+03  0.22238319094E+03  0.12509000000E+03 0.  0.
         25    1    4    4    0    0  0.45237778229E+02 -0.19297864090E+02  0.17281546448E+03  0.21893276822E+03  0.12509000000E+03 0.  0.
<mgrwt>
<rscale>  2 0.45727617E+03</rscale>
<asrwt>0</asrwt>
<pdfrwt beam="1">  1       21 0.95053456E-01 0.45727617E+03</pdfrwt>
<pdfrwt beam="2">  1       21 0.11893547E-01 0.45727617E+03</pdfrwt>
<totfact> 0.50538163E+04</totfact>
</mgrwt>
</event>
<event>
 7    0  0.4709932E-002  0.4509637E+03  0.7546771E-02  0.1027435E+00
         21   -1    0    0  502  501  0.00000000000E+00  0.00000000000E+00  0.57676329058E+03  0.57676329058E+03  0.00000000000E+00 0. -1.
         21   -1    0    0  501  502 -0.00000000000E+00 -0.00000000000E+00 -0.88150645068E+02  0.88150645068E+02  0.00000000000E+00 0. -1.
      99926    2    1    2    0    0  0.71054273576E-14  0.00000000000E+00  0.48861264551E+03  0.66491393564E+03  0.45096366202E+03 0.  0.
      99925    2    3    3    0    0 -0.25244120858E+02  0.10293759182E+03  0.26882550359E+03  0.39071089172E+03  0.26297231048E+03 0.  0.
         25    1    4    4    0    0  0.79144865258E+01  0.87072874047E+02  0.15685861071E+03  0.21885259044E+03  0.12509000000E+03 0.  0.
         25    1    3    3    0    0  0.25244120858E+02 -0.10293759182E+03  0.21978714192E+03  0.27420304393E+03  0.12509000000E+03 0.  0.
         25    1    4    4    0    0 -0.33158607384E+02  0.15864717770E+02  0.11196689289E+03  0.17185830127E+03  0.12509000000E+03 0.  0.
<mgrwt>
<rscale>  2 0.45096366E+03</rscale>
<asrwt>0</asrwt>
<pdfrwt beam="1">  1       21 0.84818129E-01 0.45096366E+03</pdfrwt>
<pdfrwt beam="2">  1       21 0.12963330E-01 0.45096366E+03</pdfrwt>
<totfact> 0.56630141E+04</totfact>
</mgrwt>
</event>
<event>
 7    0  0.4709932E-002  0.4267813E+03  0.7546771E-02  0.1034882E+00
         21   -1    0    0  502  501  0.00000000000E+00  0.00000000000E+00  0.30152547446E+03  0.30152547446E+03  0.00000000000E+00 0.  1.
         21   -1    0    0  501  502 -0.00000000000E+00 -0.00000000000E+00 -0.15101734724E+03  0.15101734724E+03  0.00000000000E+00 0.  1.
      99926    2    1    2    0    0 -0.17763568394E-14  0.71054273576E-14  0.15050812722E+03  0.45254282171E+03  0.42678133642E+03 0.  0.
      99925    2    3    3    0    0  0.10564663611E+02 -0.33431102168E+02  0.17794307026E+03  0.31976693945E+03  0.26335889695E+03 0.  0.
         25    1    3    3    0    0 -0.10564663611E+02  0.33431102168E+02 -0.27434943044E+02  0.13277588226E+03  0.12509000000E+03 0.  0.
         25    1    4    4    0    0  0.39199203962E+02 -0.13939579063E+02  0.11747708370E+03  0.17657650679E+03  0.12509000000E+03 0.  0.
         25    1    4    4    0    0 -0.28634540351E+02 -0.19491523105E+02  0.60465986559E+02  0.14319043266E+03  0.12509000000E+03 0.  0.
<mgrwt>
<rscale>  2 0.42678134E+03</rscale>
<asrwt>0</asrwt>
<pdfrwt beam="1">  1       21 0.44341982E-01 0.42678134E+03</pdfrwt>
<pdfrwt beam="2">  1       21 0.22208433E-01 0.42678134E+03</pdfrwt>
<totfact> 0.86576630E+04</totfact>
</mgrwt>
</event>
<event>
 7    0  0.4709932E-002  0.4527034E+03  0.7546771E-02  0.1026919E+00
         21   -1    0    0  502  501  0.00000000000E+00  0.00000000000E+00  0.38810663533E+02  0.38810663533E+02  0.00000000000E+00 0.  1.
         21   -1    0    0  501  502 -0.00000000000E+00 -0.00000000000E+00 -0.13201290324E+04  0.13201290324E+04  0.00000000000E+00 0.  1.
      99926    2    1    2    0    0 -0.35527136788E-14 -0.14210854715E-13 -0.12813183688E+04  0.13589396959E+04  0.45270336290E+03 0.  0.
      99925    2    3    3    0    0  0.26928897281E+02  0.93040087129E+02 -0.97713207301E+03  0.10160717417E+04  0.26121461089E+03 0.  0.
         25    1    4    4    0    0 -0.78096106279E+01  0.22036609895E+02 -0.37416039208E+03  0.39520894384E+03  0.12509000000E+03 0.  0.
         25    1    4    4    0    0  0.34738507909E+02  0.71003477235E+02 -0.60297168093E+03  0.62086279790E+03  0.12509000000E+03 0.  0.
         25    1    3    3    0    0 -0.26928897281E+02 -0.93040087129E+02 -0.30418629584E+03  0.34286795418E+03  0.12509000000E+03 0.  0.
<mgrwt>
<rscale>  2 0.45270336E+03</rscale>
<asrwt>0</asrwt>
<pdfrwt beam="1">  1       21 0.57074516E-02 0.45270336E+03</pdfrwt>
<pdfrwt beam="2">  1       21 0.19413658E+00 0.45270336E+03</pdfrwt>
<totfact> 0.27942538E+04</totfact>
</mgrwt>
</event>
<event>
 7    0  0.4709932E-002  0.4548131E+03  0.7546771E-02  0.1026296E+00
         21   -1    0    0  502  501  0.00000000000E+00  0.00000000000E+00  0.42986646818E+03  0.42986646818E+03  0.00000000000E+00 0.  1.
         21   -1    0    0  501  502 -0.00000000000E+00 -0.00000000000E+00 -0.12030187691E+03  0.12030187691E+03  0.00000000000E+00 0.  1.
      99926    2    1    2    0    0  0.00000000000E+00  0.00000000000E+00  0.30956459127E+03  0.55016834510E+03  0.45481311742E+03 0.  0.
      99925    2    3    3    0    0 -0.42687997583E+02  0.10199118126E+03  0.16708563317E+03  0.33068661967E+03  0.26308091042E+03 0.  0.
         25    1    4    4    0    0 -0.24131609659E+02  0.76750181625E+02  0.51149187543E+02  0.15727896379E+03  0.12509000000E+03 0.  0.
         25    1    4    4    0    0 -0.18556387924E+02  0.25240999639E+02  0.11593644562E+03  0.17340765588E+03  0.12509000000E+03 0.  0.
         25    1    3    3    0    0  0.42687997583E+02 -0.10199118126E+03  0.14247895810E+03  0.21948172542E+03  0.12509000000E+03 0.  0.
<mgrwt>
<rscale>  2 0.45481312E+03</rscale>
<asrwt>0</asrwt>
<pdfrwt beam="1">  1       21 0.63215656E-01 0.45481312E+03</pdfrwt>
<pdfrwt beam="2">  1       21 0.17691453E-01 0.45481312E+03</pdfrwt>
<totfact> 0.61946932E+04</totfact>
</mgrwt>
</event>
<event>
 7    0  0.4709932E-002  0.4582063E+03  0.7546771E-02  0.1025303E+00
         21   -1    0    0  502  501  0.00000000000E+00  0.00000000000E+00  0.42913781679E+03  0.42913781679E+03  0.00000000000E+00 0.  1.
         21   -1    0    0  501  502 -0.00000000000E+00 -0.00000000000E+00 -0.12231092204E+03  0.12231092204E+03  0.00000000000E+00 0.  1.
      99926    2    1    2    0    0  0.00000000000E+00  0.00000000000E+00  0.30682689475E+03  0.55144873883E+03  0.45820625073E+03 0.  0.
      99925    2    3    3    0    0 -0.54052667865E+02 -0.10092040126E+03  0.21652275196E+03  0.35933167920E+03  0.26292686296E+03 0.  0.
         25    1    4    4    0    0  0.47892215114E+01 -0.75563585283E+02  0.11150193235E+03  0.18388306361E+03  0.12509000000E+03 0.  0.
         25    1    3    3    0    0  0.54052667865E+02  0.10092040126E+03  0.90304142794E+02  0.19211705963E+03  0.12509000000E+03 0.  0.
         25    1    4    4    0    0 -0.58841889377E+02 -0.25356815982E+02  0.10502081960E+03  0.17544861559E+03  0.12509000000E+03 0.  0.
<mgrwt>
<rscale>  2 0.45820625E+03</rscale>
<asrwt>0</asrwt>
<pdfrwt beam="1">  1       21 0.63108502E-01 0.45820625E+03</pdfrwt>
<pdfrwt beam="2">  1       21 0.17986900E-01 0.45820625E+03</pdfrwt>
<totfact> 0.60228474E+04</totfact>
</mgrwt>
</event>
<event>
 7    0  0.4709932E-002  0.4411767E+03  0.7546771E-02  0.1030386E+00
         21   -1    0    0  502  501  0.00000000000E+00  0.00000000000E+00  0.10616899414E+03  0.10616899414E+03  0.00000000000E+00 0. -1.
         21   -1    0    0  501  502 -0.00000000000E+00 -0.00000000000E+00 -0.45831851078E+03  0.45831851078E+03  0.00000000000E+00 0. -1.
      99926    2    1    2    0    0  0.00000000000E+00 -0.14210854715E-13 -0.35214951664E+03  0.56448750492E+03  0.44117667793E+03 0.  0.
      99925    2    3    3    0    0  0.21350593618E+02  0.91100581110E+02 -0.18050094819E+03  0.33239721457E+03  0.26296796807E+03 0.  0.
         25    1    4    4    0    0  0.17618642701E+02  0.85018640849E+02 -0.81483870329E+02  0.17270123070E+03  0.12509000000E+03 0.  0.
         25    1    3    3    0    0 -0.21350593618E+02 -0.91100581110E+02 -0.17164856845E+03  0.23209029036E+03  0.12509000000E+03 0.  0.
         25    1    4    4    0    0  0.37319509167E+01  0.60819402611E+01 -0.99017077857E+02  0.15969598386E+03  0.12509000000E+03 0.  0.
<mgrwt>
<rscale>  2 0.44117668E+03</rscale>
<asrwt>0</asrwt>
<pdfrwt beam="1">  1       21 0.15613087E-01 0.44117668E+03</pdfrwt>
<pdfrwt beam="2">  1       21 0.67399781E-01 0.44117668E+03</pdfrwt>
<totfact> 0.68060261E+04</totfact>
</mgrwt>
</event>
<event>
 7    0  0.4709932E-002  0.4555780E+03  0.7546771E-02  0.1026072E+00
         21   -1    0    0  502  501  0.00000000000E+00  0.00000000000E+00  0.23834387862E+03  0.23834387862E+03  0.00000000000E+00 0.  1.
         21   -1    0    0  501  502 -0.00000000000E+00 -0.00000000000E+00 -0.21770154250E+03  0.21770154250E+03  0.00000000000E+00 0.  1.
      99926    2    1    2    0    0  0.00000000000E+00 -0.35527136788E-14  0.20642336123E+02  0.45604542113E+03  0.45557800659E+03 0.  0.
      99925    2    3    3    0    0 -0.57325395015E+02 -0.23337578212E+02 -0.82695825583E+02  0.28238734549E+03  0.26281775026E+03 0.  0.
         25    1    4    4    0    0 -0.34824223165E+02 -0.51450022286E+02 -0.37807418719E+02  0.14469533622E+03  0.12509000000E+03 0.  0.
         25    1    4    4    0    0 -0.22501171850E+02  0.28112444074E+02 -0.44888406863E+02  0.13769200927E+03  0.12509000000E+03 0.  0.
         25    1    3    3    0    0  0.57325395015E+02  0.23337578212E+02  0.10333816171E+03  0.17365807564E+03  0.12509000000E+03 0.  0.
<mgrwt>
<rscale>  2 0.45557801E+03</rscale>
<asrwt>0</asrwt>
<pdfrwt beam="1">  1       21 0.35050570E-01 0.45557801E+03</pdfrwt>
<pdfrwt beam="2">  1       21 0.32014933E-01 0.45557801E+03</pdfrwt>
<totfact> 0.68154437E+04</totfact>
</mgrwt>
</event>
<event>
 7    0  0.4709932E-002  0.4547291E+03  0.7546771E-02  0.1026321E+00
         21   -1    0    0  502  501  0.00000000000E+00  0.00000000000E+00  0.54279002150E+03  0.54279002150E+03  0.00000000000E+00 0.  1.
         21   -1    0    0  501  502 -0.00000000000E+00 -0.00000000000E+00 -0.95238728522E+02  0.95238728522E+02  0.00000000000E+00 0.  1.
      99926    2    1    2    0    0  0.00000000000E+00  0.00000000000E+00  0.44755129298E+03  0.63802875002E+03  0.45472906879E+03 0.  0.
      99925    2    3    3    0    0  0.10992391955E+03  0.24923402969E+02  0.28977371278E+03  0.40727841520E+03  0.26306360213E+03 0.  0.
         25    1    4    4    0    0  0.14716044200E+02  0.27153173648E+02  0.13666276486E+03  0.18782458890E+03  0.12509000000E+03 0.  0.
         25    1    3    3    0    0 -0.10992391955E+03 -0.24923402969E+02  0.15777758020E+03  0.23075033482E+03  0.12509000000E+03 0.  0.
         25    1    4    4    0    0  0.95207875352E+02 -0.22297706782E+01  0.15311094792E+03  0.21945382630E+03  0.12509000000E+03 0.  0.
<mgrwt>
<rscale>  2 0.45472907E+03</rscale>
<asrwt>0</asrwt>
<pdfrwt beam="1">  1       21 0.79822061E-01 0.45472907E+03</pdfrwt>
<pdfrwt beam="2">  1       21 0.14005696E-01 0.45472907E+03</pdfrwt>
<totfact> 0.56517223E+04</totfact>
</mgrwt>
</event>
<event>
 7    0  0.4709932E-002  0.4494811E+03  0.7546771E-02  0.1027877E+00
         21   -1    0    0  502  501  0.00000000000E+00  0.00000000000E+00  0.11110366436E+04  0.11110366436E+04  0.00000000000E+00 0.  1.
         21   -1    0    0  501  502 -0.00000000000E+00 -0.00000000000E+00 -0.45460534440E+02  0.45460534440E+02  0.00000000000E+00 0.  1.
      99926    2    1    2    0    0  0.00000000000E+00  0.17763568394E-14  0.10655761091E+04  0.11564971780E+04  0.44948112129E+03 0.  0.
      99925    2    3    3    0    0  0.64254813072E+02  0.90551523028E+01  0.45200995535E+03  0.52695638509E+03  0.26298166336E+03 0.  0.
         25    1    3    3    0    0 -0.64254813072E+02 -0.90551523028E+01  0.61356615378E+03  0.62954079292E+03  0.12509000000E+03 0.  0.
         25    1    4    4    0    0 -0.81405513586E+01 -0.34724190904E+01  0.22381459553E+03  0.25655176386E+03  0.12509000000E+03 0.  0.
         25    1    4    4    0    0  0.72395364430E+02  0.12527571393E+02  0.22819535982E+03  0.27040462123E+03  0.12509000000E+03 0.  0.
<mgrwt>
<rscale>  2 0.44948112E+03</rscale>
<asrwt>0</asrwt>
<pdfrwt beam="1">  1       21 0.16338772E+00 0.44948112E+03</pdfrwt>
<pdfrwt beam="2">  1       21 0.66853735E-02 0.44948112E+03</pdfrwt>
<totfact> 0.35049553E+04</totfact>
</mgrwt>
</event>
<event>
 7    0  0.4709932E-002  0.4743828E+03  0.7546771E-02  0.1020690E+00
         21   -1    0    0  502  501  0.00000000000E+00  0.00000000000E+00  0.40159055853E+02  0.40159055853E+02  0.00000000000E+00 0. -1.
         21   -1    0    0  501  502 -0.00000000000E+00 -0.00000000000E+00 -0.14009231464E+04  0.14009231464E+04  0.00000000000E+00 0. -1.
      99926    2    1    2    0    0  0.00000000000E+00 -0.26645352591E-14 -0.13607640906E+04  0.14410822023E+04  0.47438276058E+03 0.  0.
      99925    2    3    3    0    0 -0.70471595428E+02  0.25983409211E+01 -0.50861923097E+03  0.57692286108E+03  0.26300849489E+03 0.  0.
         25    1    3    3    0    0  0.70471595428E+02 -0.25983409211E+01 -0.85214485962E+03  0.86415934122E+03  0.12509000000E+03 0.  0.
         25    1    4    4    0    0 -0.57856358829E+02  0.35384245053E+02 -0.27273823699E+03  0.30762486419E+03  0.12509000000E+03 0.  0.
         25    1    4    4    0    0 -0.12615236599E+02 -0.32785904132E+02 -0.23588099399E+03  0.26929799689E+03  0.12509000000E+03 0.  0.
<mgrwt>
<rscale>  2 0.47438276E+03</rscale>
<asrwt>0</asrwt>
<pdfrwt beam="1">  1       21 0.59057451E-02 0.47438276E+03</pdfrwt>
<pdfrwt beam="2">  1       21 0.20601805E+00 0.47438276E+03</pdfrwt>
<totfact> 0.21787024E+04</totfact>
</mgrwt>
</event>
<event>
 7    0  0.4709932E-002  0.4547761E+03  0.7546771E-02  0.1026307E+00
         21   -1    0    0  502  501  0.00000000000E+00  0.00000000000E+00  0.51342416020E+03  0.51342416020E+03  0.00000000000E+00 0.  1.
         21   -1    0    0  501  502 -0.00000000000E+00 -0.00000000000E+00 -0.10070683216E+03  0.10070683216E+03  0.00000000000E+00 0.  1.
      99926    2    1    2    0    0  0.00000000000E+00  0.00000000000E+00  0.41271732805E+03  0.61413099236E+03  0.45477607997E+03 0.  0.
      99925    2    3    3    0    0 -0.10873152789E+03  0.22957109527E+02  0.23306052979E+03  0.36862407333E+03  0.26309109232E+03 0.  0.
         25    1    4    4    0    0 -0.18784867956E+02  0.25994555077E+02  0.12999045578E+03  0.18323104227E+03  0.12509000000E+03 0.  0.
         25    1    4    4    0    0 -0.89946659933E+02 -0.30374455501E+01  0.10307007402E+03  0.18539303106E+03  0.12509000000E+03 0.  0.
         25    1    3    3    0    0  0.10873152789E+03 -0.22957109527E+02  0.17965679825E+03  0.24550691903E+03  0.12509000000E+03 0.  0.
<mgrwt>
<rscale>  2 0.45477608E+03</rscale>
<asrwt>0</asrwt>
<pdfrwt beam="1">  1       21 0.75503552E-01 0.45477608E+03</pdfrwt>
<pdfrwt beam="2">  1       21 0.14809828E-01 0.45477608E+03</pdfrwt>
<totfact> 0.57919156E+04</totfact>
</mgrwt>
</event>
<event>
 7    0  0.4709932E-002  0.4522548E+03  0.7546771E-02  0.1027052E+00
         21   -1    0    0  502  501  0.00000000000E+00  0.00000000000E+00  0.22539931606E+02  0.22539931606E+02  0.00000000000E+00 0.  1.
         21   -1    0    0  501  502 -0.00000000000E+00 -0.00000000000E+00 -0.22685781682E+04  0.22685781682E+04  0.00000000000E+00 0.  1.
      99926    2    1    2    0    0 -0.17763568394E-14  0.00000000000E+00 -0.22460382366E+04  0.22911180998E+04  0.45225478108E+03 0.  0.
      99925    2    3    3    0    0 -0.43910204818E+01 -0.74886056699E+02 -0.18278626992E+04  0.18482349428E+04  0.26317893964E+03 0.  0.
         25    1    4    4    0    0 -0.28197471028E+02 -0.67987371228E+01 -0.78777916205E+03  0.79817594330E+03  0.12509000000E+03 0.  0.
         25    1    4    4    0    0  0.23806450546E+02 -0.68087319576E+02 -0.10400835371E+04  0.10500589995E+04  0.12509000000E+03 0.  0.
         25    1    3    3    0    0  0.43910204818E+01  0.74886056699E+02 -0.41817553745E+03  0.44288315701E+03  0.12509000000E+03 0.  0.
<mgrwt>
<rscale>  2 0.45225478E+03</rscale>
<asrwt>0</asrwt>
<pdfrwt beam="1">  1       21 0.33146970E-02 0.45225478E+03</pdfrwt>
<pdfrwt beam="2">  1       21 0.33361432E+00 0.45225478E+03</pdfrwt>
<totfact> 0.97180235E+03</totfact>
</mgrwt>
</event>
<event>
 7    0  0.4709932E-002  0.4560596E+03  0.7546771E-02  0.1025930E+00
         21   -1    0    0  502  501  0.00000000000E+00  0.00000000000E+00  0.60989843577E+03  0.60989843577E+03  0.00000000000E+00 0. -1.
         21   -1    0    0  501  502 -0.00000000000E+00 -0.00000000000E+00 -0.85256140185E+02  0.85256140185E+02  0.00000000000E+00 0. -1.
      99926    2    1    2    0    0  0.00000000000E+00  0.00000000000E+00  0.52464229558E+03  0.69515457595E+03  0.45605958619E+03 0.  0.
      99925    2    3    3    0    0  0.41403900875E+02  0.10701392833E+03  0.31820375221E+03  0.42788945635E+03  0.26204865020E+03 0.  0.
         25    1    3    3    0    0 -0.41403900875E+02 -0.10701392833E+03  0.20643854337E+03  0.26726511960E+03  0.12509000000E+03 0.  0.
         25    1    4    4    0    0  0.23341284800E+02  0.16769591991E+02  0.17189252594E+03  0.21452408575E+03  0.12509000000E+03 0.  0.
         25    1    4    4    0    0  0.18062616075E+02  0.90244336342E+02  0.14631122627E+03  0.21336537061E+03  0.12509000000E+03 0.  0.
<mgrwt>
<rscale>  2 0.45605959E+03</rscale>
<asrwt>0</asrwt>
<pdfrwt beam="1">  1       21 0.89690945E-01 0.45605959E+03</pdfrwt>
<pdfrwt beam="2">  1       21 0.12537668E-01 0.45605959E+03</pdfrwt>
<totfact> 0.52725749E+04</totfact>
</mgrwt>
</event>
<event>
 7    0  0.4709932E-002  0.4518928E+03  0.7546771E-02  0.1027159E+00
         21   -1    0    0  502  501  0.00000000000E+00  0.00000000000E+00  0.48831665330E+02  0.48831665330E+02  0.00000000000E+00 0.  1.
         21   -1    0    0  501  502 -0.00000000000E+00 -0.00000000000E+00 -0.10454644600E+04  0.10454644600E+04  0.00000000000E+00 0.  1.
      99926    2    1    2    0    0  0.88817841970E-15  0.00000000000E+00 -0.99663279465E+03  0.10942961253E+04  0.45189277765E+03 0.  0.
      99925    2    3    3    0    0  0.27664251782E+01  0.10907865971E+03 -0.58803708498E+03  0.65327031067E+03  0.26280920530E+03 0.  0.
         25    1    3    3    0    0 -0.27664251782E+01 -0.10907865971E+03 -0.40859570967E+03  0.44102581463E+03  0.12509000000E+03 0.  0.
         25    1    4    4    0    0  0.12395548945E+02  0.47338213352E+02 -0.37606161885E+03  0.39932994547E+03  0.12509000000E+03 0.  0.
         25    1    4    4    0    0 -0.96291237666E+01  0.61740446353E+02 -0.21197546613E+03  0.25394036521E+03  0.12509000000E+03 0.  0.
<mgrwt>
<rscale>  2 0.45189278E+03</rscale>
<asrwt>0</asrwt>
<pdfrwt beam="1">  1       21 0.71811282E-02 0.45189278E+03</pdfrwt>
<pdfrwt beam="2">  1       21 0.15374475E+00 0.45189278E+03</pdfrwt>
<totfact> 0.36571187E+04</totfact>
</mgrwt>
</event>
<event>
 7    0  0.4709932E-002  0.4463337E+03  0.7546771E-02  0.1028821E+00
         21   -1    0    0  502  501  0.00000000000E+00  0.00000000000E+00  0.13541764911E+03  0.13541764911E+03  0.00000000000E+00 0.  1.
         21   -1    0    0  501  502 -0.00000000000E+00 -0.00000000000E+00 -0.36777656201E+03  0.36777656201E+03  0.00000000000E+00 0.  1.
      99926    2    1    2    0    0  0.00000000000E+00  0.17763568394E-14 -0.23235891290E+03  0.50319421112E+03  0.44633367529E+03 0.  0.
      99925    2    3    3    0    0  0.37148811979E+02  0.13674045877E+02 -0.25695688317E+03  0.36970420399E+03  0.26284471629E+03 0.  0.
         25    1    4    4    0    0  0.41224963511E+02  0.35967075635E+02 -0.15644608811E+03  0.20764396146E+03  0.12509000000E+03 0.  0.
         25    1    3    3    0    0 -0.37148811979E+02 -0.13674045877E+02  0.24597970263E+02  0.13349000713E+03  0.12509000000E+03 0.  0.
         25    1    4    4    0    0 -0.40761515320E+01 -0.22293029758E+02 -0.10051079506E+03  0.16206024253E+03  0.12509000000E+03 0.  0.
<mgrwt>
<rscale>  2 0.44633368E+03</rscale>
<asrwt>0</asrwt>
<pdfrwt beam="1">  1       21 0.19914361E-01 0.44633368E+03</pdfrwt>
<pdfrwt beam="2">  1       21 0.54084788E-01 0.44633368E+03</pdfrwt>
<totfact> 0.69720308E+04</totfact>
</mgrwt>
</event>
<event>
 6    0  0.4709932E-002  0.4790548E+03  0.7546771E-02  0.1019395E+00
         21   -1    0    0  502  501  0.00000000000E+00  0.00000000000E+00  0.97790600965E+02  0.97790600965E+02  0.00000000000E+00 0.  1.
         21   -1    0    0  501  502 -0.00000000000E+00 -0.00000000000E+00 -0.58669628880E+03  0.58669628880E+03  0.00000000000E+00 0.  1.
      99926    2    1    2    0    0  0.00000000000E+00  0.00000000000E+00 -0.48890568783E+03  0.68448688976E+03  0.47905483054E+03 0.  0.
         25    1    3    3    0    0  0.81475731611E+01  0.36546837661E+01 -0.20686069992E+03  0.24190617382E+03  0.12509000000E+03 0.  0.
         25    1    3    3    0    0 -0.10871260484E+03  0.41015222507E+02 -0.11003569998E+03  0.20311583468E+03  0.12509000000E+03 0.  0.
         25    1    3    3    0    0  0.10056503168E+03 -0.44669906273E+02 -0.17200928793E+03  0.23946488126E+03  0.12509000000E+03 0.  0.
<mgrwt>
<rscale>  2 0.47905483E+03</rscale>
<asrwt>0</asrwt>
<pdfrwt beam="1">  1       21 0.14380971E-01 0.47905483E+03</pdfrwt>
<pdfrwt beam="2">  1       21 0.86278866E-01 0.47905483E+03</pdfrwt>
<totfact> 0.44665212E+04</totfact>
</mgrwt>
</event>
<event>
 7    0  0.4709932E-002  0.4444928E+03  0.7546771E-02  0.1029377E+00
         21   -1    0    0  502  501  0.00000000000E+00  0.00000000000E+00  0.39391128223E+03  0.39391128223E+03  0.00000000000E+00 0. -1.
         21   -1    0    0  501  502 -0.00000000000E+00 -0.00000000000E+00 -0.12539235639E+03  0.12539235639E+03  0.00000000000E+00 0. -1.
      99926    2    1    2    0    0  0.00000000000E+00  0.00000000000E+00  0.26851892584E+03  0.51930363862E+03  0.44449280708E+03 0.  0.
      99925    2    3    3    0    0  0.23618351650E+02 -0.99465335229E+02  0.15691905246E+03  0.32295390145E+03  0.26310540472E+03 0.  0.
         25    1    4    4    0    0  0.41376745442E+02 -0.79299102610E+02  0.75625640743E+02  0.17136839958E+03  0.12509000000E+03 0.  0.
         25    1    4    4    0    0 -0.17758393792E+02 -0.20166232619E+02  0.81293411715E+02  0.15158550187E+03  0.12509000000E+03 0.  0.
         25    1    3    3    0    0 -0.23618351650E+02  0.99465335229E+02  0.11159987338E+03  0.19634973717E+03  0.12509000000E+03 0.  0.
<mgrwt>
<rscale>  2 0.44449281E+03</rscale>
<asrwt>0</asrwt>
<pdfrwt beam="1">  1       21 0.57928129E-01 0.44449281E+03</pdfrwt>
<pdfrwt beam="2">  1       21 0.18440053E-01 0.44449281E+03</pdfrwt>
<totfact> 0.69549801E+04</totfact>
</mgrwt>
</event>
<event>
 7    0  0.4709932E-002  0.4463666E+03  0.7546771E-02  0.1028811E+00
         21   -1    0    0  502  501  0.00000000000E+00  0.00000000000E+00  0.26608782966E+03  0.26608782966E+03  0.00000000000E+00 0. -1.
         21   -1    0    0  501  502 -0.00000000000E+00 -0.00000000000E+00 -0.18719676848E+03  0.18719676848E+03  0.00000000000E+00 0. -1.
      99926    2    1    2    0    0 -0.26645352591E-14  0.71054273576E-14  0.78891061184E+02  0.45328459814E+03  0.44636658407E+03 0.  0.
      99925    2    3    3    0    0  0.55389790286E+01 -0.55741361292E+02 -0.40919256493E+02  0.27124119680E+03  0.26222055916E+03 0.  0.
         25    1    4    4    0    0  0.29045291228E+02 -0.52070162139E-01 -0.92665135490E+01  0.12875173019E+03  0.12509000000E+03 0.  0.
         25    1    4    4    0    0 -0.23506312199E+02 -0.55689291130E+02 -0.31652742944E+02  0.14248946661E+03  0.12509000000E+03 0.  0.
         25    1    3    3    0    0 -0.55389790286E+01  0.55741361292E+02  0.11981031768E+03  0.18204340133E+03  0.12509000000E+03 0.  0.
<mgrwt>
<rscale>  2 0.44636658E+03</rscale>
<asrwt>0</asrwt>
<pdfrwt beam="1">  1       21 0.39130563E-01 0.44636658E+03</pdfrwt>
<pdfrwt beam="2">  1       21 0.27528936E-01 0.44636658E+03</pdfrwt>
<totfact> 0.73611353E+04</totfact>
</mgrwt>
</event>
<event>
 7    0  0.4709932E-002  0.4619971E+03  0.7546771E-02  0.1024204E+00
         21   -1    0    0  502  501  0.00000000000E+00  0.00000000000E+00  0.73405381328E+02  0.73405381328E+02  0.00000000000E+00 0.  1.
         21   -1    0    0  501  502 -0.00000000000E+00 -0.00000000000E+00 -0.72692666504E+03  0.72692666504E+03  0.00000000000E+00 0.  1.
      99926    2    1    2    0    0  0.00000000000E+00  0.00000000000E+00 -0.65352128372E+03  0.80033204637E+03  0.46199709542E+03 0.  0.
      99925    2    3    3    0    0 -0.87303252423E+02  0.24813104130E+02 -0.54388233107E+03  0.61084390411E+03  0.26283975559E+03 0.  0.
         25    1    3    3    0    0  0.87303252423E+02 -0.24813104130E+02 -0.10963895265E+03  0.18948814226E+03  0.12509000000E+03 0.  0.
         25    1    4    4    0    0 -0.11220865876E+02  0.11538790966E+02 -0.19474123445E+03  0.23201445650E+03  0.12509000000E+03 0.  0.
         25    1    4    4    0    0 -0.76082386547E+02  0.13274313163E+02 -0.34914109662E+03  0.37882944761E+03  0.12509000000E+03 0.  0.
<mgrwt>
<rscale>  2 0.46199710E+03</rscale>
<asrwt>0</asrwt>
<pdfrwt beam="1">  1       21 0.10794909E-01 0.46199710E+03</pdfrwt>
<pdfrwt beam="2">  1       21 0.10690098E+00 0.46199710E+03</pdfrwt>
<totfact> 0.45214367E+04</totfact>
</mgrwt>
</event>
<event>
 7    0  0.4709932E-002  0.4641272E+03  0.7546771E-02  0.1023591E+00
         21   -1    0    0  502  501  0.00000000000E+00  0.00000000000E+00  0.16379036100E+03  0.16379036100E+03  0.00000000000E+00 0.  1.
         21   -1    0    0  501  502 -0.00000000000E+00 -0.00000000000E+00 -0.32879531419E+03  0.32879531419E+03  0.00000000000E+00 0.  1.
      99926    2    1    2    0    0 -0.88817841970E-15  0.00000000000E+00 -0.16500495320E+03  0.49258567519E+03  0.46412715157E+03 0.  0.
      99925    2    3    3    0    0  0.12564148336E+01  0.12207477246E+03 -0.10673545819E+03  0.30833945190E+03  0.26225356226E+03 0.  0.
         25    1    3    3    0    0 -0.12564148336E+01 -0.12207477246E+03 -0.58269495002E+02  0.18424622329E+03  0.12509000000E+03 0.  0.
         25    1    4    4    0    0  0.19960105660E+02  0.29490729148E+02 -0.68507722267E+02  0.14699974501E+03  0.12509000000E+03 0.  0.
         25    1    4    4    0    0 -0.18703690826E+02  0.92584043308E+02 -0.38227735926E+02  0.16133970689E+03  0.12509000000E+03 0.  0.
<mgrwt>
<rscale>  2 0.46412715E+03</rscale>
<asrwt>0</asrwt>
<pdfrwt beam="1">  1       21 0.24086818E-01 0.46412715E+03</pdfrwt>
<pdfrwt beam="2">  1       21 0.48352252E-01 0.46412715E+03</pdfrwt>
<totfact> 0.61236091E+04</totfact>
</mgrwt>
</event>
<event>
 7    0  0.4709932E-002  0.4156477E+03  0.7546771E-02  0.1038492E+00
         21   -1    0    0  502  501  0.00000000000E+00  0.00000000000E+00  0.45437176442E+02  0.45437176442E+02  0.00000000000E+00 0.  1.
         21   -1    0    0  501  502 -0.00000000000E+00 -0.00000000000E+00 -0.95056001114E+03  0.95056001114E+03  0.00000000000E+00 0.  1.
      99926    2    1    2    0    0  0.71054273576E-14 -0.88817841970E-15 -0.90512283470E+03  0.99599718758E+03  0.41564774964E+03 0.  0.
      99925    2    3    3    0    0  0.49463543412E+02 -0.57714200791E+01 -0.71451234919E+03  0.76263091602E+03  0.26191232409E+03 0.  0.
         25    1    3    3    0    0 -0.49463543412E+02  0.57714200791E+01 -0.19061048551E+03  0.23336627156E+03  0.12509000000E+03 0.  0.
         25    1    4    4    0    0  0.30374344551E+02  0.88122102556E+01 -0.25490684623E+03  0.28570135493E+03  0.12509000000E+03 0.  0.
         25    1    4    4    0    0  0.19089198861E+02 -0.14583630335E+02 -0.45960550296E+03  0.47692956109E+03  0.12509000000E+03 0.  0.
<mgrwt>
<rscale>  2 0.41564775E+03</rscale>
<asrwt>0</asrwt>
<pdfrwt beam="1">  1       21 0.66819375E-02 0.41564775E+03</pdfrwt>
<pdfrwt beam="2">  1       21 0.13978824E+00 0.41564775E+03</pdfrwt>
<totfact> 0.54146989E+04</totfact>
</mgrwt>
</event>
<event>
 7    0  0.4709932E-002  0.4541358E+03  0.7546771E-02  0.1026496E+00
         21   -1    0    0  502  501  0.00000000000E+00  0.00000000000E+00  0.43977385447E+03  0.43977385447E+03  0.00000000000E+00 0. -1.
         21   -1    0    0  501  502 -0.00000000000E+00 -0.00000000000E+00 -0.11724169661E+03  0.11724169661E+03  0.00000000000E+00 0. -1.
      99926    2    1    2    0    0  0.14210854715E-13  0.00000000000E+00  0.32253215786E+03  0.55701555108E+03  0.45413580711E+03 0.  0.
      99925    2    3    3    0    0  0.94754570820E+02  0.57738907347E+02  0.22306884811E+03  0.36245792929E+03  0.26325620485E+03 0.  0.
         25    1    3    3    0    0 -0.94754570820E+02 -0.57738907347E+02  0.99463309750E+02  0.19455762180E+03  0.12509000000E+03 0.  0.
         25    1    4    4    0    0  0.59314871844E+02  0.66115888770E+02  0.14175654365E+03  0.20888271958E+03  0.12509000000E+03 0.  0.
         25    1    4    4    0    0  0.35439698976E+02 -0.83769814234E+01  0.81312304459E+02  0.15357520971E+03  0.12509000000E+03 0.  0.
<mgrwt>
<rscale>  2 0.45413581E+03</rscale>
<asrwt>0</asrwt>
<pdfrwt beam="1">  1       21 0.64672625E-01 0.45413581E+03</pdfrwt>
<pdfrwt beam="2">  1       21 0.17241426E-01 0.45413581E+03</pdfrwt>
<totfact> 0.61826862E+04</totfact>
</mgrwt>
</event>
<event>
 7    0  0.4709932E-002  0.4536413E+03  0.7546771E-02  0.1026642E+00
         21   -1    0    0  502  501  0.00000000000E+00  0.00000000000E+00  0.53797862754E+03  0.53797862754E+03  0.00000000000E+00 0.  1.
         21   -1    0    0  501  502 -0.00000000000E+00 -0.00000000000E+00 -0.95631334718E+02  0.95631334718E+02  0.00000000000E+00 0.  1.
      99926    2    1    2    0    0  0.35527136788E-14  0.00000000000E+00  0.44234729282E+03  0.63360996226E+03  0.45364133057E+03 0.  0.
      99925    2    3    3    0    0  0.27224110919E+02 -0.37253689921E+02  0.13610436091E+03  0.29960213140E+03  0.26288410080E+03 0.  0.
         25    1    4    4    0    0 -0.19171975020E+02 -0.73858480941E+01  0.89424755473E+02  0.15513352433E+03  0.12509000000E+03 0.  0.
         25    1    4    4    0    0  0.46396085939E+02 -0.29867841827E+02  0.46679605436E+02  0.14446860707E+03  0.12509000000E+03 0.  0.
         25    1    3    3    0    0 -0.27224110919E+02  0.37253689921E+02  0.30624293191E+03  0.33400783086E+03  0.12509000000E+03 0.  0.
<mgrwt>
<rscale>  2 0.45364133E+03</rscale>
<asrwt>0</asrwt>
<pdfrwt beam="1">  1       21 0.79114503E-01 0.45364133E+03</pdfrwt>
<pdfrwt beam="2">  1       21 0.14063432E-01 0.45364133E+03</pdfrwt>
<totfact> 0.57267414E+04</totfact>
</mgrwt>
</event>
<event>
 7    0  0.4709932E-002  0.4498462E+03  0.7546771E-02  0.1027768E+00
         21   -1    0    0  502  501  0.00000000000E+00  0.00000000000E+00  0.52585521723E+03  0.52585521723E+03  0.00000000000E+00 0. -1.
         21   -1    0    0  501  502 -0.00000000000E+00 -0.00000000000E+00 -0.96205936963E+02  0.96205936963E+02  0.00000000000E+00 0. -1.
      99926    2    1    2    0    0  0.00000000000E+00  0.00000000000E+00  0.42964928027E+03  0.62206115420E+03  0.44984616873E+03 0.  0.
      99925    2    3    3    0    0 -0.44162723890E+02 -0.92872111868E+02  0.31826222637E+03  0.42551558894E+03  0.26305340970E+03 0.  0.
         25    1    3    3    0    0  0.44162723890E+02  0.92872111868E+02  0.11138705390E+03  0.19654556525E+03  0.12509000000E+03 0.  0.
         25    1    4    4    0    0 -0.38256689116E+02 -0.25283334263E+02  0.20087812674E+03  0.24104429294E+03  0.12509000000E+03 0.  0.
         25    1    4    4    0    0 -0.59060347741E+01 -0.67588777605E+02  0.11738409963E+03  0.18447129601E+03  0.12509000000E+03 0.  0.
<mgrwt>
<rscale>  2 0.44984617E+03</rscale>
<asrwt>0</asrwt>
<pdfrwt beam="1">  1       21 0.77331648E-01 0.44984617E+03</pdfrwt>
<pdfrwt beam="2">  1       21 0.14147932E-01 0.44984617E+03</pdfrwt>
<totfact> 0.59734424E+04</totfact>
</mgrwt>
</event>
<event>
 6    0  0.4709932E-002  0.4521416E+03  0.7546771E-02  0.1027085E+00
         21   -1    0    0  502  501  0.00000000000E+00  0.00000000000E+00  0.17126386129E+03  0.17126386129E+03  0.00000000000E+00 0.  1.
         21   -1    0    0  501  502 -0.00000000000E+00 -0.00000000000E+00 -0.29841682610E+03  0.29841682610E+03  0.00000000000E+00 0.  1.
      99926    2    1    2    0    0  0.00000000000E+00  0.88817841970E-15 -0.12715296482E+03  0.46968068739E+03  0.45214164998E+03 0.  0.
         25    1    3    3    0    0 -0.22201412622E+02 -0.79482873944E+01  0.68690636890E+02  0.14464435589E+03  0.12509000000E+03 0.  0.
         25    1    3    3    0    0  0.31882207368E+02 -0.20007619667E+02 -0.10569073165E+03  0.16803219587E+03  0.12509000000E+03 0.  0.
         25    1    3    3    0    0 -0.96807947451E+01  0.27955907061E+02 -0.90152870055E+02  0.15700413563E+03  0.12509000000E+03 0.  0.
<mgrwt>
<rscale>  2 0.45214165E+03</rscale>
<asrwt>0</asrwt>
<pdfrwt beam="1">  1       21 0.25185862E-01 0.45214165E+03</pdfrwt>
<pdfrwt beam="2">  1       21 0.43884827E-01 0.45214165E+03</pdfrwt>
<totfact> 0.69011231E+04</totfact>
</mgrwt>
</event>
<event>
 7    0  0.4709932E-002  0.4530823E+03  0.7546771E-02  0.1026807E+00
         21   -1    0    0  502  501  0.00000000000E+00  0.00000000000E+00  0.28434318473E+03  0.28434318473E+03  0.00000000000E+00 0.  1.
         21   -1    0    0  501  502 -0.00000000000E+00 -0.00000000000E+00 -0.18048929026E+03  0.18048929026E+03  0.00000000000E+00 0.  1.
      99926    2    1    2    0    0  0.00000000000E+00 -0.14210854715E-13  0.10385389447E+03  0.46483247500E+03  0.45308233072E+03 0.  0.
      99925    2    3    3    0    0 -0.71850572108E+02  0.83077397491E+02  0.82766050768E+02  0.29703329759E+03  0.26327590477E+03 0.  0.
         25    1    4    4    0    0  0.79485558280E+00  0.55735840544E+02  0.52957100590E+02  0.14683010018E+03  0.12509000000E+03 0.  0.
         25    1    4    4    0    0 -0.72645427691E+02  0.27341556948E+02  0.29808950178E+02  0.15020319741E+03  0.12509000000E+03 0.  0.
         25    1    3    3    0    0  0.71850572108E+02 -0.83077397491E+02  0.21087843703E+02  0.16779917741E+03  0.12509000000E+03 0.  0.
<mgrwt>
<rscale>  2 0.45308233E+03</rscale>
<asrwt>0</asrwt>
<pdfrwt beam="1">  1       21 0.41815175E-01 0.45308233E+03</pdfrwt>
<pdfrwt beam="2">  1       21 0.26542542E-01 0.45308233E+03</pdfrwt>
<totfact> 0.68863855E+04</totfact>
</mgrwt>
</event>
<event>
 7    0  0.4709932E-002  0.4493278E+03  0.7546771E-02  0.1027923E+00
         21   -1    0    0  502  501  0.00000000000E+00  0.00000000000E+00  0.70016365811E+03  0.70016365811E+03  0.00000000000E+00 0. -1.
         21   -1    0    0  501  502 -0.00000000000E+00 -0.00000000000E+00 -0.72088660421E+02  0.72088660421E+02  0.00000000000E+00 0. -1.
      99926    2    1    2    0    0  0.00000000000E+00 -0.14210854715E-13  0.62807499769E+03  0.77225231853E+03  0.44932776539E+03 0.  0.
      99925    2    3    3    0    0 -0.83741309539E+02 -0.67823079306E+02  0.41269246683E+03  0.50086750003E+03  0.26256542690E+03 0.  0.
         25    1    4    4    0    0 -0.32069107341E+02 -0.68711907319E+02  0.24530121857E+03  0.28560453390E+03  0.12509000000E+03 0.  0.
         25    1    4    4    0    0 -0.51672202198E+02  0.88882801320E+00  0.16739124825E+03  0.21526296613E+03  0.12509000000E+03 0.  0.
         25    1    3    3    0    0  0.83741309539E+02  0.67823079306E+02  0.21538253086E+03  0.27138481850E+03  0.12509000000E+03 0.  0.
<mgrwt>
<rscale>  2 0.44932777E+03</rscale>
<asrwt>0</asrwt>
<pdfrwt beam="1">  1       21 0.10296524E+00 0.44932777E+03</pdfrwt>
<pdfrwt beam="2">  1       21 0.10601274E-01 0.44932777E+03</pdfrwt>
<totfact> 0.51386359E+04</totfact>
</mgrwt>
</event>
<event>
 7    0  0.4709932E-002  0.4543109E+03  0.7546771E-02  0.1026444E+00
         21   -1    0    0  502  501  0.00000000000E+00  0.00000000000E+00  0.92149472449E+02  0.92149472449E+02  0.00000000000E+00 0.  1.
         21   -1    0    0  501  502 -0.00000000000E+00 -0.00000000000E+00 -0.55995556167E+03  0.55995556167E+03  0.00000000000E+00 0.  1.
      99926    2    1    2    0    0  0.14210854715E-13  0.00000000000E+00 -0.46780608922E+03  0.65210503412E+03  0.45431094903E+03 0.  0.
      99925    2    3    3    0    0 -0.10447128352E+03 -0.40424201262E+02 -0.28125989163E+03  0.40111627528E+03  0.26313261775E+03 0.  0.
         25    1    4    4    0    0 -0.66347693442E+02  0.14474107811E+02 -0.11826358071E+03  0.18505485361E+03  0.12509000000E+03 0.  0.
         25    1    3    3    0    0  0.10447128352E+03  0.40424201262E+02 -0.18654619759E+03  0.25098875884E+03  0.12509000000E+03 0.  0.
         25    1    4    4    0    0 -0.38123590082E+02 -0.54898309072E+02 -0.16299631092E+03  0.21606142167E+03  0.12509000000E+03 0.  0.
<mgrwt>
<rscale>  2 0.45431095E+03</rscale>
<asrwt>0</asrwt>
<pdfrwt beam="1">  1       21 0.13551394E-01 0.45431095E+03</pdfrwt>
<pdfrwt beam="2">  1       21 0.82346403E-01 0.45431095E+03</pdfrwt>
<totfact> 0.55883520E+04</totfact>
</mgrwt>
</event>
<event>
 7    0  0.4709932E-002  0.4556099E+03  0.7546771E-02  0.1026062E+00
         21   -1    0    0  502  501  0.00000000000E+00  0.00000000000E+00  0.81847020941E+02  0.81847020941E+02  0.00000000000E+00 0.  1.
         21   -1    0    0  501  502 -0.00000000000E+00 -0.00000000000E+00 -0.63404984541E+03  0.63404984541E+03  0.00000000000E+00 0.  1.
      99926    2    1    2    0    0  0.00000000000E+00  0.14210854715E-13 -0.55220282447E+03  0.71589686635E+03  0.45560988126E+03 0.  0.
      99925    2    3    3    0    0 -0.77796113897E+02 -0.59847035488E+02 -0.25691262788E+03  0.38051989742E+03  0.26297792867E+03 0.  0.
         25    1    4    4    0    0 -0.23481631388E+01 -0.92772063609E+01 -0.12807693353E+03  0.17928410256E+03  0.12509000000E+03 0.  0.
         25    1    3    3    0    0  0.77796113897E+02  0.59847035488E+02 -0.29529019658E+03  0.33537696893E+03  0.12509000000E+03 0.  0.
         25    1    4    4    0    0 -0.75447950758E+02 -0.50569829127E+02 -0.12883569436E+03  0.20123579486E+03  0.12509000000E+03 0.  0.
<mgrwt>
<rscale>  2 0.45560988E+03</rscale>
<asrwt>0</asrwt>
<pdfrwt beam="1">  1       21 0.12036327E-01 0.45560988E+03</pdfrwt>
<pdfrwt beam="2">  1       21 0.93242619E-01 0.45560988E+03</pdfrwt>
<totfact> 0.51799416E+04</totfact>
</mgrwt>
</event>
<event>
 7    0  0.4709932E-002  0.4544217E+03  0.7546771E-02  0.1026412E+00
         21   -1    0    0  502  501  0.00000000000E+00  0.00000000000E+00  0.55125175260E+02  0.55125175260E+02  0.00000000000E+00 0.  1.
         21   -1    0    0  501  502 -0.00000000000E+00 -0.00000000000E+00 -0.93650071241E+03  0.93650071241E+03  0.00000000000E+00 0.  1.
      99926    2    1    2    0    0 -0.35527136788E-14  0.14210854715E-13 -0.88137553715E+03  0.99162588767E+03  0.45442168039E+03 0.  0.
      99925    2    3    3    0    0  0.24934298787E+02 -0.82983782250E+02 -0.39800569376E+03  0.48486959420E+03  0.26302464474E+03 0.  0.
         25    1    4    4    0    0  0.14622624582E+02 -0.82164715687E+02 -0.19590696647E+03  0.24696540095E+03  0.12509000000E+03 0.  0.
         25    1    4    4    0    0  0.10311674205E+02 -0.81906656372E+00 -0.20209872729E+03  0.23790419325E+03  0.12509000000E+03 0.  0.
         25    1    3    3    0    0 -0.24934298787E+02  0.82983782250E+02 -0.48336984338E+03  0.50675629347E+03  0.12509000000E+03 0.  0.
<mgrwt>
<rscale>  2 0.45442168E+03</rscale>
<asrwt>0</asrwt>
<pdfrwt beam="1">  1       21 0.81066444E-02 0.45442168E+03</pdfrwt>
<pdfrwt beam="2">  1       21 0.13772068E+00 0.45442168E+03</pdfrwt>
<totfact> 0.39672966E+04</totfact>
</mgrwt>
</event>
<event>
 7    0  0.4709932E-002  0.4569073E+03  0.7546771E-02  0.1025682E+00
         21   -1    0    0  502  501  0.00000000000E+00  0.00000000000E+00  0.47465504027E+03  0.47465504027E+03  0.00000000000E+00 0. -1.
         21   -1    0    0  501  502 -0.00000000000E+00 -0.00000000000E+00 -0.10995580817E+03  0.10995580817E+03  0.00000000000E+00 0. -1.
      99926    2    1    2    0    0  0.00000000000E+00  0.00000000000E+00  0.36469923211E+03  0.58461084844E+03  0.45690733658E+03 0.  0.
      99925    2    3    3    0    0  0.10812071156E+03 -0.38878404529E+02  0.22870967440E+03  0.36702802166E+03  0.26305861497E+03 0.  0.
         25    1    4    4    0    0  0.74238687095E+02  0.15122925082E+02  0.10683746737E+03  0.18111277718E+03  0.12509000000E+03 0.  0.
         25    1    3    3    0    0 -0.10812071156E+03  0.38878404529E+02  0.13598955770E+03  0.21758282678E+03  0.12509000000E+03 0.  0.
         25    1    4    4    0    0  0.33882024465E+02 -0.54001329611E+02  0.12187220704E+03  0.18591524448E+03  0.12509000000E+03 0.  0.
<mgrwt>
<rscale>  2 0.45690734E+03</rscale>
<asrwt>0</asrwt>
<pdfrwt beam="1">  1       21 0.69802211E-01 0.45690734E+03</pdfrwt>
<pdfrwt beam="2">  1       21 0.16169972E-01 0.45690734E+03</pdfrwt>
<totfact> 0.58744927E+04</totfact>
</mgrwt>
</event>
<event>
 7    0  0.4709932E-002  0.4539113E+03  0.7546771E-02  0.1026562E+00
         21   -1    0    0  502  501  0.00000000000E+00  0.00000000000E+00  0.23883505065E+03  0.23883505065E+03  0.00000000000E+00 0.  1.
         21   -1    0    0  501  502 -0.00000000000E+00 -0.00000000000E+00 -0.21566713435E+03  0.21566713435E+03  0.00000000000E+00 0.  1.
      99926    2    1    2    0    0  0.00000000000E+00  0.00000000000E+00  0.23167916299E+02  0.45450218501E+03  0.45391131714E+03 0.  0.
      99925    2    3    3    0    0 -0.41608142620E+02  0.84843022393E+02 -0.45868484209E+02  0.28320388182E+03  0.26300369741E+03 0.  0.
         25    1    3    3    0    0  0.41608142620E+02 -0.84843022393E+02  0.69036400508E+02  0.17129830319E+03  0.12509000000E+03 0.  0.
         25    1    4    4    0    0 -0.30411540502E+01  0.77798944765E+02 -0.12115791799E+02  0.14783850965E+03  0.12509000000E+03 0.  0.
         25    1    4    4    0    0 -0.38566988569E+02  0.70440776278E+01 -0.33752692411E+02  0.13536537217E+03  0.12509000000E+03 0.  0.
<mgrwt>
<rscale>  2 0.45391132E+03</rscale>
<asrwt>0</asrwt>
<pdfrwt beam="1">  1       21 0.35122802E-01 0.45391132E+03</pdfrwt>
<pdfrwt beam="2">  1       21 0.31715755E-01 0.45391132E+03</pdfrwt>
<totfact> 0.69181295E+04</totfact>
</mgrwt>
</event>
<event>
 7    0  0.4709932E-002  0.4560007E+03  0.7546771E-02  0.1025948E+00
         21   -1    0    0  502  501  0.00000000000E+00  0.00000000000E+00  0.22706165191E+03  0.22706165191E+03  0.00000000000E+00 0.  1.
         21   -1    0    0  501  502 -0.00000000000E+00 -0.00000000000E+00 -0.22894291739E+03  0.22894291739E+03  0.00000000000E+00 0.  1.
      99926    2    1    2    0    0  0.22204460493E-15  0.00000000000E+00 -0.18812654770E+01  0.45600456930E+03  0.45600068867E+03 0.  0.
      99925    2    3    3    0    0  0.11595197696E+01 -0.11359313849E+03 -0.10085243579E+02  0.28683140667E+03  0.26318396250E+03 0.  0.
         25    1    4    4    0    0 -0.19295716375E+02 -0.18687508899E+02  0.27139265952E+01  0.12797039172E+03  0.12509000000E+03 0.  0.
         25    1    4    4    0    0  0.20455236145E+02 -0.94905629592E+02 -0.12799170174E+02  0.15886101495E+03  0.12509000000E+03 0.  0.
         25    1    3    3    0    0 -0.11595197696E+01  0.11359313849E+03  0.82039781016E+01  0.16917316263E+03  0.12509000000E+03 0.  0.
<mgrwt>
<rscale>  2 0.45600069E+03</rscale>
<asrwt>0</asrwt>
<pdfrwt beam="1">  1       21 0.33391420E-01 0.45600069E+03</pdfrwt>
<pdfrwt beam="2">  1       21 0.33668076E-01 0.45600069E+03</pdfrwt>
<totfact> 0.67928266E+04</totfact>
</mgrwt>
</event>
<event>
 7    0  0.4709932E-002  0.4467340E+03  0.7546771E-02  0.1028700E+00
         21   -1    0    0  502  501  0.00000000000E+00  0.00000000000E+00  0.19160053967E+03  0.19160053967E+03  0.00000000000E+00 0. -1.
         21   -1    0    0  501  502 -0.00000000000E+00 -0.00000000000E+00 -0.26040023320E+03  0.26040023320E+03  0.00000000000E+00 0. -1.
      99926    2    1    2    0    0  0.00000000000E+00 -0.14210854715E-13 -0.68799693526E+02  0.45200077287E+03  0.44673403816E+03 0.  0.
      99925    2    3    3    0    0  0.68467779493E+02 -0.76162429922E+02 -0.18411174923E+02  0.28266364326E+03  0.26281402416E+03 0.  0.
         25    1    3    3    0    0 -0.68467779493E+02  0.76162429922E+02 -0.50388518603E+02  0.16933712962E+03  0.12509000000E+03 0.  0.
         25    1    4    4    0    0  0.12265739937E+02 -0.52539510572E+02  0.21459845502E+02  0.13790896133E+03  0.12509000000E+03 0.  0.
         25    1    4    4    0    0  0.56202039556E+02 -0.23622919350E+02 -0.39871020425E+02  0.14475468192E+03  0.12509000000E+03 0.  0.
<mgrwt>
<rscale>  2 0.44673404E+03</rscale>
<asrwt>0</asrwt>
<pdfrwt beam="1">  1       21 0.28176550E-01 0.44673404E+03</pdfrwt>
<pdfrwt beam="2">  1       21 0.38294152E-01 0.44673404E+03</pdfrwt>
<totfact> 0.73493864E+04</totfact>
</mgrwt>
</event>
<event>
 7    0  0.4709932E-002  0.4570541E+03  0.7546771E-02  0.1025639E+00
         21   -1    0    0  502  501  0.00000000000E+00  0.00000000000E+00  0.10180203284E+03  0.10180203284E+03  0.00000000000E+00 0. -1.
         21   -1    0    0  501  502 -0.00000000000E+00 -0.00000000000E+00 -0.51300161837E+03  0.51300161837E+03  0.00000000000E+00 0. -1.
      99926    2    1    2    0    0 -0.35527136788E-14  0.00000000000E+00 -0.41119958553E+03  0.61480365121E+03  0.45705407820E+03 0.  0.
      99925    2    3    3    0    0  0.22925764409E+02 -0.11285226391E+03 -0.25815342890E+03  0.38604207598E+03  0.26291456298E+03 0.  0.
         25    1    3    3    0    0 -0.22925764409E+02  0.11285226391E+03 -0.15304615662E+03  0.22876157523E+03  0.12509000000E+03 0.  0.
         25    1    4    4    0    0  0.44593859123E+02 -0.81704164337E+02 -0.13039856216E+03  0.20326208662E+03  0.12509000000E+03 0.  0.
         25    1    4    4    0    0 -0.21668094714E+02 -0.31148099577E+02 -0.12775486674E+03  0.18277998936E+03  0.12509000000E+03 0.  0.
<mgrwt>
<rscale>  2 0.45705408E+03</rscale>
<asrwt>0</asrwt>
<pdfrwt beam="1">  1       21 0.14970887E-01 0.45705408E+03</pdfrwt>
<pdfrwt beam="2">  1       21 0.75441414E-01 0.45705408E+03</pdfrwt>
<totfact> 0.56848324E+04</totfact>
</mgrwt>
</event>
<event>
 7    0  0.4709932E-002  0.4571655E+03  0.7546771E-02  0.1025607E+00
         21   -1    0    0  502  501  0.00000000000E+00  0.00000000000E+00  0.80431467694E+02  0.80431467694E+02  0.00000000000E+00 0. -1.
         21   -1    0    0  501  502 -0.00000000000E+00 -0.00000000000E+00 -0.64962235364E+03  0.64962235364E+03  0.00000000000E+00 0. -1.
      99926    2    1    2    0    0  0.00000000000E+00  0.00000000000E+00 -0.56919088595E+03  0.73005382134E+03  0.45716552517E+03 0.  0.
      99925    2    3    3    0    0  0.10801669258E+03  0.26384361378E+02 -0.40511228998E+03  0.49567584849E+03  0.26308713173E+03 0.  0.
         25    1    4    4    0    0  0.64422927317E+02 -0.87040893027E+01 -0.14845387348E+03  0.20472453538E+03  0.12509000000E+03 0.  0.
         25    1    4    4    0    0  0.43593765259E+02  0.35088450681E+02 -0.25665841650E+03  0.29095131311E+03  0.12509000000E+03 0.  0.
         25    1    3    3    0    0 -0.10801669258E+03 -0.26384361378E+02 -0.16407859597E+03  0.23437797285E+03  0.12509000000E+03 0.  0.
<mgrwt>
<rscale>  2 0.45716553E+03</rscale>
<asrwt>0</asrwt>
<pdfrwt beam="1">  1       21 0.11828157E-01 0.45716553E+03</pdfrwt>
<pdfrwt beam="2">  1       21 0.95532698E-01 0.45716553E+03</pdfrwt>
<totfact> 0.50437075E+04</totfact>
</mgrwt>
</event>
<event>
 7    0  0.4709932E-002  0.4427001E+03  0.7546771E-02  0.1029922E+00
         21   -1    0    0  502  501  0.00000000000E+00  0.00000000000E+00  0.24214702270E+02  0.24214702270E+02  0.00000000000E+00 0.  1.
         21   -1    0    0  501  502 -0.00000000000E+00 -0.00000000000E+00 -0.20233922264E+04  0.20233922264E+04  0.00000000000E+00 0.  1.
      99926    2    1    2    0    0  0.00000000000E+00  0.71054273576E-14 -0.19991775241E+04  0.20476069286E+04  0.44270008058E+03 0.  0.
      99925    2    3    3    0    0 -0.48820189383E+01  0.36434479410E+02 -0.83663261256E+03  0.87777382736E+03  0.26302368373E+03 0.  0.
         25    1    4    4    0    0  0.35539091419E+00 -0.43231039360E+01 -0.29672876941E+03  0.32204702487E+03  0.12509000000E+03 0.  0.
         25    1    3    3    0    0  0.48820189383E+01 -0.36434479410E+02 -0.11625449115E+04  0.11698331013E+04  0.12509000000E+03 0.  0.
         25    1    4    4    0    0 -0.52374098525E+01  0.40757583346E+02 -0.53990384314E+03  0.55572680249E+03  0.12509000000E+03 0.  0.
<mgrwt>
<rscale>  2 0.44270008E+03</rscale>
<asrwt>0</asrwt>
<pdfrwt beam="1">  1       21 0.35609849E-02 0.44270008E+03</pdfrwt>
<pdfrwt beam="2">  1       21 0.29755774E+00 0.44270008E+03</pdfrwt>
<totfact> 0.14262041E+04</totfact>
</mgrwt>
</event>
<event>
 7    0  0.4709932E-002  0.4549264E+03  0.7546771E-02  0.1026263E+00
         21   -1    0    0  502  501  0.00000000000E+00  0.00000000000E+00  0.26318836919E+03  0.26318836919E+03  0.00000000000E+00 0. -1.
         21   -1    0    0  501  502 -0.00000000000E+00 -0.00000000000E+00 -0.19658738080E+03  0.19658738080E+03  0.00000000000E+00 0. -1.
      99926    2    1    2    0    0  0.00000000000E+00 -0.14210854715E-13  0.66600988395E+02  0.45977574999E+03  0.45492642111E+03 0.  0.
      99925    2    3    3    0    0  0.44289034770E+02 -0.97785756188E+02  0.68924588384E+01  0.28445835406E+03  0.26333529291E+03 0.  0.
         25    1    3    3    0    0 -0.44289034770E+02  0.97785756188E+02  0.59708529557E+02  0.17531739593E+03  0.12509000000E+03 0.  0.
         25    1    4    4    0    0  0.11928495051E+02 -0.15883314915E+02  0.28876331584E+02  0.12990734896E+03  0.12509000000E+03 0.  0.
         25    1    4    4    0    0  0.32360539719E+02 -0.81902441273E+02 -0.21983872746E+02  0.15455100510E+03  0.12509000000E+03 0.  0.
<mgrwt>
<rscale>  2 0.45492642E+03</rscale>
<asrwt>0</asrwt>
<pdfrwt beam="1">  1       21 0.38704172E-01 0.45492642E+03</pdfrwt>
<pdfrwt beam="2">  1       21 0.28909909E-01 0.45492642E+03</pdfrwt>
<totfact> 0.68236950E+04</totfact>
</mgrwt>
</event>
<event>
 7    0  0.4709932E-002  0.4568037E+03  0.7546771E-02  0.1025712E+00
         21   -1    0    0  502  501  0.00000000000E+00  0.00000000000E+00  0.10805640445E+04  0.10805640445E+04  0.00000000000E+00 0.  1.
         21   -1    0    0  501  502 -0.00000000000E+00 -0.00000000000E+00 -0.48277936861E+02  0.48277936861E+02  0.00000000000E+00 0.  1.
      99926    2    1    2    0    0  0.00000000000E+00  0.00000000000E+00  0.10322861076E+04  0.11288419814E+04  0.45680368963E+03 0.  0.
      99925    2    3    3    0    0  0.10458067954E+03  0.46945977982E+02  0.63073317708E+03  0.69291388233E+03  0.26299099657E+03 0.  0.
         25    1    4    4    0    0  0.24513004701E+02  0.38130799821E+02  0.36304402052E+03  0.38665658437E+03  0.12509000000E+03 0.  0.
         25    1    4    4    0    0  0.80067674842E+02  0.88151781603E+01  0.26768915656E+03  0.30625729797E+03  0.12509000000E+03 0.  0.
         25    1    3    3    0    0 -0.10458067954E+03 -0.46945977982E+02  0.40155293057E+03  0.43592809904E+03  0.12509000000E+03 0.  0.
<mgrwt>
<rscale>  2 0.45680369E+03</rscale>
<asrwt>0</asrwt>
<pdfrwt beam="1">  1       21 0.15890646E+00 0.45680369E+03</pdfrwt>
<pdfrwt beam="2">  1       21 0.70996973E-02 0.45680369E+03</pdfrwt>
<totfact> 0.34015893E+04</totfact>
</mgrwt>
</event>
<event>
 7    0  0.4709932E-002  0.4526541E+03  0.7546771E-02  0.1026934E+00
         21   -1    0    0  502  501  0.00000000000E+00  0.00000000000E+00  0.87212588161E+02  0.87212588161E+02  0.00000000000E+00 0.  1.
         21   -1    0    0  501  502 -0.00000000000E+00 -0.00000000000E+00 -0.58734569799E+03  0.58734569799E+03  0.00000000000E+00 0.  1.
      99926    2    1    2    0    0  0.00000000000E+00  0.00000000000E+00 -0.50013310983E+03  0.67455828615E+03  0.45265412167E+03 0.  0.
      99925    2    3    3    0    0 -0.27609379634E+02  0.10737724426E+03 -0.31085245838E+03  0.42203734931E+03  0.26304775784E+03 0.  0.
         25    1    4    4    0    0 -0.43055964913E+02  0.60522860844E+02 -0.12007274632E+03  0.18863140064E+03  0.12509000000E+03 0.  0.
         25    1    4    4    0    0  0.15446585280E+02  0.46854383412E+02 -0.19077971205E+03  0.23340594867E+03  0.12509000000E+03 0.  0.
         25    1    3    3    0    0  0.27609379634E+02 -0.10737724426E+03 -0.18928065145E+03  0.25252093684E+03  0.12509000000E+03 0.  0.
<mgrwt>
<rscale>  2 0.45265412E+03</rscale>
<asrwt>0</asrwt>
<pdfrwt beam="1">  1       21 0.12825380E-01 0.45265412E+03</pdfrwt>
<pdfrwt beam="2">  1       21 0.86374372E-01 0.45265412E+03</pdfrwt>
<totfact> 0.55321869E+04</totfact>
</mgrwt>
</event>
<event>
 7    0  0.4709932E-002  0.4576445E+03  0.7546771E-02  0.1025467E+00
         21   -1    0    0  502  501  0.00000000000E+00  0.00000000000E+00  0.52445946307E+03  0.52445946307E+03  0.00000000000E+00 0. -1.
         21   -1    0    0  501  502 -0.00000000000E+00 -0.00000000000E+00 -0.99835385322E+02  0.99835385322E+02  0.00000000000E+00 0. -1.
      99926    2    1    2    0    0  0.00000000000E+00 -0.14210854715E-13  0.42462407775E+03  0.62429484839E+03  0.45764445843E+03 0.  0.
      99925    2    3    3    0    0  0.37474094748E+02  0.10679666073E+03  0.29829308389E+03  0.41354176389E+03  0.26311250837E+03 0.  0.
         25    1    3    3    0    0 -0.37474094748E+02 -0.10679666073E+03  0.12633099386E+03  0.21075308451E+03  0.12509000000E+03 0.  0.
         25    1    4    4    0    0  0.56218142668E+02  0.37483517205E+02  0.14579647196E+03  0.20364089217E+03  0.12509000000E+03 0.  0.
         25    1    4    4    0    0 -0.18744047920E+02  0.69313143525E+02  0.15249661193E+03  0.20990087172E+03  0.12509000000E+03 0.  0.
<mgrwt>
<rscale>  2 0.45764446E+03</rscale>
<asrwt>0</asrwt>
<pdfrwt beam="1">  1       21 0.77126390E-01 0.45764446E+03</pdfrwt>
<pdfrwt beam="2">  1       21 0.14681675E-01 0.45764446E+03</pdfrwt>
<totfact> 0.56028188E+04</totfact>
</mgrwt>
</event>
<event>
 7    0  0.4709932E-002  0.4537938E+03  0.7546771E-02  0.1026597E+00
         21   -1    0    0  502  501  0.00000000000E+00  0.00000000000E+00  0.20835447150E+03  0.20835447150E+03  0.00000000000E+00 0. -1.
         21   -1    0    0  501  502 -0.00000000000E+00 -0.00000000000E+00 -0.24708953643E+03  0.24708953643E+03  0.00000000000E+00 0. -1.
      99926    2    1    2    0    0  0.00000000000E+00 -0.14210854715E-13 -0.38735064926E+02  0.45544400793E+03  0.45379382885E+03 0.  0.
      99925    2    3    3    0    0  0.20460290081E+02  0.10276427497E+03 -0.64247049809E+02  0.29028502648E+03  0.26298021505E+03 0.  0.
         25    1    4    4    0    0  0.29873705692E+02  0.84227922093E+02 -0.54485108024E+02  0.16310400439E+03  0.12509000000E+03 0.  0.
         25    1    4    4    0    0 -0.94134156106E+01  0.18536352879E+02 -0.97619417845E+01  0.12718102209E+03  0.12509000000E+03 0.  0.
         25    1    3    3    0    0 -0.20460290081E+02 -0.10276427497E+03  0.25511984883E+02  0.16515898145E+03  0.12509000000E+03 0.  0.
<mgrwt>
<rscale>  2 0.45379383E+03</rscale>
<asrwt>0</asrwt>
<pdfrwt beam="1">  1       21 0.30640364E-01 0.45379383E+03</pdfrwt>
<pdfrwt beam="2">  1       21 0.36336696E-01 0.45379383E+03</pdfrwt>
<totfact> 0.69176641E+04</totfact>
</mgrwt>
</event>
<event>
 7    0  0.4709932E-002  0.4565071E+03  0.7546771E-02  0.1025799E+00
         21   -1    0    0  502  501  0.00000000000E+00  0.00000000000E+00  0.35519835827E+03  0.35519835827E+03  0.00000000000E+00 0. -1.
         21   -1    0    0  501  502 -0.00000000000E+00 -0.00000000000E+00 -0.14667769163E+03  0.14667769163E+03  0.00000000000E+00 0. -1.
      99926    2    1    2    0    0  0.71054273576E-14  0.71054273576E-14  0.20852066664E+03  0.50187604990E+03  0.45650706571E+03 0.  0.
      99925    2    3    3    0    0 -0.55317505008E+02 -0.33187102235E+02  0.23510417433E+03  0.35864336824E+03  0.26303931774E+03 0.  0.
         25    1    3    3    0    0  0.55317505008E+02  0.33187102235E+02 -0.26583507695E+02  0.14323268166E+03  0.12509000000E+03 0.  0.
         25    1    4    4    0    0 -0.53629717715E+02 -0.42040644634E+02  0.15130857088E+03  0.20781086147E+03  0.12509000000E+03 0.  0.
         25    1    4    4    0    0 -0.16877872928E+01  0.88535423990E+01  0.83795603452E+02  0.15083250676E+03  0.12509000000E+03 0.  0.
<mgrwt>
<rscale>  2 0.45650707E+03</rscale>
<asrwt>0</asrwt>
<pdfrwt beam="1">  1       21 0.52235053E-01 0.45650707E+03</pdfrwt>
<pdfrwt beam="2">  1       21 0.21570249E-01 0.45650707E+03</pdfrwt>
<totfact> 0.64365608E+04</totfact>
</mgrwt>
</event>
<event>
 7    0  0.4709932E-002  0.4568209E+03  0.7546771E-02  0.1025707E+00
         21   -1    0    0  502  501  0.00000000000E+00  0.00000000000E+00  0.98270513898E+03  0.98270513898E+03  0.00000000000E+00 0. -1.
         21   -1    0    0  501  502 -0.00000000000E+00 -0.00000000000E+00 -0.53089508628E+02  0.53089508628E+02  0.00000000000E+00 0. -1.
      99926    2    1    2    0    0  0.00000000000E+00  0.00000000000E+00  0.92961563035E+03  0.10357946476E+04  0.45682089687E+03 0.  0.
      99925    2    3    3    0    0  0.98192361381E+02 -0.54582791378E+02  0.63772881115E+03  0.69894684181E+03  0.26307343111E+03 0.  0.
         25    1    3    3    0    0 -0.98192361381E+02  0.54582791378E+02  0.29188681920E+03  0.33684780580E+03  0.12509000000E+03 0.  0.
         25    1    4    4    0    0  0.56778968585E+02 -0.25928240376E+02  0.42187369692E+03  0.44443340241E+03  0.12509000000E+03 0.  0.
         25    1    4    4    0    0  0.41413392796E+02 -0.28654551002E+02  0.21585511423E+03  0.25451343940E+03  0.12509000000E+03 0.  0.
<mgrwt>
<rscale>  2 0.45682090E+03</rscale>
<asrwt>0</asrwt>
<pdfrwt beam="1">  1       21 0.14451545E+00 0.45682090E+03</pdfrwt>
<pdfrwt beam="2">  1       21 0.78072813E-02 0.45682090E+03</pdfrwt>
<totfact> 0.37270378E+04</totfact>
</mgrwt>
</event>
<event>
 7    0  0.4709932E-002  0.4531929E+03  0.7546771E-02  0.1026774E+00
         21   -1    0    0  502  501  0.00000000000E+00  0.00000000000E+00  0.22187145489E+03  0.22187145489E+03  0.00000000000E+00 0.  1.
         21   -1    0    0  501  502 -0.00000000000E+00 -0.00000000000E+00 -0.23142208213E+03  0.23142208213E+03  0.00000000000E+00 0.  1.
      99926    2    1    2    0    0  0.35527136788E-14 -0.14210854715E-13 -0.95506272441E+01  0.45329353702E+03  0.45319291281E+03 0.  0.
      99925    2    3    3    0    0  0.23982505452E+02 -0.10264970273E+03 -0.42205963600E+02  0.28648226302E+03  0.26301829143E+03 0.  0.
         25    1    4    4    0    0 -0.24046026217E+02 -0.53343136664E+02 -0.18492208033E+01  0.13811093122E+03  0.12509000000E+03 0.  0.
         25    1    4    4    0    0  0.48028531668E+02 -0.49306566063E+02 -0.40356742797E+02  0.14837133180E+03  0.12509000000E+03 0.  0.
         25    1    3    3    0    0 -0.23982505452E+02  0.10264970273E+03  0.32655336356E+02  0.16681127399E+03  0.12509000000E+03 0.  0.
<mgrwt>
<rscale>  2 0.45319291E+03</rscale>
<asrwt>0</asrwt>
<pdfrwt beam="1">  1       21 0.32628155E-01 0.45319291E+03</pdfrwt>
<pdfrwt beam="2">  1       21 0.34032659E-01 0.45319291E+03</pdfrwt>
<totfact> 0.69670134E+04</totfact>
</mgrwt>
</event>
<event>
 7    0  0.4709932E-002  0.4495203E+03  0.7546771E-02  0.1027865E+00
         21   -1    0    0  502  501  0.00000000000E+00  0.00000000000E+00  0.40684877022E+03  0.40684877022E+03  0.00000000000E+00 0.  1.
         21   -1    0    0  501  502 -0.00000000000E+00 -0.00000000000E+00 -0.12416685352E+03  0.12416685352E+03  0.00000000000E+00 0.  1.
      99926    2    1    2    0    0  0.00000000000E+00  0.00000000000E+00  0.28268191670E+03  0.53101562375E+03  0.44952032950E+03 0.  0.
      99925    2    3    3    0    0 -0.30825534593E+02  0.16595463728E+02  0.59288603454E+02  0.27260180155E+03  0.26376311477E+03 0.  0.
         25    1    4    4    0    0 -0.45405198142E+02  0.32926424188E+02  0.14107127421E+02  0.13781255593E+03  0.12509000000E+03 0.  0.
         25    1    3    3    0    0  0.30825534593E+02 -0.16595463728E+02  0.22339331325E+03  0.25841382220E+03  0.12509000000E+03 0.  0.
         25    1    4    4    0    0  0.14579663549E+02 -0.16330960460E+02  0.45181476033E+02  0.13478924562E+03  0.12509000000E+03 0.  0.
<mgrwt>
<rscale>  2 0.44952033E+03</rscale>
<asrwt>0</asrwt>
<pdfrwt beam="1">  1       21 0.59830701E-01 0.44952033E+03</pdfrwt>
<pdfrwt beam="2">  1       21 0.18259832E-01 0.44952033E+03</pdfrwt>
<totfact> 0.65953233E+04</totfact>
</mgrwt>
</event>
<event>
 7    0  0.4709932E-002  0.4486021E+03  0.7546771E-02  0.1028140E+00
         21   -1    0    0  502  501  0.00000000000E+00  0.00000000000E+00  0.10605102749E+04  0.10605102749E+04  0.00000000000E+00 0.  1.
         21   -1    0    0  501  502 -0.00000000000E+00 -0.00000000000E+00 -0.47440326117E+02  0.47440326117E+02  0.00000000000E+00 0.  1.
      99926    2    1    2    0    0  0.00000000000E+00  0.00000000000E+00  0.10130699488E+04  0.11079506010E+04  0.44860206550E+03 0.  0.
      99925    2    3    3    0    0 -0.15972995377E+02 -0.54317041329E+01  0.90231794761E+03  0.94002754169E+03  0.26303889551E+03 0.  0.
         25    1    4    4    0    0 -0.45303839216E+02 -0.59364542056E+00  0.51600095675E+03  0.53287642632E+03  0.12509000000E+03 0.  0.
         25    1    3    3    0    0  0.15972995377E+02  0.54317041329E+01  0.11075200116E+03  0.16792305932E+03  0.12509000000E+03 0.  0.
         25    1    4    4    0    0  0.29330843840E+02 -0.48380587123E+01  0.38631699086E+03  0.40715111536E+03  0.12509000000E+03 0.  0.
<mgrwt>
<rscale>  2 0.44860207E+03</rscale>
<asrwt>0</asrwt>
<pdfrwt beam="1">  1       21 0.15595738E+00 0.44860207E+03</pdfrwt>
<pdfrwt beam="2">  1       21 0.69765192E-02 0.44860207E+03</pdfrwt>
<totfact> 0.37030741E+04</totfact>
</mgrwt>
</event>
<event>
 7    0  0.4709932E-002  0.4516026E+03  0.7546771E-02  0.1027245E+00
         21   -1    0    0  502  501  0.00000000000E+00  0.00000000000E+00  0.11008359845E+03  0.11008359845E+03  0.00000000000E+00 0.  1.
         21   -1    0    0  501  502 -0.00000000000E+00 -0.00000000000E+00 -0.46315907101E+03  0.46315907101E+03  0.00000000000E+00 0.  1.
      99926    2    1    2    0    0  0.00000000000E+00  0.00000000000E+00 -0.35307547256E+03  0.57324266946E+03  0.45160255620E+03 0.  0.
      99925    2    3    3    0    0 -0.20118030715E+02 -0.85024468795E+02 -0.30795798234E+03  0.41412952896E+03  0.26273799196E+03 0.  0.
         25    1    3    3    0    0  0.20118030715E+02  0.85024468795E+02 -0.45117490215E+02  0.15911314049E+03  0.12509000000E+03 0.  0.
         25    1    4    4    0    0 -0.10769540734E+01 -0.28962277258E+02 -0.93281389671E+02  0.15871011024E+03  0.12509000000E+03 0.  0.
         25    1    4    4    0    0 -0.19041076642E+02 -0.56062191537E+02 -0.21467659267E+03  0.25541941872E+03  0.12509000000E+03 0.  0.
<mgrwt>
<rscale>  2 0.45160256E+03</rscale>
<asrwt>0</asrwt>
<pdfrwt beam="1">  1       21 0.16188765E-01 0.45160256E+03</pdfrwt>
<pdfrwt beam="2">  1       21 0.68111627E-01 0.45160256E+03</pdfrwt>
<totfact> 0.62005225E+04</totfact>
</mgrwt>
</event>
<event>
 7    0  0.4709932E-002  0.4390828E+03  0.7546771E-02  0.1031029E+00
         21   -1    0    0  502  501  0.00000000000E+00  0.00000000000E+00  0.12368028941E+04  0.12368028941E+04  0.00000000000E+00 0. -1.
         21   -1    0    0  501  502 -0.00000000000E+00 -0.00000000000E+00 -0.38970177116E+02  0.38970177116E+02  0.00000000000E+00 0. -1.
      99926    2    1    2    0    0  0.44408920985E-15 -0.14210854715E-13  0.11978327170E+04  0.12757730712E+04  0.43908280695E+03 0.  0.
      99925    2    3    3    0    0  0.34801061747E+01 -0.75373681546E+02  0.94475807166E+03  0.98356152590E+03  0.26292994933E+03 0.  0.
         25    1    3    3    0    0 -0.34801061747E+01  0.75373681546E+02  0.25307464531E+03  0.29221154530E+03  0.12509000000E+03 0.  0.
         25    1    4    4    0    0 -0.29969061503E+02 -0.11775643230E+02  0.43213738711E+03  0.45102886810E+03  0.12509000000E+03 0.  0.
         25    1    4    4    0    0  0.33449167678E+02 -0.63598038316E+02  0.51262068455E+03  0.53253265780E+03  0.12509000000E+03 0.  0.
<mgrwt>
<rscale>  2 0.43908281E+03</rscale>
<asrwt>0</asrwt>
<pdfrwt beam="1">  1       21 0.18188275E+00 0.43908281E+03</pdfrwt>
<pdfrwt beam="2">  1       21 0.57309092E-02 0.43908281E+03</pdfrwt>
<totfact> 0.33824668E+04</totfact>
</mgrwt>
</event>
<event>
 7    0  0.4709932E-002  0.4282512E+03  0.7546771E-02  0.1034414E+00
         21   -1    0    0  502  501  0.00000000000E+00  0.00000000000E+00  0.17904599465E+03  0.17904599465E+03  0.00000000000E+00 0.  1.
         21   -1    0    0  501  502 -0.00000000000E+00 -0.00000000000E+00 -0.25607815765E+03  0.25607815765E+03  0.00000000000E+00 0.  1.
      99926    2    1    2    0    0  0.00000000000E+00 -0.71054273576E-14 -0.77032162996E+02  0.43512415230E+03  0.42825118071E+03 0.  0.
      99925    2    3    3    0    0  0.68449046013E+02  0.50929221713E+02 -0.33751462275E+02  0.27764467846E+03  0.26204646296E+03 0.  0.
         25    1    4    4    0    0 -0.43490318351E+00  0.39115210001E+01 -0.11797663288E+02  0.12570673051E+03  0.12509000000E+03 0.  0.
         25    1    3    3    0    0 -0.68449046013E+02 -0.50929221713E+02 -0.43280700721E+02  0.15747947383E+03  0.12509000000E+03 0.  0.
         25    1    4    4    0    0  0.68883949196E+02  0.47017700713E+02 -0.21953798987E+02  0.15193794795E+03  0.12509000000E+03 0.  0.
<mgrwt>
<rscale>  2 0.42825118E+03</rscale>
<asrwt>0</asrwt>
<pdfrwt beam="1">  1       21 0.26330293E-01 0.42825118E+03</pdfrwt>
<pdfrwt beam="2">  1       21 0.37658553E-01 0.42825118E+03</pdfrwt>
<totfact> 0.87195540E+04</totfact>
</mgrwt>
</event>
<event>
 7    0  0.4709932E-002  0.4572351E+03  0.7546771E-02  0.1025586E+00
         21   -1    0    0  502  501  0.00000000000E+00  0.00000000000E+00  0.34556695446E+02  0.34556695446E+02  0.00000000000E+00 0.  1.
         21   -1    0    0  501  502 -0.00000000000E+00 -0.00000000000E+00 -0.15124704459E+04  0.15124704459E+04  0.00000000000E+00 0.  1.
      99926    2    1    2    0    0  0.00000000000E+00  0.00000000000E+00 -0.14779137504E+04  0.15470271413E+04  0.45723508426E+03 0.  0.
      99925    2    3    3    0    0  0.45153298137E+02 -0.18190955717E+02 -0.57425083119E+03  0.63344960717E+03  0.26291568324E+03 0.  0.
         25    1    4    4    0    0  0.16828841796E+01 -0.25274632296E+02 -0.20923000155E+03  0.24508435443E+03  0.12509000000E+03 0.  0.
         25    1    4    4    0    0  0.43470413958E+02  0.70836765781E+01 -0.36502082964E+03  0.38836525274E+03  0.12509000000E+03 0.  0.
         25    1    3    3    0    0 -0.45153298137E+02  0.18190955717E+02 -0.90366291924E+03  0.91357753415E+03  0.12509000000E+03 0.  0.
<mgrwt>
<rscale>  2 0.45723508E+03</rscale>
<asrwt>0</asrwt>
<pdfrwt beam="1">  1       21 0.50818670E-02 0.45723508E+03</pdfrwt>
<pdfrwt beam="2">  1       21 0.22242212E+00 0.45723508E+03</pdfrwt>
<totfact> 0.22260834E+04</totfact>
</mgrwt>
</event>
<event>
 7    0  0.4709932E-002  0.4530764E+03  0.7546771E-02  0.1026809E+00
         21   -1    0    0  502  501  0.00000000000E+00  0.00000000000E+00  0.68052226864E+02  0.68052226864E+02  0.00000000000E+00 0. -1.
         21   -1    0    0  501  502 -0.00000000000E+00 -0.00000000000E+00 -0.75412003572E+03  0.75412003572E+03  0.00000000000E+00 0. -1.
      99926    2    1    2    0    0 -0.71054273576E-14  0.71054273576E-14 -0.68606780886E+03  0.82217226259E+03  0.45307636334E+03 0.  0.
      99925    2    3    3    0    0 -0.36327095849E+02  0.34824222675E+02 -0.61284081193E+03  0.66873795887E+03  0.26287680097E+03 0.  0.
         25    1    4    4    0    0 -0.18526915958E+02 -0.12503395768E+01 -0.21138077470E+03  0.24632123331E+03  0.12509000000E+03 0.  0.
         25    1    3    3    0    0  0.36327095849E+02 -0.34824222675E+02 -0.73226996931E+02  0.15343430372E+03  0.12509000000E+03 0.  0.
         25    1    4    4    0    0 -0.17800179891E+02  0.36074562252E+02 -0.40146003723E+03  0.42241672556E+03  0.12509000000E+03 0.  0.
<mgrwt>
<rscale>  2 0.45307636E+03</rscale>
<asrwt>0</asrwt>
<pdfrwt beam="1">  1       21 0.10007680E-01 0.45307636E+03</pdfrwt>
<pdfrwt beam="2">  1       21 0.11090001E+00 0.45307636E+03</pdfrwt>
<totfact> 0.47422746E+04</totfact>
</mgrwt>
</event>
<event>
 7    0  0.4709932E-002  0.4750884E+03  0.7546771E-02  0.1020494E+00
         21   -1    0    0  502  501  0.00000000000E+00  0.00000000000E+00  0.10739350809E+03  0.10739350809E+03  0.00000000000E+00 0. -1.
         21   -1    0    0  501  502 -0.00000000000E+00 -0.00000000000E+00 -0.52542502204E+03  0.52542502204E+03  0.00000000000E+00 0. -1.
      99926    2    1    2    0    0  0.00000000000E+00  0.00000000000E+00 -0.41803151395E+03  0.63281853012E+03  0.47508835537E+03 0.  0.
      99925    2    3    3    0    0  0.35761197672E+02 -0.33972169088E+02 -0.96774357184E+02  0.28455621461E+03  0.26300948944E+03 0.  0.
         25    1    4    4    0    0  0.90036779697E+01 -0.49567600246E+02 -0.73570564220E+02  0.15361689110E+03  0.12509000000E+03 0.  0.
         25    1    3    3    0    0 -0.35761197672E+02  0.33972169088E+02 -0.32125715677E+03  0.34826231551E+03  0.12509000000E+03 0.  0.
         25    1    4    4    0    0  0.26757519702E+02  0.15595431158E+02 -0.23203792964E+02  0.13093932351E+03  0.12509000000E+03 0.  0.
<mgrwt>
<rscale>  2 0.47508836E+03</rscale>
<asrwt>0</asrwt>
<pdfrwt beam="1">  1       21 0.15793163E-01 0.47508836E+03</pdfrwt>
<pdfrwt beam="2">  1       21 0.77268384E-01 0.47508836E+03</pdfrwt>
<totfact> 0.48534994E+04</totfact>
</mgrwt>
</event>
<event>
 7    0  0.4709932E-002  0.4600553E+03  0.7546771E-02  0.1024765E+00
         21   -1    0    0  502  501  0.00000000000E+00  0.00000000000E+00  0.10380293665E+04  0.10380293665E+04  0.00000000000E+00 0. -1.
         21   -1    0    0  501  502 -0.00000000000E+00 -0.00000000000E+00 -0.50974207934E+02  0.50974207934E+02  0.00000000000E+00 0. -1.
      99926    2    1    2    0    0 -0.14210854715E-13  0.00000000000E+00  0.98705515856E+03  0.10890035744E+04  0.46005532176E+03 0.  0.
      99925    2    3    3    0    0 -0.11080857218E+03 -0.35306924187E+02  0.66310338359E+03  0.72278317744E+03  0.26302909668E+03 0.  0.
         25    1    3    3    0    0  0.11080857218E+03  0.35306924187E+02  0.32395177497E+03  0.36622039698E+03  0.12509000000E+03 0.  0.
         25    1    4    4    0    0 -0.15821638729E+02 -0.33695169698E+02  0.30324402134E+03  0.33013653735E+03  0.12509000000E+03 0.  0.
         25    1    4    4    0    0 -0.94986933446E+02 -0.16117544885E+01  0.35985936225E+03  0.39264664010E+03  0.12509000000E+03 0.  0.
<mgrwt>
<rscale>  2 0.46005532E+03</rscale>
<asrwt>0</asrwt>
<pdfrwt beam="1">  1       21 0.15265136E+00 0.46005532E+03</pdfrwt>
<pdfrwt beam="2">  1       21 0.74962077E-02 0.46005532E+03</pdfrwt>
<totfact> 0.34497057E+04</totfact>
</mgrwt>
</event>
<event>
 7    0  0.4709932E-002  0.4473109E+03  0.7546771E-02  0.1028527E+00
         21   -1    0    0  502  501  0.00000000000E+00  0.00000000000E+00  0.83091300289E+03  0.83091300289E+03  0.00000000000E+00 0.  1.
         21   -1    0    0  501  502 -0.00000000000E+00 -0.00000000000E+00 -0.60200950057E+02  0.60200950057E+02  0.00000000000E+00 0.  1.
      99926    2    1    2    0    0 -0.14210854715E-13 -0.17763568394E-14  0.77071205283E+03  0.89111395295E+03  0.44731086367E+03 0.  0.
      99925    2    3    3    0    0  0.92596933668E+02  0.15680426287E+02  0.39108352499E+03  0.48052243435E+03  0.26293614909E+03 0.  0.
         25    1    4    4    0    0  0.56771801797E+02 -0.46976594321E+01  0.13555360785E+03  0.19304764745E+03  0.12509000000E+03 0.  0.
         25    1    3    3    0    0 -0.92596933668E+02 -0.15680426287E+02  0.37962852784E+03  0.41059151860E+03  0.12509000000E+03 0.  0.
         25    1    4    4    0    0  0.35825131871E+02  0.20378085719E+02  0.25552991714E+03  0.28747478690E+03  0.12509000000E+03 0.  0.
<mgrwt>
<rscale>  2 0.44731086E+03</rscale>
<asrwt>0</asrwt>
<pdfrwt beam="1">  1       21 0.12219308E+00 0.44731086E+03</pdfrwt>
<pdfrwt beam="2">  1       21 0.88530813E-02 0.44731086E+03</pdfrwt>
<totfact> 0.46348074E+04</totfact>
</mgrwt>
</event>
<event>
 7    0  0.4709932E-002  0.4554697E+03  0.7546771E-02  0.1026103E+00
         21   -1    0    0  502  501  0.00000000000E+00  0.00000000000E+00  0.49469792178E+02  0.49469792178E+02  0.00000000000E+00 0. -1.
         21   -1    0    0  501  502 -0.00000000000E+00 -0.00000000000E+00 -0.10483806381E+04  0.10483806381E+04  0.00000000000E+00 0. -1.
      99926    2    1    2    0    0  0.38857805862E-15  0.00000000000E+00 -0.99891084589E+03  0.10978504302E+04  0.45546974560E+03 0.  0.
      99925    2    3    3    0    0  0.34698542052E+00 -0.11342184846E+03 -0.61711360422E+03  0.68038033796E+03  0.26310372035E+03 0.  0.
         25    1    4    4    0    0 -0.15695057299E+02 -0.64505183328E+02 -0.40258259813E+03  0.42676399792E+03  0.12509000000E+03 0.  0.
         25    1    4    4    0    0  0.16042042719E+02 -0.48916665135E+02 -0.21453100608E+03  0.25361634004E+03  0.12509000000E+03 0.  0.
         25    1    3    3    0    0 -0.34698542052E+00  0.11342184846E+03 -0.38179724167E+03  0.41747009229E+03  0.12509000000E+03 0.  0.
<mgrwt>
<rscale>  2 0.45546975E+03</rscale>
<asrwt>0</asrwt>
<pdfrwt beam="1">  1       21 0.72749696E-02 0.45546975E+03</pdfrwt>
<pdfrwt beam="2">  1       21 0.15417362E+00 0.45546975E+03</pdfrwt>
<totfact> 0.35438831E+04</totfact>
</mgrwt>
</event>
<event>
 7    0  0.4709932E-002  0.4517626E+03  0.7546771E-02  0.1027198E+00
         21   -1    0    0  502  501  0.00000000000E+00  0.00000000000E+00  0.50741183115E+02  0.50741183115E+02  0.00000000000E+00 0.  1.
         21   -1    0    0  501  502 -0.00000000000E+00 -0.00000000000E+00 -0.10055414676E+04  0.10055414676E+04  0.00000000000E+00 0.  1.
      99926    2    1    2    0    0  0.17763568394E-14  0.14210854715E-13 -0.95480028448E+03  0.10562826507E+04  0.45176260906E+03 0.  0.
      99925    2    3    3    0    0  0.81488790608E+01  0.82551553212E+02 -0.43341596100E+03  0.51372363637E+03  0.26302360379E+03 0.  0.
         25    1    4    4    0    0  0.43292303455E+02  0.42472719991E+02 -0.23868799310E+03  0.27622024117E+03  0.12509000000E+03 0.  0.
         25    1    4    4    0    0 -0.35143424394E+02  0.40078833221E+02 -0.19472796790E+03  0.23750339521E+03  0.12509000000E+03 0.  0.
         25    1    3    3    0    0 -0.81488790608E+01 -0.82551553212E+02 -0.52138432348E+03  0.54255901434E+03  0.12509000000E+03 0.  0.
<mgrwt>
<rscale>  2 0.45176261E+03</rscale>
<asrwt>0</asrwt>
<pdfrwt beam="1">  1       21 0.74619387E-02 0.45176261E+03</pdfrwt>
<pdfrwt beam="2">  1       21 0.14787374E+00 0.45176261E+03</pdfrwt>
<totfact> 0.37998767E+04</totfact>
</mgrwt>
</event>
<event>
 7    0  0.4709932E-002  0.4527975E+03  0.7546771E-02  0.1026891E+00
         21   -1    0    0  502  501  0.00000000000E+00  0.00000000000E+00  0.12591670401E+03  0.12591670401E+03  0.00000000000E+00 0. -1.
         21   -1    0    0  501  502 -0.00000000000E+00 -0.00000000000E+00 -0.40706585686E+03  0.40706585686E+03  0.00000000000E+00 0. -1.
      99926    2    1    2    0    0  0.00000000000E+00  0.00000000000E+00 -0.28114915285E+03  0.53298256088E+03  0.45279748680E+03 0.  0.
      99925    2    3    3    0    0  0.37292642418E+02 -0.72862386396E+02 -0.26572907631E+03  0.38269964305E+03  0.26295894406E+03 0.  0.
         25    1    3    3    0    0 -0.37292642418E+02  0.72862386396E+02 -0.15420076536E+02  0.15028291783E+03  0.12509000000E+03 0.  0.
         25    1    4    4    0    0 -0.14738412516E+02 -0.53967964503E+02 -0.15346251178E+03  0.20573772775E+03  0.12509000000E+03 0.  0.
         25    1    4    4    0    0  0.52031054933E+02 -0.18894421892E+02 -0.11226656453E+03  0.17696191530E+03  0.12509000000E+03 0.  0.
<mgrwt>
<rscale>  2 0.45279749E+03</rscale>
<asrwt>0</asrwt>
<pdfrwt beam="1">  1       21 0.18517163E-01 0.45279749E+03</pdfrwt>
<pdfrwt beam="2">  1       21 0.59862625E-01 0.45279749E+03</pdfrwt>
<totfact> 0.64115714E+04</totfact>
</mgrwt>
</event>
<event>
 7    0  0.4709932E-002  0.4624993E+03  0.7546771E-02  0.1024059E+00
         21   -1    0    0  502  501  0.00000000000E+00  0.00000000000E+00  0.12600317384E+03  0.12600317384E+03  0.00000000000E+00 0.  1.
         21   -1    0    0  501  502 -0.00000000000E+00 -0.00000000000E+00 -0.42440514916E+03  0.42440514916E+03  0.00000000000E+00 0.  1.
      99926    2    1    2    0    0  0.00000000000E+00  0.00000000000E+00 -0.29840197531E+03  0.55040832300E+03  0.46249927909E+03 0.  0.
      99925    2    3    3    0    0 -0.76139674876E+02  0.13008737215E+02 -0.76637043172E+02  0.28433752310E+03  0.26269395372E+03 0.  0.
         25    1    4    4    0    0 -0.17883506614E+00  0.76680761979E+01 -0.18093038034E+02  0.12662423741E+03  0.12509000000E+03 0.  0.
         25    1    3    3    0    0  0.76139674876E+02 -0.13008737215E+02 -0.22176493214E+03  0.26607079991E+03  0.12509000000E+03 0.  0.
         25    1    4    4    0    0 -0.75960839810E+02  0.53406610172E+01 -0.58544005138E+02  0.15771328569E+03  0.12509000000E+03 0.  0.
<mgrwt>
<rscale>  2 0.46249928E+03</rscale>
<asrwt>0</asrwt>
<pdfrwt beam="1">  1       21 0.18529879E-01 0.46249928E+03</pdfrwt>
<pdfrwt beam="2">  1       21 0.62412522E-01 0.46249928E+03</pdfrwt>
<totfact> 0.58302433E+04</totfact>
</mgrwt>
</event>
<event>
 7    0  0.4709932E-002  0.4526570E+03  0.7546771E-02  0.1026933E+00
         21   -1    0    0  502  501  0.00000000000E+00  0.00000000000E+00  0.93649612518E+03  0.93649612518E+03  0.00000000000E+00 0.  1.
         21   -1    0    0  501  502 -0.00000000000E+00 -0.00000000000E+00 -0.54698125529E+02  0.54698125529E+02  0.00000000000E+00 0.  1.
      99926    2    1    2    0    0  0.35527136788E-14  0.00000000000E+00  0.88179799965E+03  0.99119425071E+03  0.45265696775E+03 0.  0.
      99925    2    3    3    0    0  0.10494010982E+02  0.19506488940E+02  0.79423216491E+03  0.83690260838E+03  0.26288898183E+03 0.  0.
         25    1    4    4    0    0 -0.28838483053E+02 -0.79294460790E+01  0.34863006569E+03  0.37159785390E+03  0.12509000000E+03 0.  0.
         25    1    3    3    0    0 -0.10494010982E+02 -0.19506488940E+02  0.87565834740E+02  0.15429164232E+03  0.12509000000E+03 0.  0.
         25    1    4    4    0    0  0.39332494034E+02  0.27435935019E+02  0.44560209921E+03  0.46530475448E+03  0.12509000000E+03 0.  0.
<mgrwt>
<rscale>  2 0.45265697E+03</rscale>
<asrwt>0</asrwt>
<pdfrwt beam="1">  1       21 0.13772001E+00 0.45265697E+03</pdfrwt>
<pdfrwt beam="2">  1       21 0.80438426E-02 0.45265697E+03</pdfrwt>
<totfact> 0.40242451E+04</totfact>
</mgrwt>
</event>
<event>
 7    0  0.4709932E-002  0.4486273E+03  0.7546771E-02  0.1028132E+00
         21   -1    0    0  502  501  0.00000000000E+00  0.00000000000E+00  0.59307821888E+03  0.59307821888E+03  0.00000000000E+00 0. -1.
         21   -1    0    0  501  502 -0.00000000000E+00 -0.00000000000E+00 -0.84839759218E+02  0.84839759218E+02  0.00000000000E+00 0. -1.
      99926    2    1    2    0    0  0.00000000000E+00  0.00000000000E+00  0.50823845966E+03  0.67791797810E+03  0.44862729871E+03 0.  0.
      99925    2    3    3    0    0  0.41314244126E+02  0.37940791881E+02  0.18417051498E+03  0.32604596823E+03  0.26313651278E+03 0.  0.
         25    1    4    4    0    0  0.63027854881E+01 -0.19718495908E+02  0.81629835516E+02  0.15079616153E+03  0.12509000000E+03 0.  0.
         25    1    3    3    0    0 -0.41314244126E+02 -0.37940791881E+02  0.32406794468E+03  0.35187200987E+03  0.12509000000E+03 0.  0.
         25    1    4    4    0    0  0.35011458638E+02  0.57659287789E+02  0.10254067946E+03  0.17524980670E+03  0.12509000000E+03 0.  0.
<mgrwt>
<rscale>  2 0.44862730E+03</rscale>
<asrwt>0</asrwt>
<pdfrwt beam="1">  1       21 0.87217383E-01 0.44862730E+03</pdfrwt>
<pdfrwt beam="2">  1       21 0.12476436E-01 0.44862730E+03</pdfrwt>
<totfact> 0.56921981E+04</totfact>
</mgrwt>
</event>
<event>
 7    0  0.4709932E-002  0.3995541E+03  0.7546771E-02  0.1043934E+00
         21   -1    0    0  502  501  0.00000000000E+00  0.00000000000E+00  0.50579756628E+03  0.50579756628E+03  0.00000000000E+00 0.  1.
         21   -1    0    0  501  502 -0.00000000000E+00 -0.00000000000E+00 -0.78906807714E+02  0.78906807714E+02  0.00000000000E+00 0.  1.
      99926    2    1    2    0    0 -0.35527136788E-14 -0.35527136788E-14  0.42689075857E+03  0.58470437399E+03  0.39955410800E+03 0.  0.
      99925    2    3    3    0    0 -0.18815318190E+02  0.86691851921E+01  0.34279109521E+03  0.43255499855E+03  0.26299984952E+03 0.  0.
         25    1    4    4    0    0  0.62470135888E+01 -0.31876041961E+02  0.15252206462E+03  0.19991397032E+03  0.12509000000E+03 0.  0.
         25    1    4    4    0    0 -0.25062331778E+02  0.40545227153E+02  0.19026903059E+03  0.23264102824E+03  0.12509000000E+03 0.  0.
         25    1    3    3    0    0  0.18815318190E+02 -0.86691851921E+01  0.84099663354E+02  0.15214937544E+03  0.12509000000E+03 0.  0.
<mgrwt>
<rscale>  2 0.39955411E+03</rscale>
<asrwt>0</asrwt>
<pdfrwt beam="1">  1       21 0.74381994E-01 0.39955411E+03</pdfrwt>
<pdfrwt beam="2">  1       21 0.11603943E-01 0.39955411E+03</pdfrwt>
<totfact> 0.94836872E+04</totfact>
</mgrwt>
</event>
<event>
 7    0  0.4709932E-002  0.4517381E+03  0.7546771E-02  0.1027205E+00
         21   -1    0    0  502  501  0.00000000000E+00  0.00000000000E+00  0.89925511083E+02  0.89925511083E+02  0.00000000000E+00 0.  1.
         21   -1    0    0  501  502 -0.00000000000E+00 -0.00000000000E+00 -0.56732312683E+03  0.56732312683E+03  0.00000000000E+00 0.  1.
      99926    2    1    2    0    0 -0.71054273576E-14  0.71054273576E-14 -0.47739761575E+03  0.65724863792E+03  0.45173807513E+03 0.  0.
      99925    2    3    3    0    0 -0.41800129620E+02  0.47976975446E+02 -0.43203277967E+03  0.50975451105E+03  0.26296063928E+03 0.  0.
         25    1    3    3    0    0  0.41800129620E+02 -0.47976975446E+02 -0.45364836080E+02  0.14749412687E+03  0.12509000000E+03 0.  0.
         25    1    4    4    0    0 -0.54745447708E+02  0.45946712435E+02 -0.24896076192E+03  0.28764063257E+03  0.12509000000E+03 0.  0.
         25    1    4    4    0    0  0.12945318088E+02  0.20302630110E+01 -0.18307201776E+03  0.22211387848E+03  0.12509000000E+03 0.  0.
<mgrwt>
<rscale>  2 0.45173808E+03</rscale>
<asrwt>0</asrwt>
<pdfrwt beam="1">  1       21 0.13224340E-01 0.45173808E+03</pdfrwt>
<pdfrwt beam="2">  1       21 0.83429872E-01 0.45173808E+03</pdfrwt>
<totfact> 0.56731005E+04</totfact>
</mgrwt>
</event>
<event>
 7    0  0.4709932E-002  0.4561078E+03  0.7546771E-02  0.1025916E+00
         21   -1    0    0  502  501  0.00000000000E+00  0.00000000000E+00  0.28784534513E+02  0.28784534513E+02  0.00000000000E+00 0. -1.
         21   -1    0    0  501  502 -0.00000000000E+00 -0.00000000000E+00 -0.18068238949E+04  0.18068238949E+04  0.00000000000E+00 0. -1.
      99926    2    1    2    0    0  0.17763568394E-14  0.00000000000E+00 -0.17780393604E+04  0.18356084294E+04  0.45610781516E+03 0.  0.
      99925    2    3    3    0    0  0.15935133910E+02 -0.34149291910E+02 -0.68415590784E+03  0.73395121482E+03  0.26304938103E+03 0.  0.
         25    1    4    4    0    0  0.35343629563E+02 -0.29335088303E+02 -0.27412767639E+03  0.30480027988E+03  0.12509000000E+03 0.  0.
         25    1    4    4    0    0 -0.19408495653E+02 -0.48142036072E+01 -0.41002823146E+03  0.42915093493E+03  0.12509000000E+03 0.  0.
         25    1    3    3    0    0 -0.15935133910E+02  0.34149291910E+02 -0.10938834526E+04  0.11016572146E+04  0.12509000000E+03 0.  0.
<mgrwt>
<rscale>  2 0.45610782E+03</rscale>
<asrwt>0</asrwt>
<pdfrwt beam="1">  1       21 0.42330189E-02 0.45610782E+03</pdfrwt>
<pdfrwt beam="2">  1       21 0.26570945E+00 0.45610782E+03</pdfrwt>
<totfact> 0.16443240E+04</totfact>
</mgrwt>
</event>
<event>
 7    0  0.4709932E-002  0.4557937E+03  0.7546771E-02  0.1026008E+00
         21   -1    0    0  502  501  0.00000000000E+00  0.00000000000E+00  0.58569998632E+03  0.58569998632E+03  0.00000000000E+00 0.  1.
         21   -1    0    0  501  502 -0.00000000000E+00 -0.00000000000E+00 -0.88675032346E+02  0.88675032346E+02  0.00000000000E+00 0.  1.
      99926    2    1    2    0    0  0.00000000000E+00  0.00000000000E+00  0.49702495398E+03  0.67437501867E+03  0.45579366048E+03 0.  0.
      99925    2    3    3    0    0  0.38287396493E+02  0.93221685329E+02  0.39081003857E+03  0.48179951737E+03  0.26313890124E+03 0.  0.
         25    1    4    4    0    0  0.16449883480E+02  0.54861492211E+02  0.26693358972E+03  0.30030223345E+03  0.12509000000E+03 0.  0.
         25    1    3    3    0    0 -0.38287396493E+02 -0.93221685329E+02  0.10621491541E+03  0.19257550130E+03  0.12509000000E+03 0.  0.
         25    1    4    4    0    0  0.21837513012E+02  0.38360193119E+02  0.12387644884E+03  0.18149728391E+03  0.12509000000E+03 0.  0.
<mgrwt>
<rscale>  2 0.45579366E+03</rscale>
<asrwt>0</asrwt>
<pdfrwt beam="1">  1       21 0.86132349E-01 0.45579366E+03</pdfrwt>
<pdfrwt beam="2">  1       21 0.13040446E-01 0.45579366E+03</pdfrwt>
<totfact> 0.53978333E+04</totfact>
</mgrwt>
</event>
<event>
 7    0  0.4709932E-002  0.4438517E+03  0.7546771E-02  0.1029572E+00
         21   -1    0    0  502  501  0.00000000000E+00  0.00000000000E+00  0.85176740913E+02  0.85176740913E+02  0.00000000000E+00 0.  1.
         21   -1    0    0  501  502 -0.00000000000E+00 -0.00000000000E+00 -0.57822223001E+03  0.57822223001E+03  0.00000000000E+00 0.  1.
      99926    2    1    2    0    0  0.00000000000E+00 -0.71054273576E-14 -0.49304548909E+03  0.66339897092E+03  0.44385170981E+03 0.  0.
      99925    2    3    3    0    0  0.65689882016E+01 -0.36148211497E+02 -0.45617590438E+03  0.52791200041E+03  0.26314402832E+03 0.  0.
         25    1    4    4    0    0  0.12943670949E+02 -0.36019294108E+02 -0.30309272324E+03  0.33011760805E+03  0.12509000000E+03 0.  0.
         25    1    4    4    0    0 -0.63746827473E+01 -0.12891738880E+00 -0.15308318115E+03  0.19779439236E+03  0.12509000000E+03 0.  0.
         25    1    3    3    0    0 -0.65689882016E+01  0.36148211497E+02 -0.36869584710E+02  0.13548697051E+03  0.12509000000E+03 0.  0.
<mgrwt>
<rscale>  2 0.44385171E+03</rscale>
<asrwt>0</asrwt>
<pdfrwt beam="1">  1       21 0.12525992E-01 0.44385171E+03</pdfrwt>
<pdfrwt beam="2">  1       21 0.85032679E-01 0.44385171E+03</pdfrwt>
<totfact> 0.60038786E+04</totfact>
</mgrwt>
</event>
<event>
 7    0  0.4709932E-002  0.4545780E+03  0.7546771E-02  0.1026366E+00
         21   -1    0    0  502  501  0.00000000000E+00  0.00000000000E+00  0.98736214143E+02  0.98736214143E+02  0.00000000000E+00 0.  1.
         21   -1    0    0  501  502 -0.00000000000E+00 -0.00000000000E+00 -0.52321519377E+03  0.52321519377E+03  0.00000000000E+00 0.  1.
      99926    2    1    2    0    0  0.71054273576E-14  0.00000000000E+00 -0.42447897963E+03  0.62195140792E+03  0.45457799074E+03 0.  0.
      99925    2    3    3    0    0 -0.61367828117E+02  0.68158172596E+02 -0.17769516076E+03  0.33047017666E+03  0.26310344103E+03 0.  0.
         25    1    4    4    0    0 -0.63189982241E+02  0.59285521538E+02 -0.11157360145E+03  0.18869001977E+03  0.12509000000E+03 0.  0.
         25    1    3    3    0    0  0.61367828117E+02 -0.68158172596E+02 -0.24678381887E+03  0.29148123126E+03  0.12509000000E+03 0.  0.
         25    1    4    4    0    0  0.18221541241E+01  0.88726510575E+01 -0.66121559313E+02  0.14178015689E+03  0.12509000000E+03 0.  0.
<mgrwt>
<rscale>  2 0.45457799E+03</rscale>
<asrwt>0</asrwt>
<pdfrwt beam="1">  1       21 0.14520032E-01 0.45457799E+03</pdfrwt>
<pdfrwt beam="2">  1       21 0.76943410E-01 0.45457799E+03</pdfrwt>
<totfact> 0.57538535E+04</totfact>
</mgrwt>
</event>
<event>
 7    0  0.4709932E-002  0.4571503E+03  0.7546771E-02  0.1025611E+00
         21   -1    0    0  502  501  0.00000000000E+00  0.00000000000E+00  0.65993151421E+03  0.65993151421E+03  0.00000000000E+00 0.  1.
         21   -1    0    0  501  502 -0.00000000000E+00 -0.00000000000E+00 -0.79169742839E+02  0.79169742839E+02  0.00000000000E+00 0.  1.
      99926    2    1    2    0    0  0.00000000000E+00  0.00000000000E+00  0.58076177137E+03  0.73910125704E+03  0.45715033969E+03 0.  0.
      99925    2    3    3    0    0 -0.73948809631E+01 -0.11395956699E+03  0.34123950858E+03  0.44574159785E+03  0.26305836361E+03 0.  0.
         25    1    4    4    0    0 -0.44844971652E+01 -0.10127093114E+03  0.19277264400E+03  0.25116670278E+03  0.12509000000E+03 0.  0.
         25    1    3    3    0    0  0.73948809631E+01  0.11395956699E+03  0.23952226278E+03  0.29335965919E+03  0.12509000000E+03 0.  0.
         25    1    4    4    0    0 -0.29103837980E+01 -0.12688635845E+02  0.14846686459E+03  0.19457489508E+03  0.12509000000E+03 0.  0.
<mgrwt>
<rscale>  2 0.45715034E+03</rscale>
<asrwt>0</asrwt>
<pdfrwt beam="1">  1       21 0.97048749E-01 0.45715034E+03</pdfrwt>
<pdfrwt beam="2">  1       21 0.11642610E-01 0.45715034E+03</pdfrwt>
<totfact> 0.49980590E+04</totfact>
</mgrwt>
</event>
<event>
 7    0  0.4709932E-002  0.4535717E+03  0.7546771E-02  0.1026662E+00
         21   -1    0    0  502  501  0.00000000000E+00  0.00000000000E+00  0.62920040944E+03  0.62920040944E+03  0.00000000000E+00 0.  1.
         21   -1    0    0  501  502 -0.00000000000E+00 -0.00000000000E+00 -0.81741541722E+02  0.81741541722E+02  0.00000000000E+00 0.  1.
      99926    2    1    2    0    0  0.00000000000E+00  0.00000000000E+00  0.54745886772E+03  0.71094195116E+03  0.45357165485E+03 0.  0.
      99925    2    3    3    0    0 -0.34272752422E+02 -0.95813875827E+02  0.41821877888E+03  0.50428903194E+03  0.26276521910E+03 0.  0.
         25    1    3    3    0    0  0.34272752422E+02  0.95813875827E+02  0.12924008884E+03  0.20665291922E+03  0.12509000000E+03 0.  0.
         25    1    4    4    0    0 -0.52486345623E+02 -0.50744619550E+02  0.25198927325E+03  0.29064744077E+03  0.12509000000E+03 0.  0.
         25    1    4    4    0    0  0.18213593201E+02 -0.45069256276E+02  0.16622950563E+03  0.21364159118E+03  0.12509000000E+03 0.  0.
<mgrwt>
<rscale>  2 0.45357165E+03</rscale>
<asrwt>0</asrwt>
<pdfrwt beam="1">  1       21 0.92529469E-01 0.45357165E+03</pdfrwt>
<pdfrwt beam="2">  1       21 0.12020815E-01 0.45357165E+03</pdfrwt>
<totfact> 0.52904931E+04</totfact>
</mgrwt>
</event>
<event>
 7    0  0.4709932E-002  0.4621162E+03  0.7546771E-02  0.1024169E+00
         21   -1    0    0  502  501  0.00000000000E+00  0.00000000000E+00  0.48107236179E+03  0.48107236179E+03  0.00000000000E+00 0.  1.
         21   -1    0    0  501  502 -0.00000000000E+00 -0.00000000000E+00 -0.11097675982E+03  0.11097675982E+03  0.00000000000E+00 0.  1.
      99926    2    1    2    0    0  0.35527136788E-14  0.71054273576E-14  0.37009560197E+03  0.59204912161E+03  0.46211622759E+03 0.  0.
      99925    2    3    3    0    0 -0.18097114522E+02  0.60732544581E+02  0.10119274817E+03  0.28877993358E+03  0.26294092536E+03 0.  0.
         25    1    3    3    0    0  0.18097114522E+02 -0.60732544581E+02  0.26890285380E+03  0.30326918803E+03  0.12509000000E+03 0.  0.
         25    1    4    4    0    0  0.54263212258E+01 -0.35868712569E+01  0.67312619183E+02  0.14219988540E+03  0.12509000000E+03 0.  0.
         25    1    4    4    0    0 -0.23523435748E+02  0.64319415838E+02  0.33880128983E+02  0.14658004817E+03  0.12509000000E+03 0.  0.
<mgrwt>
<rscale>  2 0.46211623E+03</rscale>
<asrwt>0</asrwt>
<pdfrwt beam="1">  1       21 0.70745935E-01 0.46211623E+03</pdfrwt>
<pdfrwt beam="2">  1       21 0.16320112E-01 0.46211623E+03</pdfrwt>
<totfact> 0.55956244E+04</totfact>
</mgrwt>
</event>
<event>
 7    0  0.4709932E-002  0.4478110E+03  0.7546771E-02  0.1028377E+00
         21   -1    0    0  502  501  0.00000000000E+00  0.00000000000E+00  0.49103939130E+02  0.49103939130E+02  0.00000000000E+00 0. -1.
         21   -1    0    0  501  502 -0.00000000000E+00 -0.00000000000E+00 -0.10209705791E+04  0.10209705791E+04  0.00000000000E+00 0. -1.
      99926    2    1    2    0    0  0.00000000000E+00  0.00000000000E+00 -0.97186663993E+03  0.10700745182E+04  0.44781101892E+03 0.  0.
      99925    2    3    3    0    0 -0.45332837787E+01  0.89495568738E+02 -0.75203223896E+03  0.80173764142E+03  0.26306035381E+03 0.  0.
         25    1    3    3    0    0  0.45332837787E+01 -0.89495568738E+02 -0.21983440097E+03  0.26833687677E+03  0.12509000000E+03 0.  0.
         25    1    4    4    0    0  0.11241380059E+01  0.46135720231E+02 -0.49388617637E+03  0.51156703537E+03  0.12509000000E+03 0.  0.
         25    1    4    4    0    0 -0.56574217846E+01  0.43359848507E+02 -0.25814606260E+03  0.29017060605E+03  0.12509000000E+03 0.  0.
<mgrwt>
<rscale>  2 0.44781102E+03</rscale>
<asrwt>0</asrwt>
<pdfrwt beam="1">  1       21 0.72211679E-02 0.44781102E+03</pdfrwt>
<pdfrwt beam="2">  1       21 0.15014273E+00 0.44781102E+03</pdfrwt>
<totfact> 0.38673766E+04</totfact>
</mgrwt>
</event>
<event>
 7    0  0.4709932E-002  0.4402322E+03  0.7546771E-02  0.1030676E+00
         21   -1    0    0  502  501  0.00000000000E+00  0.00000000000E+00  0.22316262220E+03  0.22316262220E+03  0.00000000000E+00 0. -1.
         21   -1    0    0  501  502 -0.00000000000E+00 -0.00000000000E+00 -0.21711113950E+03  0.21711113950E+03  0.00000000000E+00 0. -1.
      99926    2    1    2    0    0  0.00000000000E+00  0.71054273576E-14  0.60514826964E+01  0.44027376171E+03  0.44023217148E+03 0.  0.
      99925    2    3    3    0    0  0.55721287676E+02  0.42673538109E+02  0.75059751796E+02  0.28110233821E+03  0.26164606905E+03 0.  0.
         25    1    4    4    0    0  0.15643692531E+02 -0.39000224494E+01  0.63635894416E+02  0.14126914189E+03  0.12509000000E+03 0.  0.
         25    1    3    3    0    0 -0.55721287676E+02 -0.42673538109E+02 -0.69008269099E+02  0.15917142350E+03  0.12509000000E+03 0.  0.
         25    1    4    4    0    0  0.40077595145E+02  0.46573560558E+02  0.11423857380E+02  0.13983319632E+03  0.12509000000E+03 0.  0.
<mgrwt>
<rscale>  2 0.44023217E+03</rscale>
<asrwt>0</asrwt>
<pdfrwt beam="1">  1       21 0.32818033E-01 0.44023217E+03</pdfrwt>
<pdfrwt beam="2">  1       21 0.31928109E-01 0.44023217E+03</pdfrwt>
<totfact> 0.78486879E+04</totfact>
</mgrwt>
</event>
<event>
 7    0  0.4709932E-002  0.4993657E+03  0.7546771E-02  0.1013945E+00
         21   -1    0    0  502  501  0.00000000000E+00  0.00000000000E+00  0.69090653417E+03  0.69090653417E+03  0.00000000000E+00 0.  1.
         21   -1    0    0  501  502 -0.00000000000E+00 -0.00000000000E+00 -0.90231487981E+02  0.90231487981E+02  0.00000000000E+00 0.  1.
      99926    2    1    2    0    0  0.00000000000E+00 -0.35527136788E-14  0.60067504618E+03  0.78113802215E+03  0.49936569619E+03 0.  0.
      99925    2    3    3    0    0  0.33065762722E+02 -0.15674539014E+02  0.59394154197E+03  0.65063176170E+03  0.26308952510E+03 0.  0.
         25    1    4    4    0    0 -0.30109972908E+01 -0.41722945380E+02  0.32355179459E+03  0.34940398132E+03  0.12509000000E+03 0.  0.
         25    1    3    3    0    0 -0.33065762722E+02  0.15674539014E+02  0.67335042179E+01  0.13050626045E+03  0.12509000000E+03 0.  0.
         25    1    4    4    0    0  0.36076760013E+02  0.26048406366E+02  0.27038974737E+03  0.30122778038E+03  0.12509000000E+03 0.  0.
<mgrwt>
<rscale>  2 0.49936570E+03</rscale>
<asrwt>0</asrwt>
<pdfrwt beam="1">  1       21 0.10160390E+00 0.49936570E+03</pdfrwt>
<pdfrwt beam="2">  1       21 0.13269337E-01 0.49936570E+03</pdfrwt>
<totfact> 0.34867625E+04</totfact>
</mgrwt>
</event>
<event>
 7    0  0.4709932E-002  0.4562892E+03  0.7546771E-02  0.1025863E+00
         21   -1    0    0  502  501  0.00000000000E+00  0.00000000000E+00  0.26481959462E+03  0.26481959462E+03  0.00000000000E+00 0.  1.
         21   -1    0    0  501  502 -0.00000000000E+00 -0.00000000000E+00 -0.19654878257E+03  0.19654878257E+03  0.00000000000E+00 0.  1.
      99926    2    1    2    0    0  0.00000000000E+00  0.00000000000E+00  0.68270812054E+02  0.46136837719E+03  0.45628924564E+03 0.  0.
      99925    2    3    3    0    0 -0.51288549824E+02  0.10178223545E+03  0.33888281596E+02  0.28868425719E+03  0.26305901605E+03 0.  0.
         25    1    3    3    0    0  0.51288549824E+02 -0.10178223545E+03  0.34382530458E+02  0.17268411999E+03  0.12509000000E+03 0.  0.
         25    1    4    4    0    0  0.41457226458E+01  0.64509300096E+02 -0.73620293010E+01  0.14099767512E+03  0.12509000000E+03 0.  0.
         25    1    4    4    0    0 -0.55434272469E+02  0.37272935359E+02  0.41250310897E+02  0.14768658207E+03  0.12509000000E+03 0.  0.
<mgrwt>
<rscale>  2 0.45628925E+03</rscale>
<asrwt>0</asrwt>
<pdfrwt beam="1">  1       21 0.38944058E-01 0.45628925E+03</pdfrwt>
<pdfrwt beam="2">  1       21 0.28904233E-01 0.45628925E+03</pdfrwt>
<totfact> 0.67385481E+04</totfact>
</mgrwt>
</event>
<event>
 7    0  0.4709932E-002  0.4526432E+03  0.7546771E-02  0.1026937E+00
         21   -1    0    0  502  501  0.00000000000E+00  0.00000000000E+00  0.45885227803E+02  0.45885227803E+02  0.00000000000E+00 0.  1.
         21   -1    0    0  501  502 -0.00000000000E+00 -0.00000000000E+00 -0.11162955471E+04  0.11162955471E+04  0.00000000000E+00 0.  1.
      99926    2    1    2    0    0  0.00000000000E+00  0.00000000000E+00 -0.10704103193E+04  0.11621807749E+04  0.45264323910E+03 0.  0.
      99925    2    3    3    0    0 -0.89277911194E+02  0.53342217125E+02 -0.77310945605E+03  0.82328366819E+03  0.26321441776E+03 0.  0.
         25    1    4    4    0    0 -0.81868912487E+02  0.49808921876E+02 -0.44015335044E+03  0.46751035019E+03  0.12509000000E+03 0.  0.
         25    1    3    3    0    0  0.89277911194E+02 -0.53342217125E+02 -0.29730086327E+03  0.33889710674E+03  0.12509000000E+03 0.  0.
         25    1    4    4    0    0 -0.74089987080E+01  0.35332952493E+01 -0.33295610561E+03  0.35577331800E+03  0.12509000000E+03 0.  0.
<mgrwt>
<rscale>  2 0.45264324E+03</rscale>
<asrwt>0</asrwt>
<pdfrwt beam="1">  1       21 0.67478281E-02 0.45264324E+03</pdfrwt>
<pdfrwt beam="2">  1       21 0.16416110E+00 0.45264324E+03</pdfrwt>
<totfact> 0.33998394E+04</totfact>
</mgrwt>
</event>
<event>
 7    0  0.4709932E-002  0.4503661E+03  0.7546771E-02  0.1027613E+00
         21   -1    0    0  502  501  0.00000000000E+00  0.00000000000E+00  0.20212532114E+03  0.20212532114E+03  0.00000000000E+00 0.  1.
         21   -1    0    0  501  502 -0.00000000000E+00 -0.00000000000E+00 -0.25087114038E+03  0.25087114038E+03  0.00000000000E+00 0.  1.
      99926    2    1    2    0    0  0.14210854715E-13 -0.35527136788E-14 -0.48745819243E+02  0.45299646152E+03  0.45036611691E+03 0.  0.
      99925    2    3    3    0    0  0.74738375095E+02 -0.23976230849E+02 -0.10502239375E+03  0.29496087915E+03  0.26421872130E+03 0.  0.
         25    1    4    4    0    0  0.22414498677E+02 -0.18131071804E+02 -0.89518475780E+01  0.12868095893E+03  0.12509000000E+03 0.  0.
         25    1    4    4    0    0  0.52323876418E+02 -0.58451590455E+01 -0.96070546169E+02  0.16627992022E+03  0.12509000000E+03 0.  0.
         25    1    3    3    0    0 -0.74738375095E+02  0.23976230849E+02  0.56276574504E+02  0.15803558237E+03  0.12509000000E+03 0.  0.
<mgrwt>
<rscale>  2 0.45036612E+03</rscale>
<asrwt>0</asrwt>
<pdfrwt beam="1">  1       21 0.29724312E-01 0.45036612E+03</pdfrwt>
<pdfrwt beam="2">  1       21 0.36892814E-01 0.45036612E+03</pdfrwt>
<totfact> 0.71292316E+04</totfact>
</mgrwt>
</event>
<event>
 7    0  0.4709932E-002  0.4576095E+03  0.7546771E-02  0.1025477E+00
         21   -1    0    0  502  501  0.00000000000E+00  0.00000000000E+00  0.64794795204E+03  0.64794795204E+03  0.00000000000E+00 0.  1.
         21   -1    0    0  501  502 -0.00000000000E+00 -0.00000000000E+00 -0.80796028090E+02  0.80796028090E+02  0.00000000000E+00 0.  1.
      99926    2    1    2    0    0 -0.71054273576E-14  0.00000000000E+00  0.56715192395E+03  0.72874398013E+03  0.45760953195E+03 0.  0.
      99925    2    3    3    0    0 -0.44485479696E+02 -0.47476623542E+02  0.50829281624E+03  0.57595363244E+03  0.26292206448E+03 0.  0.
         25    1    4    4    0    0 -0.58494629379E+02 -0.30303792257E+02  0.22898758622E+03  0.26911477892E+03  0.12509000000E+03 0.  0.
         25    1    4    4    0    0  0.14009149682E+02 -0.17172831285E+02  0.27930523003E+03  0.30683885352E+03  0.12509000000E+03 0.  0.
         25    1    3    3    0    0  0.44485479696E+02  0.47476623542E+02  0.58859107702E+02  0.15279034769E+03  0.12509000000E+03 0.  0.
<mgrwt>
<rscale>  2 0.45760953E+03</rscale>
<asrwt>0</asrwt>
<pdfrwt beam="1">  1       21 0.95286461E-01 0.45760953E+03</pdfrwt>
<pdfrwt beam="2">  1       21 0.11881769E-01 0.45760953E+03</pdfrwt>
<totfact> 0.50329236E+04</totfact>
</mgrwt>
</event>
<event>
 7    0  0.4709932E-002  0.4450390E+03  0.7546771E-02  0.1029212E+00
         21   -1    0    0  502  501  0.00000000000E+00  0.00000000000E+00  0.36683047563E+03  0.36683047563E+03  0.00000000000E+00 0.  1.
         21   -1    0    0  501  502 -0.00000000000E+00 -0.00000000000E+00 -0.13498043780E+03  0.13498043780E+03  0.00000000000E+00 0.  1.
      99926    2    1    2    0    0  0.00000000000E+00  0.00000000000E+00  0.23185003782E+03  0.50181091343E+03  0.44503904637E+03 0.  0.
      99925    2    3    3    0    0 -0.88916257050E+02 -0.39288703867E+02  0.18722926589E+03  0.33722590680E+03  0.26309088010E+03 0.  0.
         25    1    4    4    0    0 -0.16519229876E+02 -0.30264673770E+02  0.12307508300E+03  0.17884020686E+03  0.12509000000E+03 0.  0.
         25    1    3    3    0    0  0.88916257050E+02  0.39288703867E+02  0.44620771931E+02  0.16458500663E+03  0.12509000000E+03 0.  0.
         25    1    4    4    0    0 -0.72397027174E+02 -0.90240300973E+01  0.64154182891E+02  0.15838569994E+03  0.12509000000E+03 0.  0.
<mgrwt>
<rscale>  2 0.44503905E+03</rscale>
<asrwt>0</asrwt>
<pdfrwt beam="1">  1       21 0.53945658E-01 0.44503905E+03</pdfrwt>
<pdfrwt beam="2">  1       21 0.19850064E-01 0.44503905E+03</pdfrwt>
<totfact> 0.70559029E+04</totfact>
</mgrwt>
</event>
<event>
 7    0  0.4709932E-002  0.4767974E+03  0.7546771E-02  0.1020019E+00
         21   -1    0    0  502  501  0.00000000000E+00  0.00000000000E+00  0.86169703264E+02  0.86169703264E+02  0.00000000000E+00 0.  1.
         21   -1    0    0  501  502 -0.00000000000E+00 -0.00000000000E+00 -0.65955822489E+03  0.65955822489E+03  0.00000000000E+00 0.  1.
      99926    2    1    2    0    0  0.00000000000E+00 -0.71054273576E-14 -0.57338852163E+03  0.74572792816E+03  0.47679738474E+03 0.  0.
      99925    2    3    3    0    0 -0.37780200963E+02 -0.58321355938E+02 -0.53074954704E+03  0.59641512095E+03  0.26303458074E+03 0.  0.
         25    1    4    4    0    0 -0.13501818318E+02 -0.21451827969E+00 -0.18862434824E+03  0.22673552427E+03  0.12509000000E+03 0.  0.
         25    1    4    4    0    0 -0.24278382645E+02 -0.58106837659E+02 -0.34212519880E+03  0.36967959668E+03  0.12509000000E+03 0.  0.
         25    1    3    3    0    0  0.37780200963E+02  0.58321355938E+02 -0.42638974590E+02  0.14931280721E+03  0.12509000000E+03 0.  0.
<mgrwt>
<rscale>  2 0.47679738E+03</rscale>
<asrwt>0</asrwt>
<pdfrwt beam="1">  1       21 0.12672015E-01 0.47679738E+03</pdfrwt>
<pdfrwt beam="2">  1       21 0.96993861E-01 0.47679738E+03</pdfrwt>
<totfact> 0.42690744E+04</totfact>
</mgrwt>
</event>
<event>
 7    0  0.4709932E-002  0.4505710E+03  0.7546771E-02  0.1027552E+00
         21   -1    0    0  502  501  0.00000000000E+00  0.00000000000E+00  0.32730907787E+03  0.32730907787E+03  0.00000000000E+00 0. -1.
         21   -1    0    0  501  502 -0.00000000000E+00 -0.00000000000E+00 -0.15506312175E+03  0.15506312175E+03  0.00000000000E+00 0. -1.
      99926    2    1    2    0    0  0.00000000000E+00  0.17763568394E-14  0.17224595612E+03  0.48237219962E+03  0.45057104830E+03 0.  0.
      99925    2    3    3    0    0 -0.89428809736E+02  0.13927676546E+02  0.17373415541E+03  0.32796619255E+03  0.26303378967E+03 0.  0.
         25    1    3    3    0    0  0.89428809736E+02 -0.13927676546E+02 -0.14881992935E+01  0.15440600708E+03  0.12509000000E+03 0.  0.
         25    1    4    4    0    0 -0.78268769179E+02  0.25081322499E+02  0.72694533046E+02  0.16639433945E+03  0.12509000000E+03 0.  0.
         25    1    4    4    0    0 -0.11160040557E+02 -0.11153645954E+02  0.10103962237E+03  0.16157185309E+03  0.12509000000E+03 0.  0.
<mgrwt>
<rscale>  2 0.45057105E+03</rscale>
<asrwt>0</asrwt>
<pdfrwt beam="1">  1       21 0.48133688E-01 0.45057105E+03</pdfrwt>
<pdfrwt beam="2">  1       21 0.22803400E-01 0.45057105E+03</pdfrwt>
<totfact> 0.68919237E+04</totfact>
</mgrwt>
</event>
<event>
 7    0  0.4709932E-002  0.4512577E+03  0.7546771E-02  0.1027348E+00
         21   -1    0    0  502  501  0.00000000000E+00  0.00000000000E+00  0.18047986096E+03  0.18047986096E+03  0.00000000000E+00 0.  1.
         21   -1    0    0  501  502 -0.00000000000E+00 -0.00000000000E+00 -0.28207235259E+03  0.28207235259E+03  0.00000000000E+00 0.  1.
      99926    2    1    2    0    0  0.71054273576E-14  0.17763568394E-14 -0.10159249163E+03  0.46255221355E+03  0.45125770454E+03 0.  0.
      99925    2    3    3    0    0  0.46694942943E+02  0.12952975438E+02 -0.16493961689E+03  0.31419937857E+03  0.26299805133E+03 0.  0.
         25    1    4    4    0    0  0.30260526112E+02  0.36116124777E+02 -0.52460698569E+02  0.14359563679E+03  0.12509000000E+03 0.  0.
         25    1    3    3    0    0 -0.46694942943E+02 -0.12952975438E+02  0.63347125256E+02  0.14835283498E+03  0.12509000000E+03 0.  0.
         25    1    4    4    0    0  0.16434416830E+02 -0.23163149339E+02 -0.11247891832E+03  0.17060374178E+03  0.12509000000E+03 0.  0.
<mgrwt>
<rscale>  2 0.45125770E+03</rscale>
<asrwt>0</asrwt>
<pdfrwt beam="1">  1       21 0.26541156E-01 0.45125770E+03</pdfrwt>
<pdfrwt beam="2">  1       21 0.41481228E-01 0.45125770E+03</pdfrwt>
<totfact> 0.70050463E+04</totfact>
</mgrwt>
</event>
<event>
 7    0  0.4709932E-002  0.4533789E+03  0.7546771E-02  0.1026719E+00
         21   -1    0    0  502  501  0.00000000000E+00  0.00000000000E+00  0.51155287623E+03  0.51155287623E+03  0.00000000000E+00 0.  1.
         21   -1    0    0  501  502 -0.00000000000E+00 -0.00000000000E+00 -0.10045511237E+03  0.10045511237E+03  0.00000000000E+00 0.  1.
      99926    2    1    2    0    0  0.71054273576E-14 -0.35527136788E-14  0.41109776386E+03  0.61200798859E+03  0.45337887759E+03 0.  0.
      99925    2    3    3    0    0  0.44069491302E+02 -0.15562619385E+02  0.39592363805E+03  0.47761276033E+03  0.26300970795E+03 0.  0.
         25    1    3    3    0    0 -0.44069491302E+02  0.15562619385E+02  0.15174125810E+02  0.13439522826E+03  0.12509000000E+03 0.  0.
         25    1    4    4    0    0 -0.18990657222E+02 -0.60836502336E+01  0.18298343666E+03  0.22254910032E+03  0.12509000000E+03 0.  0.
         25    1    4    4    0    0  0.63060148524E+02 -0.94789691514E+01  0.21294020139E+03  0.25506366001E+03  0.12509000000E+03 0.  0.
<mgrwt>
<rscale>  2 0.45337888E+03</rscale>
<asrwt>0</asrwt>
<pdfrwt beam="1">  1       21 0.75228363E-01 0.45337888E+03</pdfrwt>
<pdfrwt beam="2">  1       21 0.14772811E-01 0.45337888E+03</pdfrwt>
<totfact> 0.58693086E+04</totfact>
</mgrwt>
</event>
<event>
 7    0  0.4709932E-002  0.4073388E+03  0.7546771E-02  0.1041268E+00
         21   -1    0    0  502  501  0.00000000000E+00  0.00000000000E+00  0.16161995188E+04  0.16161995188E+04  0.00000000000E+00 0.  1.
         21   -1    0    0  501  502 -0.00000000000E+00 -0.00000000000E+00 -0.25665911245E+02  0.25665911245E+02  0.00000000000E+00 0.  1.
      99926    2    1    2    0    0  0.00000000000E+00  0.00000000000E+00  0.15905336075E+04  0.16418654300E+04  0.40733884373E+03 0.  0.
      99925    2    3    3    0    0 -0.52034539139E+02 -0.16420495060E+02  0.11324524120E+04  0.11638872760E+04  0.26307394374E+03 0.  0.
         25    1    3    3    0    0  0.52034539139E+02  0.16420495060E+02  0.45808119559E+03  0.47797815407E+03  0.12509000000E+03 0.  0.
         25    1    4    4    0    0  0.76663111187E+01  0.14613865278E+02  0.56686235920E+03  0.58073468965E+03  0.12509000000E+03 0.  0.
         25    1    4    4    0    0 -0.59700850258E+02 -0.31034360339E+02  0.56559005276E+03  0.58315258631E+03  0.12509000000E+03 0.  0.
<mgrwt>
<rscale>  2 0.40733884E+03</rscale>
<asrwt>0</asrwt>
<pdfrwt beam="1">  1       21 0.23767633E+00 0.40733884E+03</pdfrwt>
<pdfrwt beam="2">  1       21 0.37743998E-02 0.40733884E+03</pdfrwt>
<totfact> 0.30234916E+04</totfact>
</mgrwt>
</event>
<event>
 7    0  0.4709932E-002  0.4491652E+03  0.7546771E-02  0.1027971E+00
         21   -1    0    0  502  501  0.00000000000E+00  0.00000000000E+00  0.43074954952E+03  0.43074954952E+03  0.00000000000E+00 0.  1.
         21   -1    0    0  501  502 -0.00000000000E+00 -0.00000000000E+00 -0.11709204436E+03  0.11709204436E+03  0.00000000000E+00 0.  1.
      99926    2    1    2    0    0  0.35527136788E-14  0.00000000000E+00  0.31365750516E+03  0.54784159389E+03  0.44916520508E+03 0.  0.
      99925    2    3    3    0    0  0.29898301597E+02 -0.58364881899E+02  0.94394336097E+02  0.28702707496E+03  0.26300928348E+03 0.  0.
         25    1    3    3    0    0 -0.29898301597E+02  0.58364881899E+02  0.21926316906E+03  0.26081451893E+03  0.12509000000E+03 0.  0.
         25    1    4    4    0    0 -0.20740199280E+02 -0.23815255002E+02  0.25073191728E+02  0.13142866993E+03  0.12509000000E+03 0.  0.
         25    1    4    4    0    0  0.50638500876E+02 -0.34549626896E+02  0.69321144368E+02  0.15559840502E+03  0.12509000000E+03 0.  0.
<mgrwt>
<rscale>  2 0.44916521E+03</rscale>
<asrwt>0</asrwt>
<pdfrwt beam="1">  1       21 0.63345522E-01 0.44916521E+03</pdfrwt>
<pdfrwt beam="2">  1       21 0.17219418E-01 0.44916521E+03</pdfrwt>
<totfact> 0.64956641E+04</totfact>
</mgrwt>
</event>
<event>
 7    0  0.4709932E-002  0.4559115E+03  0.7546771E-02  0.1025974E+00
         21   -1    0    0  502  501  0.00000000000E+00  0.00000000000E+00  0.14307796818E+03  0.14307796818E+03  0.00000000000E+00 0.  1.
         21   -1    0    0  501  502 -0.00000000000E+00 -0.00000000000E+00 -0.36318543672E+03  0.36318543672E+03  0.00000000000E+00 0.  1.
      99926    2    1    2    0    0  0.00000000000E+00  0.00000000000E+00 -0.22010746854E+03  0.50626340490E+03  0.45591154562E+03 0.  0.
      99925    2    3    3    0    0 -0.68040982535E+02 -0.86346589457E+02 -0.10456400974E+03  0.30357372142E+03  0.26294117857E+03 0.  0.
         25    1    3    3    0    0  0.68040982535E+02  0.86346589457E+02 -0.11554345880E+03  0.20268968348E+03  0.12509000000E+03 0.  0.
         25    1    4    4    0    0 -0.30145697685E+02 -0.84151531268E+02 -0.47285064360E+02  0.16085281693E+03  0.12509000000E+03 0.  0.
         25    1    4    4    0    0 -0.37895284850E+02 -0.21950581880E+01 -0.57278945375E+02  0.14272090449E+03  0.12509000000E+03 0.  0.
<mgrwt>
<rscale>  2 0.45591155E+03</rscale>
<asrwt>0</asrwt>
<pdfrwt beam="1">  1       21 0.21040878E-01 0.45591155E+03</pdfrwt>
<pdfrwt beam="2">  1       21 0.53409622E-01 0.45591155E+03</pdfrwt>
<totfact> 0.64365887E+04</totfact>
</mgrwt>
</event>
<event>
 7    0  0.4709932E-002  0.4567188E+03  0.7546771E-02  0.1025737E+00
         21   -1    0    0  502  501  0.00000000000E+00  0.00000000000E+00  0.46455686240E+03  0.46455686240E+03  0.00000000000E+00 0.  1.
         21   -1    0    0  501  502 -0.00000000000E+00 -0.00000000000E+00 -0.11225325223E+03  0.11225325223E+03  0.00000000000E+00 0.  1.
      99926    2    1    2    0    0  0.00000000000E+00  0.00000000000E+00  0.35230361017E+03  0.57681011462E+03  0.45671881349E+03 0.  0.
      99925    2    3    3    0    0  0.69339412375E+02 -0.34359405688E+02  0.32839777342E+03  0.42778823704E+03  0.26300029524E+03 0.  0.
         25    1    4    4    0    0  0.26653066416E+02  0.10553723739E+02  0.11233638815E+03  0.17055421202E+03  0.12509000000E+03 0.  0.
         25    1    3    3    0    0 -0.69339412375E+02  0.34359405688E+02  0.23905836755E+02  0.14902187758E+03  0.12509000000E+03 0.  0.
         25    1    4    4    0    0  0.42686345958E+02 -0.44913129427E+02  0.21606138526E+03  0.25723402502E+03  0.12509000000E+03 0.  0.
<mgrwt>
<rscale>  2 0.45671881E+03</rscale>
<asrwt>0</asrwt>
<pdfrwt beam="1">  1       21 0.68317185E-01 0.45671881E+03</pdfrwt>
<pdfrwt beam="2">  1       21 0.16507831E-01 0.45671881E+03</pdfrwt>
<totfact> 0.59318623E+04</totfact>
</mgrwt>
</event>
<event>
 7    0  0.4709932E-002  0.4586039E+03  0.7546771E-02  0.1025187E+00
         21   -1    0    0  502  501  0.00000000000E+00  0.00000000000E+00  0.27748658028E+03  0.27748658028E+03  0.00000000000E+00 0.  1.
         21   -1    0    0  501  502 -0.00000000000E+00 -0.00000000000E+00 -0.18948443861E+03  0.18948443861E+03  0.00000000000E+00 0.  1.
      99926    2    1    2    0    0 -0.35527136788E-14  0.14210854715E-13  0.88002141675E+02  0.46697101889E+03  0.45860392011E+03 0.  0.
      99925    2    3    3    0    0  0.29535362221E+02 -0.10633295231E+03  0.93148696764E+02  0.30007874975E+03  0.26304285197E+03 0.  0.
         25    1    4    4    0    0  0.25533561961E+02 -0.44471890426E+02  0.56376987615E+01  0.13531076665E+03  0.12509000000E+03 0.  0.
         25    1    4    4    0    0  0.40018002599E+01 -0.61861061885E+02  0.87510998002E+02  0.16476798310E+03  0.12509000000E+03 0.  0.
         25    1    3    3    0    0 -0.29535362221E+02  0.10633295231E+03 -0.51465550886E+01  0.16689226914E+03  0.12509000000E+03 0.  0.
<mgrwt>
<rscale>  2 0.45860392E+03</rscale>
<asrwt>0</asrwt>
<pdfrwt beam="1">  1       21 0.40806850E-01 0.45860392E+03</pdfrwt>
<pdfrwt beam="2">  1       21 0.27865359E-01 0.45860392E+03</pdfrwt>
<totfact> 0.65759918E+04</totfact>
</mgrwt>
</event>
<event>
 7    0  0.4709932E-002  0.4604390E+03  0.7546771E-02  0.1024654E+00
         21   -1    0    0  502  501  0.00000000000E+00  0.00000000000E+00  0.89413233989E+03  0.89413233989E+03  0.00000000000E+00 0.  1.
         21   -1    0    0  501  502 -0.00000000000E+00 -0.00000000000E+00 -0.59276486639E+02  0.59276486639E+02  0.00000000000E+00 0.  1.
      99926    2    1    2    0    0  0.00000000000E+00  0.14210854715E-13  0.83485585325E+03  0.95340882653E+03  0.46043902397E+03 0.  0.
      99925    2    3    3    0    0  0.30227966731E+02  0.11032125565E+03  0.46103576947E+03  0.54295362488E+03  0.26298317174E+03 0.  0.
         25    1    4    4    0    0  0.23702133639E+02  0.18275613081E+02  0.24629787080E+03  0.27785956603E+03  0.12509000000E+03 0.  0.
         25    1    3    3    0    0 -0.30227966731E+02 -0.11032125565E+03  0.37382008378E+03  0.41045520164E+03  0.12509000000E+03 0.  0.
         25    1    4    4    0    0  0.65258330928E+01  0.92045642573E+02  0.21473789867E+03  0.26509405886E+03  0.12509000000E+03 0.  0.
<mgrwt>
<rscale>  2 0.46043902E+03</rscale>
<asrwt>0</asrwt>
<pdfrwt beam="1">  1       21 0.13149004E+00 0.46043902E+03</pdfrwt>
<pdfrwt beam="2">  1       21 0.87171309E-02 0.46043902E+03</pdfrwt>
<totfact> 0.39304613E+04</totfact>
</mgrwt>
</event>
<event>
 7    0  0.4709932E-002  0.4533983E+03  0.7546771E-02  0.1026713E+00
         21   -1    0    0  502  501  0.00000000000E+00  0.00000000000E+00  0.48469599377E+03  0.48469599377E+03  0.00000000000E+00 0. -1.
         21   -1    0    0  501  502 -0.00000000000E+00 -0.00000000000E+00 -0.10603038831E+03  0.10603038831E+03  0.00000000000E+00 0. -1.
      99926    2    1    2    0    0  0.00000000000E+00  0.00000000000E+00  0.37866560546E+03  0.59072638208E+03  0.45339829922E+03 0.  0.
      99925    2    3    3    0    0 -0.36098963854E+02 -0.10329230367E+03  0.20902570506E+03  0.35324451100E+03  0.26290208060E+03 0.  0.
         25    1    4    4    0    0 -0.21498294605E+02 -0.67147749824E+02  0.62275386020E+02  0.15651430855E+03  0.12509000000E+03 0.  0.
         25    1    3    3    0    0  0.36098963854E+02  0.10329230367E+03  0.16963990039E+03  0.23748187108E+03  0.12509000000E+03 0.  0.
         25    1    4    4    0    0 -0.14600669249E+02 -0.36144553847E+02  0.14675031904E+03  0.19673020245E+03  0.12509000000E+03 0.  0.
<mgrwt>
<rscale>  2 0.45339830E+03</rscale>
<asrwt>0</asrwt>
<pdfrwt beam="1">  1       21 0.71278822E-01 0.45339830E+03</pdfrwt>
<pdfrwt beam="2">  1       21 0.15592704E-01 0.45339830E+03</pdfrwt>
<totfact> 0.60008777E+04</totfact>
</mgrwt>
</event>
<event>
 7    0  0.4709932E-002  0.4433241E+03  0.7546771E-02  0.1029732E+00
         21   -1    0    0  502  501  0.00000000000E+00  0.00000000000E+00  0.59255815530E+03  0.59255815530E+03  0.00000000000E+00 0. -1.
         21   -1    0    0  501  502 -0.00000000000E+00 -0.00000000000E+00 -0.82918565928E+02  0.82918565928E+02  0.00000000000E+00 0. -1.
      99926    2    1    2    0    0  0.14210854715E-13  0.00000000000E+00  0.50963958937E+03  0.67547672123E+03  0.44332413634E+03 0.  0.
      99925    2    3    3    0    0  0.73514278806E+02  0.60263855819E+02  0.26907080399E+03  0.38814950340E+03  0.26310617234E+03 0.  0.
         25    1    3    3    0    0 -0.73514278806E+02 -0.60263855819E+02  0.24056878538E+03  0.28732721783E+03  0.12509000000E+03 0.  0.
         25    1    4    4    0    0  0.15557208711E+02  0.64613749413E+02  0.12956380466E+03  0.19196679643E+03  0.12509000000E+03 0.  0.
         25    1    4    4    0    0  0.57957070095E+02 -0.43498935939E+01  0.13950699934E+03  0.19618270696E+03  0.12509000000E+03 0.  0.
<mgrwt>
<rscale>  2 0.44332414E+03</rscale>
<asrwt>0</asrwt>
<pdfrwt beam="1">  1       21 0.87140903E-01 0.44332414E+03</pdfrwt>
<pdfrwt beam="2">  1       21 0.12193907E-01 0.44332414E+03</pdfrwt>
<totfact> 0.59544316E+04</totfact>
</mgrwt>
</event>
<event>
 7    0  0.4709932E-002  0.4548005E+03  0.7546771E-02  0.1026300E+00
         21   -1    0    0  502  501  0.00000000000E+00  0.00000000000E+00  0.23353546401E+03  0.23353546401E+03  0.00000000000E+00 0. -1.
         21   -1    0    0  501  502 -0.00000000000E+00 -0.00000000000E+00 -0.22142618171E+03  0.22142618171E+03  0.00000000000E+00 0. -1.
      99926    2    1    2    0    0  0.00000000000E+00  0.00000000000E+00  0.12109282299E+02  0.45496164572E+03  0.45480046653E+03 0.  0.
      99925    2    3    3    0    0  0.43858593724E+02  0.10421882005E+03  0.42792186408E+00  0.28593768003E+03  0.26263098646E+03 0.  0.
         25    1    4    4    0    0  0.41637069519E+02  0.70938178480E+02  0.31068006154E+02  0.15290062077E+03  0.12509000000E+03 0.  0.
         25    1    4    4    0    0  0.22215242045E+01  0.33280641567E+02 -0.30640084290E+02  0.13303705927E+03  0.12509000000E+03 0.  0.
         25    1    3    3    0    0 -0.43858593724E+02 -0.10421882005E+03  0.11681360435E+02  0.16902396569E+03  0.12509000000E+03 0.  0.
<mgrwt>
<rscale>  2 0.45480047E+03</rscale>
<asrwt>0</asrwt>
<pdfrwt beam="1">  1       21 0.34343451E-01 0.45480047E+03</pdfrwt>
<pdfrwt beam="2">  1       21 0.32562674E-01 0.45480047E+03</pdfrwt>
<totfact> 0.68657853E+04</totfact>
</mgrwt>
</event>
<event>
 7    0  0.4709932E-002  0.4509331E+03  0.7546771E-02  0.1027444E+00
         21   -1    0    0  502  501  0.00000000000E+00  0.00000000000E+00  0.62395555700E+03  0.62395555700E+03  0.00000000000E+00 0. -1.
         21   -1    0    0  501  502 -0.00000000000E+00 -0.00000000000E+00 -0.81472416377E+02  0.81472416377E+02  0.00000000000E+00 0. -1.
      99926    2    1    2    0    0  0.71054273576E-14  0.00000000000E+00  0.54248314062E+03  0.70542797337E+03  0.45093310786E+03 0.  0.
      99925    2    3    3    0    0 -0.59076688848E+02 -0.59823637722E+02  0.23366363411E+03  0.36179165618E+03  0.26310755553E+03 0.  0.
         25    1    3    3    0    0  0.59076688848E+02  0.59823637722E+02  0.30881950651E+03  0.34363631720E+03  0.12509000000E+03 0.  0.
         25    1    4    4    0    0 -0.56940998528E+02 -0.55143449335E+02  0.15259663108E+03  0.21264128770E+03  0.12509000000E+03 0.  0.
         25    1    4    4    0    0 -0.21356903194E+01 -0.46801883876E+01  0.81067003034E+02  0.14915036848E+03  0.12509000000E+03 0.  0.
<mgrwt>
<rscale>  2 0.45093311E+03</rscale>
<asrwt>0</asrwt>
<pdfrwt beam="1">  1       21 0.91758168E-01 0.45093311E+03</pdfrwt>
<pdfrwt beam="2">  1       21 0.11981238E-01 0.45093311E+03</pdfrwt>
<totfact> 0.54326977E+04</totfact>
</mgrwt>
</event>
<event>
 7    0  0.4709932E-002  0.4576722E+03  0.7546771E-02  0.1025459E+00
         21   -1    0    0  502  501  0.00000000000E+00  0.00000000000E+00  0.47666394925E+03  0.47666394925E+03  0.00000000000E+00 0. -1.
         21   -1    0    0  501  502 -0.00000000000E+00 -0.00000000000E+00 -0.10985926356E+03  0.10985926356E+03  0.00000000000E+00 0. -1.
      99926    2    1    2    0    0  0.00000000000E+00  0.00000000000E+00  0.36680468569E+03  0.58652321281E+03  0.45767215528E+03 0.  0.
      99925    2    3    3    0    0  0.58620103479E+02  0.99684579703E+02  0.22581112056E+03  0.36538971134E+03  0.26295559896E+03 0.  0.
         25    1    4    4    0    0  0.18976682255E+01  0.17351294200E+02  0.85924470044E+02  0.15275860436E+03  0.12509000000E+03 0.  0.
         25    1    4    4    0    0  0.56722435253E+02  0.82333285504E+02  0.13988665052E+03  0.21263110698E+03  0.12509000000E+03 0.  0.
         25    1    3    3    0    0 -0.58620103479E+02 -0.99684579703E+02  0.14099356513E+03  0.22113350147E+03  0.12509000000E+03 0.  0.
<mgrwt>
<rscale>  2 0.45767216E+03</rscale>
<asrwt>0</asrwt>
<pdfrwt beam="1">  1       21 0.70097639E-01 0.45767216E+03</pdfrwt>
<pdfrwt beam="2">  1       21 0.16155774E-01 0.45767216E+03</pdfrwt>
<totfact> 0.58274907E+04</totfact>
</mgrwt>
</event>
<event>
 7    0  0.4709932E-002  0.4584556E+03  0.7546771E-02  0.1025230E+00
         21   -1    0    0  502  501  0.00000000000E+00  0.00000000000E+00  0.39602683205E+03  0.39602683205E+03  0.00000000000E+00 0. -1.
         21   -1    0    0  501  502 -0.00000000000E+00 -0.00000000000E+00 -0.13268136376E+03  0.13268136376E+03  0.00000000000E+00 0. -1.
      99926    2    1    2    0    0  0.35527136788E-14  0.00000000000E+00  0.26334546829E+03  0.52870819581E+03  0.45845558198E+03 0.  0.
      99925    2    3    3    0    0 -0.23147553056E+02  0.11109281833E+03  0.19490745149E+03  0.34647566924E+03  0.26301910811E+03 0.  0.
         25    1    4    4    0    0  0.16333952748E+02  0.28208453420E+02  0.10917332191E+03  0.16920058266E+03  0.12509000000E+03 0.  0.
         25    1    4    4    0    0 -0.39481505804E+02  0.82884364908E+02  0.85734129589E+02  0.17727508658E+03  0.12509000000E+03 0.  0.
         25    1    3    3    0    0  0.23147553056E+02 -0.11109281833E+03  0.68438016797E+02  0.18223252657E+03  0.12509000000E+03 0.  0.
<mgrwt>
<rscale>  2 0.45845558E+03</rscale>
<asrwt>0</asrwt>
<pdfrwt beam="1">  1       21 0.58239240E-01 0.45845558E+03</pdfrwt>
<pdfrwt beam="2">  1       21 0.19511965E-01 0.45845558E+03</pdfrwt>
<totfact> 0.61589648E+04</totfact>
</mgrwt>
</event>
<event>
 7    0  0.4709932E-002  0.4533525E+03  0.7546771E-02  0.1026727E+00
         21   -1    0    0  502  501  0.00000000000E+00  0.00000000000E+00  0.14395374714E+03  0.14395374714E+03  0.00000000000E+00 0. -1.
         21   -1    0    0  501  502 -0.00000000000E+00 -0.00000000000E+00 -0.35693498631E+03  0.35693498631E+03  0.00000000000E+00 0. -1.
      99926    2    1    2    0    0  0.00000000000E+00  0.00000000000E+00 -0.21298123917E+03  0.50088873345E+03  0.45335252846E+03 0.  0.
      99925    2    3    3    0    0  0.47323553034E+02  0.88988588291E+02 -0.82083600356E+02  0.29366859094E+03  0.26333445718E+03 0.  0.
         25    1    4    4    0    0  0.40909251889E+02  0.60912452254E+01 -0.37043284532E+02  0.13685899016E+03  0.12509000000E+03 0.  0.
         25    1    3    3    0    0 -0.47323553034E+02 -0.88988588291E+02 -0.13089763881E+03  0.20722014252E+03  0.12509000000E+03 0.  0.
         25    1    4    4    0    0  0.64143011454E+01  0.82897343066E+02 -0.45040315824E+02  0.15680960078E+03  0.12509000000E+03 0.  0.
<mgrwt>
<rscale>  2 0.45335253E+03</rscale>
<asrwt>0</asrwt>
<pdfrwt beam="1">  1       21 0.21169669E-01 0.45335253E+03</pdfrwt>
<pdfrwt beam="2">  1       21 0.52490439E-01 0.45335253E+03</pdfrwt>
<totfact> 0.66068045E+04</totfact>
</mgrwt>
</event>
<event>
 7    0  0.4709932E-002  0.4595700E+03  0.7546771E-02  0.1024906E+00
         21   -1    0    0  502  501  0.00000000000E+00  0.00000000000E+00  0.14258538961E+03  0.14258538961E+03  0.00000000000E+00 0.  1.
         21   -1    0    0  501  502 -0.00000000000E+00 -0.00000000000E+00 -0.37031240841E+03  0.37031240841E+03  0.00000000000E+00 0.  1.
      99926    2    1    2    0    0  0.35527136788E-14  0.00000000000E+00 -0.22772701880E+03  0.51289779801E+03  0.45956996868E+03 0.  0.
      99925    2    3    3    0    0  0.28888329982E+02  0.70347216385E+01 -0.26947124564E+03  0.37771602597E+03  0.26300308199E+03 0.  0.
         25    1    3    3    0    0 -0.28888329982E+02 -0.70347216385E+01  0.41744226836E+02  0.13518177204E+03  0.12509000000E+03 0.  0.
         25    1    4    4    0    0  0.41584396242E+02  0.24657020066E+02 -0.16939606541E+03  0.21605500625E+03  0.12509000000E+03 0.  0.
         25    1    4    4    0    0 -0.12696066261E+02 -0.17622298428E+02 -0.10007518023E+03  0.16166101972E+03  0.12509000000E+03 0.  0.
<mgrwt>
<rscale>  2 0.45956997E+03</rscale>
<asrwt>0</asrwt>
<pdfrwt beam="1">  1       21 0.20968440E-01 0.45956997E+03</pdfrwt>
<pdfrwt beam="2">  1       21 0.54457706E-01 0.45956997E+03</pdfrwt>
<totfact> 0.62091042E+04</totfact>
</mgrwt>
</event>
<event>
 7    0  0.4709932E-002  0.4350487E+03  0.7546771E-02  0.1032277E+00
         21   -1    0    0  502  501  0.00000000000E+00  0.00000000000E+00  0.22630476958E+03  0.22630476958E+03  0.00000000000E+00 0.  1.
         21   -1    0    0  501  502 -0.00000000000E+00 -0.00000000000E+00 -0.20908460065E+03  0.20908460065E+03  0.00000000000E+00 0.  1.
      99926    2    1    2    0    0 -0.35527136788E-14  0.00000000000E+00  0.17220168934E+02  0.43538937023E+03  0.43504869784E+03 0.  0.
      99925    2    3    3    0    0  0.24533157462E+02  0.78034295301E+02 -0.33532941349E+02  0.27754573443E+03  0.26308924244E+03 0.  0.
         25    1    3    3    0    0 -0.24533157462E+02 -0.78034295301E+02  0.50753110283E+02  0.15784363580E+03  0.12509000000E+03 0.  0.
         25    1    4    4    0    0  0.10687166721E+02 -0.34194199161E+01 -0.14284087692E+02  0.12640194313E+03  0.12509000000E+03 0.  0.
         25    1    4    4    0    0  0.13845990741E+02  0.81453715217E+02 -0.19248853657E+02  0.15114379130E+03  0.12509000000E+03 0.  0.
<mgrwt>
<rscale>  2 0.43504870E+03</rscale>
<asrwt>0</asrwt>
<pdfrwt beam="1">  1       21 0.33280113E-01 0.43504870E+03</pdfrwt>
<pdfrwt beam="2">  1       21 0.30747735E-01 0.43504870E+03</pdfrwt>
<totfact> 0.82357105E+04</totfact>
</mgrwt>
</event>
<event>
 7    0  0.4709932E-002  0.4490592E+03  0.7546771E-02  0.1028003E+00
         21   -1    0    0  502  501  0.00000000000E+00  0.00000000000E+00  0.90824097425E+02  0.90824097425E+02  0.00000000000E+00 0.  1.
         21   -1    0    0  501  502 -0.00000000000E+00 -0.00000000000E+00 -0.55506802487E+03  0.55506802487E+03  0.00000000000E+00 0.  1.
      99926    2    1    2    0    0  0.00000000000E+00  0.00000000000E+00 -0.46424392744E+03  0.64589212229E+03  0.44905924940E+03 0.  0.
      99925    2    3    3    0    0  0.22108439489E+02  0.10502655302E+03 -0.28577474202E+03  0.40295567344E+03  0.26303367017E+03 0.  0.
         25    1    4    4    0    0 -0.29012356131E+02  0.59167013129E+02 -0.14225146411E+03  0.20056280660E+03  0.12509000000E+03 0.  0.
         25    1    3    3    0    0 -0.22108439489E+02 -0.10502655302E+03 -0.17846918542E+03  0.24293644885E+03  0.12509000000E+03 0.  0.
         25    1    4    4    0    0  0.51120795620E+02  0.45859539893E+02 -0.14352327791E+03  0.20239286684E+03  0.12509000000E+03 0.  0.
<mgrwt>
<rscale>  2 0.44905925E+03</rscale>
<asrwt>0</asrwt>
<pdfrwt beam="1">  1       21 0.13356486E-01 0.44905925E+03</pdfrwt>
<pdfrwt beam="2">  1       21 0.81627647E-01 0.44905925E+03</pdfrwt>
<totfact> 0.58639254E+04</totfact>
</mgrwt>
</event>
<event>
 7    0  0.4709932E-002  0.4425889E+03  0.7546771E-02  0.1029955E+00
         21   -1    0    0  502  501  0.00000000000E+00  0.00000000000E+00  0.83319573546E+02  0.83319573546E+02  0.00000000000E+00 0.  1.
         21   -1    0    0  501  502 -0.00000000000E+00 -0.00000000000E+00 -0.58775182347E+03  0.58775182347E+03  0.00000000000E+00 0.  1.
      99926    2    1    2    0    0  0.00000000000E+00  0.00000000000E+00 -0.50443224993E+03  0.67107139702E+03  0.44258888952E+03 0.  0.
      99925    2    3    3    0    0  0.31813895700E+02 -0.48336067994E+02 -0.19537876482E+03  0.33267803984E+03  0.26297018276E+03 0.  0.
         25    1    3    3    0    0 -0.31813895700E+02  0.48336067994E+02 -0.30905348510E+03  0.33839335718E+03  0.12509000000E+03 0.  0.
         25    1    4    4    0    0 -0.97921011762E+01 -0.14273760952E+02 -0.57015710835E+02  0.13855657646E+03  0.12509000000E+03 0.  0.
         25    1    4    4    0    0  0.41605996877E+02 -0.34062307042E+02 -0.13836305399E+03  0.19412146338E+03  0.12509000000E+03 0.  0.
<mgrwt>
<rscale>  2 0.44258889E+03</rscale>
<asrwt>0</asrwt>
<pdfrwt beam="1">  1       21 0.12252879E-01 0.44258889E+03</pdfrwt>
<pdfrwt beam="2">  1       21 0.86434090E-01 0.44258889E+03</pdfrwt>
<totfact> 0.60172441E+04</totfact>
</mgrwt>
</event>
<event>
 7    0  0.4709932E-002  0.4509644E+03  0.7546771E-02  0.1027435E+00
         21   -1    0    0  502  501  0.00000000000E+00  0.00000000000E+00  0.27098938300E+03  0.27098938300E+03  0.00000000000E+00 0. -1.
         21   -1    0    0  501  502 -0.00000000000E+00 -0.00000000000E+00 -0.18761704322E+03  0.18761704322E+03  0.00000000000E+00 0. -1.
      99926    2    1    2    0    0  0.71054273576E-14  0.00000000000E+00  0.83372339775E+02  0.45860642622E+03  0.45096441892E+03 0.  0.
      99925    2    3    3    0    0 -0.55827676221E+02  0.65197070568E+02 -0.16343934677E+02  0.27706240694E+03  0.26292406831E+03 0.  0.
         25    1    4    4    0    0 -0.34607300194E+02  0.72666066025E+02  0.12626124535E+01  0.14875188963E+03  0.12509000000E+03 0.  0.
         25    1    3    3    0    0  0.55827676221E+02 -0.65197070568E+02  0.99716274452E+02  0.18154401927E+03  0.12509000000E+03 0.  0.
         25    1    4    4    0    0 -0.21220376027E+02 -0.74689954562E+01 -0.17606547130E+02  0.12831051732E+03  0.12509000000E+03 0.  0.
<mgrwt>
<rscale>  2 0.45096442E+03</rscale>
<asrwt>0</asrwt>
<pdfrwt beam="1">  1       21 0.39851380E-01 0.45096442E+03</pdfrwt>
<pdfrwt beam="2">  1       21 0.27590741E-01 0.45096442E+03</pdfrwt>
<totfact> 0.70522773E+04</totfact>
</mgrwt>
</event>
<event>
 7    0  0.4709932E-002  0.4552141E+03  0.7546771E-02  0.1026178E+00
         21   -1    0    0  502  501  0.00000000000E+00  0.00000000000E+00  0.26065736928E+03  0.26065736928E+03  0.00000000000E+00 0. -1.
         21   -1    0    0  501  502 -0.00000000000E+00 -0.00000000000E+00 -0.19874738431E+03  0.19874738431E+03  0.00000000000E+00 0. -1.
      99926    2    1    2    0    0  0.00000000000E+00  0.88817841970E-15  0.61909984976E+02  0.45940475359E+03  0.45521410499E+03 0.  0.
      99925    2    3    3    0    0 -0.99258801008E+02 -0.75623357839E+01  0.93741448713E+02  0.29640092331E+03  0.26297632904E+03 0.  0.
         25    1    4    4    0    0 -0.51586893614E+02 -0.44225112233E+02  0.45048744370E+02  0.14931163925E+03  0.12509000000E+03 0.  0.
         25    1    3    3    0    0  0.99258801008E+02  0.75623357839E+01 -0.31831463737E+02  0.16300383027E+03  0.12509000000E+03 0.  0.
         25    1    4    4    0    0 -0.47671907394E+02  0.36662776449E+02  0.48692704343E+02  0.14708928407E+03  0.12509000000E+03 0.  0.
<mgrwt>
<rscale>  2 0.45521410E+03</rscale>
<asrwt>0</asrwt>
<pdfrwt beam="1">  1       21 0.38331966E-01 0.45521410E+03</pdfrwt>
<pdfrwt beam="2">  1       21 0.29227556E-01 0.45521410E+03</pdfrwt>
<totfact> 0.68107607E+04</totfact>
</mgrwt>
</event>
<event>
 7    0  0.4709932E-002  0.4591501E+03  0.7546771E-02  0.1025028E+00
         21   -1    0    0  502  501  0.00000000000E+00  0.00000000000E+00  0.42389296163E+03  0.42389296163E+03  0.00000000000E+00 0.  1.
         21   -1    0    0  501  502 -0.00000000000E+00 -0.00000000000E+00 -0.12433491065E+03  0.12433491065E+03  0.00000000000E+00 0.  1.
      99926    2    1    2    0    0  0.00000000000E+00  0.00000000000E+00  0.29955805098E+03  0.54822787228E+03  0.45915005613E+03 0.  0.
      99925    2    3    3    0    0 -0.93579820503E+02 -0.69549874985E+02  0.17593744914E+03  0.33722093113E+03  0.26300114537E+03 0.  0.
         25    1    4    4    0    0 -0.46281041525E+02 -0.26776406847E+02  0.13335272455E+03  0.19049768506E+03  0.12509000000E+03 0.  0.
         25    1    4    4    0    0 -0.47298778978E+02 -0.42773468138E+02  0.42584724594E+02  0.14672324607E+03  0.12509000000E+03 0.  0.
         25    1    3    3    0    0  0.93579820503E+02  0.69549874985E+02  0.12362060184E+03  0.21100694115E+03  0.12509000000E+03 0.  0.
<mgrwt>
<rscale>  2 0.45915006E+03</rscale>
<asrwt>0</asrwt>
<pdfrwt beam="1">  1       21 0.62337200E-01 0.45915006E+03</pdfrwt>
<pdfrwt beam="2">  1       21 0.18284546E-01 0.45915006E+03</pdfrwt>
<totfact> 0.59989511E+04</totfact>
</mgrwt>
</event>
<event>
 7    0  0.4709932E-002  0.4483233E+03  0.7546771E-02  0.1028223E+00
         21   -1    0    0  502  501  0.00000000000E+00  0.00000000000E+00  0.80553668242E+03  0.80553668242E+03  0.00000000000E+00 0. -1.
         21   -1    0    0  501  502 -0.00000000000E+00 -0.00000000000E+00 -0.62378852229E+02  0.62378852229E+02  0.00000000000E+00 0. -1.
      99926    2    1    2    0    0  0.00000000000E+00  0.00000000000E+00  0.74315783019E+03  0.86791553465E+03  0.44832333724E+03 0.  0.
      99925    2    3    3    0    0  0.82719032586E+02  0.61845114007E+02  0.52207067739E+03  0.59369975518E+03  0.26316221352E+03 0.  0.
         25    1    4    4    0    0  0.30353756647E+02  0.63923262690E+02  0.22279998851E+03  0.26513181068E+03  0.12509000000E+03 0.  0.
         25    1    3    3    0    0 -0.82719032586E+02 -0.61845114007E+02  0.22108715279E+03  0.27421577947E+03  0.12509000000E+03 0.  0.
         25    1    4    4    0    0  0.52365275939E+02 -0.20781486832E+01  0.29927068888E+03  0.32856794449E+03  0.12509000000E+03 0.  0.
<mgrwt>
<rscale>  2 0.44832334E+03</rscale>
<asrwt>0</asrwt>
<pdfrwt beam="1">  1       21 0.11846127E+00 0.44832334E+03</pdfrwt>
<pdfrwt beam="2">  1       21 0.91733611E-02 0.44832334E+03</pdfrwt>
<totfact> 0.47063633E+04</totfact>
</mgrwt>
</event>
<event>
 7    0  0.4709932E-002  0.4481027E+03  0.7546771E-02  0.1028289E+00
         21   -1    0    0  502  501  0.00000000000E+00  0.00000000000E+00  0.44190589340E+03  0.44190589340E+03  0.00000000000E+00 0.  1.
         21   -1    0    0  501  502 -0.00000000000E+00 -0.00000000000E+00 -0.11359661198E+03  0.11359661198E+03  0.00000000000E+00 0.  1.
      99926    2    1    2    0    0  0.00000000000E+00  0.00000000000E+00  0.32830928142E+03  0.55550250538E+03  0.44810272172E+03 0.  0.
      99925    2    3    3    0    0 -0.19585598825E+02  0.69234053233E+02  0.30537691436E+03  0.40938491107E+03  0.26299048610E+03 0.  0.
         25    1    4    4    0    0  0.77489413194E+01  0.60761089938E+02  0.11952446531E+03  0.18353626903E+03  0.12509000000E+03 0.  0.
         25    1    4    4    0    0 -0.27334540145E+02  0.84729632947E+01  0.18585244905E+03  0.22584864204E+03  0.12509000000E+03 0.  0.
         25    1    3    3    0    0  0.19585598825E+02 -0.69234053233E+02  0.22932367066E+02  0.14611759431E+03  0.12509000000E+03 0.  0.
<mgrwt>
<rscale>  2 0.44810272E+03</rscale>
<asrwt>0</asrwt>
<pdfrwt beam="1">  1       21 0.64986160E-01 0.44810272E+03</pdfrwt>
<pdfrwt beam="2">  1       21 0.16705384E-01 0.44810272E+03</pdfrwt>
<totfact> 0.64977783E+04</totfact>
</mgrwt>
</event>
<event>
 7    0  0.4709932E-002  0.4525896E+03  0.7546771E-02  0.1026953E+00
         21   -1    0    0  502  501  0.00000000000E+00  0.00000000000E+00  0.75929110943E+02  0.75929110943E+02  0.00000000000E+00 0.  1.
         21   -1    0    0  501  502 -0.00000000000E+00 -0.00000000000E+00 -0.67443627153E+03  0.67443627153E+03  0.00000000000E+00 0.  1.
      99926    2    1    2    0    0  0.00000000000E+00  0.00000000000E+00 -0.59850716059E+03  0.75036538247E+03  0.45258964409E+03 0.  0.
      99925    2    3    3    0    0 -0.72909633208E+02  0.48793201493E+02 -0.48994718760E+03  0.56293708429E+03  0.26297019432E+03 0.  0.
         25    1    4    4    0    0 -0.57632192325E+02  0.60114832652E+02 -0.28127660561E+03  0.31890327634E+03  0.12509000000E+03 0.  0.
         25    1    3    3    0    0  0.72909633208E+02 -0.48793201493E+02 -0.10855997298E+03  0.18742829819E+03  0.12509000000E+03 0.  0.
         25    1    4    4    0    0 -0.15277440883E+02 -0.11321631158E+02 -0.20867058200E+03  0.24403380795E+03  0.12509000000E+03 0.  0.
<mgrwt>
<rscale>  2 0.45258964E+03</rscale>
<asrwt>0</asrwt>
<pdfrwt beam="1">  1       21 0.11166045E-01 0.45258964E+03</pdfrwt>
<pdfrwt beam="2">  1       21 0.99181810E-01 0.45258964E+03</pdfrwt>
<totfact> 0.51215631E+04</totfact>
</mgrwt>
</event>
<event>
 7    0  0.4709932E-002  0.4231271E+03  0.7546771E-02  0.1036053E+00
         21   -1    0    0  502  501  0.00000000000E+00  0.00000000000E+00  0.19443758561E+03  0.19443758561E+03  0.00000000000E+00 0. -1.
         21   -1    0    0  501  502 -0.00000000000E+00 -0.00000000000E+00 -0.23019798623E+03  0.23019798623E+03  0.00000000000E+00 0. -1.
      99926    2    1    2    0    0  0.00000000000E+00  0.00000000000E+00 -0.35760400623E+02  0.42463557185E+03  0.42312712348E+03 0.  0.
      99925    2    3    3    0    0 -0.34655036311E+02  0.70564617962E+02 -0.37721652121E+02  0.27688005940E+03  0.26279137620E+03 0.  0.
         25    1    4    4    0    0 -0.22738353141E+02  0.46313454167E+02  0.19471422274E+02  0.13670630244E+03  0.12509000000E+03 0.  0.
         25    1    3    3    0    0  0.34655036311E+02 -0.70564617962E+02  0.19612514987E+01  0.14775551244E+03  0.12509000000E+03 0.  0.
         25    1    4    4    0    0 -0.11916683170E+02  0.24251163794E+02 -0.57193074395E+02  0.14017375697E+03  0.12509000000E+03 0.  0.
<mgrwt>
<rscale>  2 0.42312712E+03</rscale>
<asrwt>0</asrwt>
<pdfrwt beam="1">  1       21 0.28593762E-01 0.42312712E+03</pdfrwt>
<pdfrwt beam="2">  1       21 0.33852645E-01 0.42312712E+03</pdfrwt>
<totfact> 0.92120804E+04</totfact>
</mgrwt>
</event>
<event>
 7    0  0.4709932E-002  0.4635552E+03  0.7546771E-02  0.1023755E+00
         21   -1    0    0  502  501  0.00000000000E+00  0.00000000000E+00  0.12147871659E+03  0.12147871659E+03  0.00000000000E+00 0.  1.
         21   -1    0    0  501  502 -0.00000000000E+00 -0.00000000000E+00 -0.44222446191E+03  0.44222446191E+03  0.00000000000E+00 0.  1.
      99926    2    1    2    0    0  0.00000000000E+00 -0.14210854715E-13 -0.32074574531E+03  0.56370317850E+03  0.46355521819E+03 0.  0.
      99925    2    3    3    0    0 -0.92971787008E+02 -0.74728045111E+02 -0.17510720489E+03  0.33768077593E+03  0.26294056234E+03 0.  0.
         25    1    4    4    0    0 -0.59947211437E+02 -0.54566688278E+02 -0.51748980104E+02  0.15778674428E+03  0.12509000000E+03 0.  0.
         25    1    4    4    0    0 -0.33024575571E+02 -0.20161356833E+02 -0.12335822479E+03  0.17989403165E+03  0.12509000000E+03 0.  0.
         25    1    3    3    0    0  0.92971787008E+02  0.74728045111E+02 -0.14563854042E+03  0.22602240257E+03  0.12509000000E+03 0.  0.
<mgrwt>
<rscale>  2 0.46355522E+03</rscale>
<asrwt>0</asrwt>
<pdfrwt beam="1">  1       21 0.17864517E-01 0.46355522E+03</pdfrwt>
<pdfrwt beam="2">  1       21 0.65033010E-01 0.46355522E+03</pdfrwt>
<totfact> 0.57013077E+04</totfact>
</mgrwt>
</event>
<event>
 7    0  0.4709932E-002  0.4539439E+03  0.7546771E-02  0.1026552E+00
         21   -1    0    0  502  501  0.00000000000E+00  0.00000000000E+00  0.71798452804E+03  0.71798452804E+03  0.00000000000E+00 0. -1.
         21   -1    0    0  501  502 -0.00000000000E+00 -0.00000000000E+00 -0.71751206188E+02  0.71751206188E+02  0.00000000000E+00 0. -1.
      99926    2    1    2    0    0  0.00000000000E+00  0.00000000000E+00  0.64623332185E+03  0.78973573423E+03  0.45394385517E+03 0.  0.
      99925    2    3    3    0    0  0.77656999661E+02 -0.49380963304E+02  0.29551549640E+03  0.40617401778E+03  0.26301869701E+03 0.  0.
         25    1    3    3    0    0 -0.77656999661E+02  0.49380963304E+02  0.35071782545E+03  0.38356171644E+03  0.12509000000E+03 0.  0.
         25    1    4    4    0    0  0.17864719126E+02 -0.51702381552E+00  0.97746506900E+02  0.15975388325E+03  0.12509000000E+03 0.  0.
         25    1    4    4    0    0  0.59792280535E+02 -0.48863939488E+02  0.19776898950E+03  0.24642013453E+03  0.12509000000E+03 0.  0.
<mgrwt>
<rscale>  2 0.45394386E+03</rscale>
<asrwt>0</asrwt>
<pdfrwt beam="1">  1       21 0.10558596E+00 0.45394386E+03</pdfrwt>
<pdfrwt beam="2">  1       21 0.10551648E-01 0.45394386E+03</pdfrwt>
<totfact> 0.48667467E+04</totfact>
</mgrwt>
</event>
<event>
 7    0  0.4709932E-002  0.4568380E+03  0.7546771E-02  0.1025702E+00
         21   -1    0    0  502  501  0.00000000000E+00  0.00000000000E+00  0.18362492500E+04  0.18362492500E+04  0.00000000000E+00 0. -1.
         21   -1    0    0  501  502 -0.00000000000E+00 -0.00000000000E+00 -0.28414023694E+02  0.28414023694E+02  0.00000000000E+00 0. -1.
      99926    2    1    2    0    0  0.00000000000E+00  0.00000000000E+00  0.18078352263E+04  0.18646632737E+04  0.45683795682E+03 0.  0.
      99925    2    3    3    0    0  0.39265620428E+01 -0.85437689791E+02  0.82279024078E+03  0.86803086987E+03  0.26301861913E+03 0.  0.
         25    1    4    4    0    0  0.82265217139E+01 -0.56615156106E+02  0.54328178795E+03  0.56042444698E+03  0.12509000000E+03 0.  0.
         25    1    3    3    0    0 -0.39265620428E+01  0.85437689791E+02  0.98504498557E+03  0.99663240386E+03  0.12509000000E+03 0.  0.
         25    1    4    4    0    0 -0.42999596711E+01 -0.28822533685E+02  0.27950845283E+03  0.30760642289E+03  0.12509000000E+03 0.  0.
<mgrwt>
<rscale>  2 0.45683796E+03</rscale>
<asrwt>0</asrwt>
<pdfrwt beam="1">  1       21 0.27003657E+00 0.45683796E+03</pdfrwt>
<pdfrwt beam="2">  1       21 0.41785341E-02 0.45683796E+03</pdfrwt>
<totfact> 0.15821069E+04</totfact>
</mgrwt>
</event>
<event>
 7    0  0.4709932E-002  0.4546583E+03  0.7546771E-02  0.1026342E+00
         21   -1    0    0  502  501  0.00000000000E+00  0.00000000000E+00  0.18009280011E+03  0.18009280011E+03  0.00000000000E+00 0.  1.
         21   -1    0    0  501  502 -0.00000000000E+00 -0.00000000000E+00 -0.28695512633E+03  0.28695512633E+03  0.00000000000E+00 0.  1.
      99926    2    1    2    0    0  0.00000000000E+00  0.00000000000E+00 -0.10686232623E+03  0.46704792644E+03  0.45465834296E+03 0.  0.
      99925    2    3    3    0    0 -0.10476494638E+03  0.38914055401E+02 -0.83185143011E+02  0.29764274705E+03  0.26302364752E+03 0.  0.
         25    1    4    4    0    0 -0.88091695459E+02  0.42362063219E+02 -0.35347206933E+02  0.16263955345E+03  0.12509000000E+03 0.  0.
         25    1    4    4    0    0 -0.16673250922E+02 -0.34480078174E+01 -0.47837936077E+02  0.13500319360E+03  0.12509000000E+03 0.  0.
         25    1    3    3    0    0  0.10476494638E+03 -0.38914055401E+02 -0.23677183215E+02  0.16940517939E+03  0.12509000000E+03 0.  0.
<mgrwt>
<rscale>  2 0.45465834E+03</rscale>
<asrwt>0</asrwt>
<pdfrwt beam="1">  1       21 0.26484236E-01 0.45465834E+03</pdfrwt>
<pdfrwt beam="2">  1       21 0.42199283E-01 0.45465834E+03</pdfrwt>
<totfact> 0.67839775E+04</totfact>
</mgrwt>
</event>
<event>
 7    0  0.4709932E-002  0.4508678E+03  0.7546771E-02  0.1027464E+00
         21   -1    0    0  502  501  0.00000000000E+00  0.00000000000E+00  0.12501724123E+03  0.12501724123E+03  0.00000000000E+00 0. -1.
         21   -1    0    0  501  502 -0.00000000000E+00 -0.00000000000E+00 -0.40650744962E+03  0.40650744962E+03  0.00000000000E+00 0. -1.
      99926    2    1    2    0    0  0.00000000000E+00  0.00000000000E+00 -0.28149020839E+03  0.53152469085E+03  0.45086778501E+03 0.  0.
      99925    2    3    3    0    0  0.67407162306E+02 -0.32568805403E+02 -0.84037391797E+02  0.28608717233E+03  0.26301926609E+03 0.  0.
         25    1    4    4    0    0  0.36294842719E+02 -0.56863122594E+02 -0.48810839964E+02  0.15026888073E+03  0.12509000000E+03 0.  0.
         25    1    3    3    0    0 -0.67407162306E+02  0.32568805403E+02 -0.19745281659E+03  0.24543751852E+03  0.12509000000E+03 0.  0.
         25    1    4    4    0    0  0.31112319587E+02  0.24294317191E+02 -0.35226551833E+02  0.13581829160E+03  0.12509000000E+03 0.  0.
<mgrwt>
<rscale>  2 0.45086779E+03</rscale>
<asrwt>0</asrwt>
<pdfrwt beam="1">  1       21 0.18384888E-01 0.45086779E+03</pdfrwt>
<pdfrwt beam="2">  1       21 0.59780507E-01 0.45086779E+03</pdfrwt>
<totfact> 0.65211079E+04</totfact>
</mgrwt>
</event>
<event>
 7    0  0.4709932E-002  0.4110035E+03  0.7546771E-02  0.1040035E+00
         21   -1    0    0  502  501  0.00000000000E+00  0.00000000000E+00  0.15755209358E+03  0.15755209358E+03  0.00000000000E+00 0.  1.
         21   -1    0    0  501  502 -0.00000000000E+00 -0.00000000000E+00 -0.26804451912E+03  0.26804451912E+03  0.00000000000E+00 0.  1.
      99926    2    1    2    0    0  0.00000000000E+00 -0.35527136788E-14 -0.11049242553E+03  0.42559661270E+03  0.41100352875E+03 0.  0.
      99925    2    3    3    0    0 -0.12984713786E+02 -0.24019329575E+02 -0.12878099272E+02  0.26459476247E+03  0.26286690910E+03 0.  0.
         25    1    3    3    0    0  0.12984713786E+02  0.24019329575E+02 -0.97614326263E+02  0.16100185023E+03  0.12509000000E+03 0.  0.
         25    1    4    4    0    0  0.26197622092E+02 -0.34440947468E+02  0.10075973206E+01  0.13236698085E+03  0.12509000000E+03 0.  0.
         25    1    4    4    0    0 -0.39182335877E+02  0.10421617893E+02 -0.13885696592E+02  0.13222778163E+03  0.12509000000E+03 0.  0.
<mgrwt>
<rscale>  2 0.41100353E+03</rscale>
<asrwt>0</asrwt>
<pdfrwt beam="1">  1       21 0.23169426E-01 0.41100353E+03</pdfrwt>
<pdfrwt beam="2">  1       21 0.39418311E-01 0.41100353E+03</pdfrwt>
<totfact> 0.10214133E+05</totfact>
</mgrwt>
</event>
<event>
 7    0  0.4709932E-002  0.4542051E+03  0.7546771E-02  0.1026475E+00
         21   -1    0    0  502  501  0.00000000000E+00  0.00000000000E+00  0.10036421513E+03  0.10036421513E+03  0.00000000000E+00 0.  1.
         21   -1    0    0  501  502 -0.00000000000E+00 -0.00000000000E+00 -0.51388394649E+03  0.51388394649E+03  0.00000000000E+00 0.  1.
      99926    2    1    2    0    0  0.00000000000E+00  0.71054273576E-14 -0.41351973137E+03  0.61424816162E+03  0.45420505922E+03 0.  0.
      99925    2    3    3    0    0 -0.48022207810E+02 -0.41945715893E+02 -0.38576674791E+03  0.47112824087E+03  0.26283123868E+03 0.  0.
         25    1    4    4    0    0 -0.13144687230E+02  0.29705907413E+00 -0.12819432065E+03  0.17959444032E+03  0.12509000000E+03 0.  0.
         25    1    3    3    0    0  0.48022207810E+02  0.41945715893E+02 -0.27752983454E+02  0.14311992075E+03  0.12509000000E+03 0.  0.
         25    1    4    4    0    0 -0.34877520580E+02 -0.42242774967E+02 -0.25757242726E+03  0.29153380055E+03  0.12509000000E+03 0.  0.
<mgrwt>
<rscale>  2 0.45420506E+03</rscale>
<asrwt>0</asrwt>
<pdfrwt beam="1">  1       21 0.14759444E-01 0.45420506E+03</pdfrwt>
<pdfrwt beam="2">  1       21 0.75571168E-01 0.45420506E+03</pdfrwt>
<totfact> 0.58174097E+04</totfact>
</mgrwt>
</event>
<event>
 7    0  0.4709932E-002  0.4550199E+03  0.7546771E-02  0.1026236E+00
         21   -1    0    0  502  501  0.00000000000E+00  0.00000000000E+00  0.30210882593E+02  0.30210882593E+02  0.00000000000E+00 0. -1.
         21   -1    0    0  501  502 -0.00000000000E+00 -0.00000000000E+00 -0.17133157257E+04  0.17133157257E+04  0.00000000000E+00 0. -1.
      99926    2    1    2    0    0 -0.71054273576E-14  0.00000000000E+00 -0.16831048431E+04  0.17435266083E+04  0.45501991268E+03 0.  0.
      99925    2    3    3    0    0  0.33569591285E+02  0.86760338458E+02 -0.13061616737E+04  0.13356198360E+04  0.26299763267E+03 0.  0.
         25    1    3    3    0    0 -0.33569591285E+02 -0.86760338458E+02 -0.37694316942E+03  0.40790677227E+03  0.12509000000E+03 0.  0.
         25    1    4    4    0    0  0.32740923125E+02  0.72092471702E+02 -0.82901990015E+03  0.84213466588E+03  0.12509000000E+03 0.  0.
         25    1    4    4    0    0  0.82866816018E+00  0.14667866756E+02 -0.47714177351E+03  0.49348517013E+03  0.12509000000E+03 0.  0.
<mgrwt>
<rscale>  2 0.45501991E+03</rscale>
<asrwt>0</asrwt>
<pdfrwt beam="1">  1       21 0.44427763E-02 0.45501991E+03</pdfrwt>
<pdfrwt beam="2">  1       21 0.25195823E+00 0.45501991E+03</pdfrwt>
<totfact> 0.18367420E+04</totfact>
</mgrwt>
</event>
<event>
 7    0  0.4709932E-002  0.4675290E+03  0.7546771E-02  0.1022620E+00
         21   -1    0    0  502  501  0.00000000000E+00  0.00000000000E+00  0.46319142758E+02  0.46319142758E+02  0.00000000000E+00 0.  1.
         21   -1    0    0  501  502 -0.00000000000E+00 -0.00000000000E+00 -0.11797681246E+04  0.11797681246E+04  0.00000000000E+00 0.  1.
      99926    2    1    2    0    0  0.14210854715E-13  0.00000000000E+00 -0.11334489818E+04  0.12260872673E+04  0.46752902876E+03 0.  0.
      99925    2    3    3    0    0 -0.87982358682E+02  0.79115442795E+02 -0.80577018924E+03  0.85592372519E+03  0.26332428059E+03 0.  0.
         25    1    4    4    0    0 -0.31285060978E+02 -0.23252148667E+01 -0.36811836889E+03  0.39005487214E+03  0.12509000000E+03 0.  0.
         25    1    4    4    0    0 -0.56697297704E+02  0.81440657662E+02 -0.43765182035E+03  0.46586885305E+03  0.12509000000E+03 0.  0.
         25    1    3    3    0    0  0.87982358682E+02 -0.79115442795E+02 -0.32767879257E+03  0.37016354214E+03  0.12509000000E+03 0.  0.
<mgrwt>
<rscale>  2 0.46752903E+03</rscale>
<asrwt>0</asrwt>
<pdfrwt beam="1">  1       21 0.68116382E-02 0.46752903E+03</pdfrwt>
<pdfrwt beam="2">  1       21 0.17349532E+00 0.46752903E+03</pdfrwt>
<totfact> 0.28459689E+04</totfact>
</mgrwt>
</event>
<event>
 7    0  0.4709932E-002  0.4578826E+03  0.7546771E-02  0.1025397E+00
         21   -1    0    0  502  501  0.00000000000E+00  0.00000000000E+00  0.23233357496E+03  0.23233357496E+03  0.00000000000E+00 0. -1.
         21   -1    0    0  501  502 -0.00000000000E+00 -0.00000000000E+00 -0.22559858928E+03  0.22559858928E+03  0.00000000000E+00 0. -1.
      99926    2    1    2    0    0  0.00000000000E+00  0.33306690739E-14  0.67349856805E+01  0.45793216423E+03  0.45788263453E+03 0.  0.
      99925    2    3    3    0    0 -0.11358729899E+03 -0.13295728389E+01 -0.18351864851E+02  0.28710856977E+03  0.26304124702E+03 0.  0.
         25    1    4    4    0    0 -0.64700304456E+02  0.29484614593E+02  0.16908739620E+02  0.14487541361E+03  0.12509000000E+03 0.  0.
         25    1    4    4    0    0 -0.48886994537E+02 -0.30814187431E+02 -0.35260604471E+02  0.14223315615E+03  0.12509000000E+03 0.  0.
         25    1    3    3    0    0  0.11358729899E+03  0.13295728389E+01  0.25086850532E+02  0.17082359447E+03  0.12509000000E+03 0.  0.
<mgrwt>
<rscale>  2 0.45788263E+03</rscale>
<asrwt>0</asrwt>
<pdfrwt beam="1">  1       21 0.34166702E-01 0.45788263E+03</pdfrwt>
<pdfrwt beam="2">  1       21 0.33176263E-01 0.45788263E+03</pdfrwt>
<totfact> 0.66782230E+04</totfact>
</mgrwt>
</event>
<event>
 7    0  0.4709932E-002  0.4547767E+03  0.7546771E-02  0.1026307E+00
         21   -1    0    0  502  501  0.00000000000E+00  0.00000000000E+00  0.18318203347E+04  0.18318203347E+04  0.00000000000E+00 0.  1.
         21   -1    0    0  501  502 -0.00000000000E+00 -0.00000000000E+00 -0.28226267592E+02  0.28226267592E+02  0.00000000000E+00 0.  1.
      99926    2    1    2    0    0  0.00000000000E+00  0.00000000000E+00  0.18035940671E+04  0.18600466023E+04  0.45477665265E+03 0.  0.
      99925    2    3    3    0    0  0.66695927640E+02 -0.86009683482E+02  0.12593759476E+04  0.12911293129E+04  0.26294697743E+03 0.  0.
         25    1    3    3    0    0 -0.66695927640E+02  0.86009683482E+02  0.54421811953E+03  0.56891728937E+03  0.12509000000E+03 0.  0.
         25    1    4    4    0    0  0.55796742492E+02 -0.12456237953E+02  0.67884980240E+03  0.69264204078E+03  0.12509000000E+03 0.  0.
         25    1    4    4    0    0  0.10899185148E+02 -0.73553445528E+02  0.58052614518E+03  0.59848727215E+03  0.12509000000E+03 0.  0.
<mgrwt>
<rscale>  2 0.45477665E+03</rscale>
<asrwt>0</asrwt>
<pdfrwt beam="1">  1       21 0.26938526E+00 0.45477665E+03</pdfrwt>
<pdfrwt beam="2">  1       21 0.41509230E-02 0.45477665E+03</pdfrwt>
<totfact> 0.16160405E+04</totfact>
</mgrwt>
</event>
<event>
 7    0  0.4709932E-002  0.4607337E+03  0.7546771E-02  0.1024569E+00
         21   -1    0    0  502  501  0.00000000000E+00  0.00000000000E+00  0.62198266850E+03  0.62198266850E+03  0.00000000000E+00 0.  1.
         21   -1    0    0  501  502 -0.00000000000E+00 -0.00000000000E+00 -0.85322135027E+02  0.85322135027E+02  0.00000000000E+00 0.  1.
      99926    2    1    2    0    0  0.00000000000E+00  0.35527136788E-14  0.53666053348E+03  0.70730480353E+03  0.46073371583E+03 0.  0.
      99925    2    3    3    0    0 -0.11695221717E+03 -0.17207148788E+02  0.34703683359E+03  0.45122168669E+03  0.26304474830E+03 0.  0.
         25    1    3    3    0    0  0.11695221717E+03  0.17207148788E+02  0.18962369989E+03  0.25608311684E+03  0.12509000000E+03 0.  0.
         25    1    4    4    0    0 -0.49272768804E+02 -0.40276164499E+02  0.20853076577E+03  0.25136142016E+03  0.12509000000E+03 0.  0.
         25    1    4    4    0    0 -0.67679448362E+02  0.23069015711E+02  0.13850606781E+03  0.19986026653E+03  0.12509000000E+03 0.  0.
<mgrwt>
<rscale>  2 0.46073372E+03</rscale>
<asrwt>0</asrwt>
<pdfrwt beam="1">  1       21 0.91468037E-01 0.46073372E+03</pdfrwt>
<pdfrwt beam="2">  1       21 0.12547373E-01 0.46073372E+03</pdfrwt>
<totfact> 0.50204541E+04</totfact>
</mgrwt>
</event>
<event>
 7    0  0.4709932E-002  0.4510343E+03  0.7546771E-02  0.1027414E+00
         21   -1    0    0  502  501  0.00000000000E+00  0.00000000000E+00  0.39036850784E+03  0.39036850784E+03  0.00000000000E+00 0. -1.
         21   -1    0    0  501  502 -0.00000000000E+00 -0.00000000000E+00 -0.13028196381E+03  0.13028196381E+03  0.00000000000E+00 0. -1.
      99926    2    1    2    0    0  0.00000000000E+00  0.00000000000E+00  0.26008654402E+03  0.52065047165E+03  0.45103425951E+03 0.  0.
      99925    2    3    3    0    0 -0.50666771338E+02  0.73880184553E+02  0.23688621813E+03  0.36505109309E+03  0.26291028287E+03 0.  0.
         25    1    4    4    0    0  0.16261115975E+01  0.66728635562E+02  0.12793727740E+03  0.19097332299E+03  0.12509000000E+03 0.  0.
         25    1    3    3    0    0  0.50666771338E+02 -0.73880184553E+02  0.23200325893E+02  0.15559937856E+03  0.12509000000E+03 0.  0.
         25    1    4    4    0    0 -0.52292882935E+02  0.71515489912E+01  0.10894894073E+03  0.17407777010E+03  0.12509000000E+03 0.  0.
<mgrwt>
<rscale>  2 0.45103426E+03</rscale>
<asrwt>0</asrwt>
<pdfrwt beam="1">  1       21 0.57407133E-01 0.45103426E+03</pdfrwt>
<pdfrwt beam="2">  1       21 0.19159112E-01 0.45103426E+03</pdfrwt>
<totfact> 0.65891161E+04</totfact>
</mgrwt>
</event>
<event>
 7    0  0.4709932E-002  0.4555994E+03  0.7546771E-02  0.1026065E+00
         21   -1    0    0  502  501  0.00000000000E+00  0.00000000000E+00  0.13601142687E+03  0.13601142687E+03  0.00000000000E+00 0.  1.
         21   -1    0    0  501  502 -0.00000000000E+00 -0.00000000000E+00 -0.38153197008E+03  0.38153197008E+03  0.00000000000E+00 0.  1.
      99926    2    1    2    0    0  0.00000000000E+00  0.00000000000E+00 -0.24552054321E+03  0.51754339695E+03  0.45559941899E+03 0.  0.
      99925    2    3    3    0    0  0.26130580234E+02 -0.11040193868E+03 -0.14710125891E+03  0.32208174109E+03  0.26310924021E+03 0.  0.
         25    1    4    4    0    0  0.41274768922E+02 -0.55666483379E+02 -0.41794483152E+02  0.14898540480E+03  0.12509000000E+03 0.  0.
         25    1    4    4    0    0 -0.15144188688E+02 -0.54735455299E+02 -0.10530677576E+03  0.17309633629E+03  0.12509000000E+03 0.  0.
         25    1    3    3    0    0 -0.26130580234E+02  0.11040193868E+03 -0.98419284299E+02  0.19546165585E+03  0.12509000000E+03 0.  0.
<mgrwt>
<rscale>  2 0.45559942E+03</rscale>
<asrwt>0</asrwt>
<pdfrwt beam="1">  1       21 0.20001680E-01 0.45559942E+03</pdfrwt>
<pdfrwt beam="2">  1       21 0.56107643E-01 0.45559942E+03</pdfrwt>
<totfact> 0.63751206E+04</totfact>
</mgrwt>
</event>
<event>
 7    0  0.4709932E-002  0.4453821E+03  0.7546771E-02  0.1029108E+00
         21   -1    0    0  502  501  0.00000000000E+00  0.00000000000E+00  0.74127484499E+02  0.74127484499E+02  0.00000000000E+00 0. -1.
         21   -1    0    0  501  502 -0.00000000000E+00 -0.00000000000E+00 -0.66900019082E+03  0.66900019082E+03  0.00000000000E+00 0. -1.
      99926    2    1    2    0    0  0.00000000000E+00  0.00000000000E+00 -0.59487270632E+03  0.74312767532E+03  0.44538208889E+03 0.  0.
      99925    2    3    3    0    0 -0.68983331347E+02  0.19208827999E+02 -0.50374435497E+03  0.57260036490E+03  0.26265019256E+03 0.  0.
         25    1    4    4    0    0 -0.16759007975E+02  0.16723673832E+01 -0.31679457452E+03  0.34101315474E+03  0.12509000000E+03 0.  0.
         25    1    4    4    0    0 -0.52224323372E+02  0.17536460616E+02 -0.18694978045E+03  0.23158721017E+03  0.12509000000E+03 0.  0.
         25    1    3    3    0    0  0.68983331347E+02 -0.19208827999E+02 -0.91128351355E+02  0.17052731042E+03  0.12509000000E+03 0.  0.
<mgrwt>
<rscale>  2 0.44538209E+03</rscale>
<asrwt>0</asrwt>
<pdfrwt beam="1">  1       21 0.10901100E-01 0.44538209E+03</pdfrwt>
<pdfrwt beam="2">  1       21 0.98382383E-01 0.44538209E+03</pdfrwt>
<totfact> 0.54638356E+04</totfact>
</mgrwt>
</event>
<event>
 7    0  0.4709932E-002  0.4521814E+03  0.7546771E-02  0.1027074E+00
         21   -1    0    0  502  501  0.00000000000E+00  0.00000000000E+00  0.54020064866E+03  0.54020064866E+03  0.00000000000E+00 0. -1.
         21   -1    0    0  501  502 -0.00000000000E+00 -0.00000000000E+00 -0.94625970613E+02  0.94625970613E+02  0.00000000000E+00 0. -1.
      99926    2    1    2    0    0  0.00000000000E+00 -0.71054273576E-14  0.44557467804E+03  0.63482661927E+03  0.45218142689E+03 0.  0.
      99925    2    3    3    0    0 -0.46780233618E+02 -0.36680773360E+02  0.41210456613E+03  0.49234284517E+03  0.26274975617E+03 0.  0.
         25    1    4    4    0    0 -0.34365699396E+02  0.17078661035E+02  0.23021951322E+03  0.26480410557E+03  0.12509000000E+03 0.  0.
         25    1    4    4    0    0 -0.12414534222E+02 -0.53759434395E+02  0.18188505291E+03  0.22753873960E+03  0.12509000000E+03 0.  0.
         25    1    3    3    0    0  0.46780233618E+02  0.36680773360E+02  0.33470111915E+02  0.14248377411E+03  0.12509000000E+03 0.  0.
<mgrwt>
<rscale>  2 0.45218143E+03</rscale>
<asrwt>0</asrwt>
<pdfrwt beam="1">  1       21 0.79441271E-01 0.45218143E+03</pdfrwt>
<pdfrwt beam="2">  1       21 0.13915584E-01 0.45218143E+03</pdfrwt>
<totfact> 0.57860677E+04</totfact>
</mgrwt>
</event>
<event>
 7    0  0.4709932E-002  0.4354061E+03  0.7546771E-02  0.1032166E+00
         21   -1    0    0  502  501  0.00000000000E+00  0.00000000000E+00  0.47583378556E+03  0.47583378556E+03  0.00000000000E+00 0.  1.
         21   -1    0    0  501  502 -0.00000000000E+00 -0.00000000000E+00 -0.99603286919E+02  0.99603286919E+02  0.00000000000E+00 0.  1.
      99926    2    1    2    0    0 -0.71054273576E-14 -0.71054273576E-14  0.37623049865E+03  0.57543707248E+03  0.43540605907E+03 0.  0.
      99925    2    3    3    0    0  0.52278788061E+02  0.63119965111E+02  0.18073530859E+03  0.32930077058E+03  0.26278611847E+03 0.  0.
         25    1    4    4    0    0  0.13833765972E+02  0.18572810177E+02  0.43336209343E+02  0.13439441022E+03  0.12509000000E+03 0.  0.
         25    1    3    3    0    0 -0.52278788061E+02 -0.63119965111E+02  0.19549519006E+03  0.24613630190E+03  0.12509000000E+03 0.  0.
         25    1    4    4    0    0  0.38445022089E+02  0.44547154934E+02  0.13739909925E+03  0.19490636036E+03  0.12509000000E+03 0.  0.
<mgrwt>
<rscale>  2 0.43540606E+03</rscale>
<asrwt>0</asrwt>
<pdfrwt beam="1">  1       21 0.69975556E-01 0.43540606E+03</pdfrwt>
<pdfrwt beam="2">  1       21 0.14647542E-01 0.43540606E+03</pdfrwt>
<totfact> 0.70522586E+04</totfact>
</mgrwt>
</event>
<event>
 7    0  0.4709932E-002  0.4816281E+03  0.7546771E-02  0.1018689E+00
         21   -1    0    0  502  501  0.00000000000E+00  0.00000000000E+00  0.10335510274E+03  0.10335510274E+03  0.00000000000E+00 0.  1.
         21   -1    0    0  501  502 -0.00000000000E+00 -0.00000000000E+00 -0.56108891544E+03  0.56108891544E+03  0.00000000000E+00 0.  1.
      99926    2    1    2    0    0  0.00000000000E+00  0.00000000000E+00 -0.45773381270E+03  0.66444401818E+03  0.48162808265E+03 0.  0.
      99925    2    3    3    0    0  0.19188756898E+02 -0.26239964591E+02 -0.98604814138E+02  0.28276628783E+03  0.26301543686E+03 0.  0.
         25    1    4    4    0    0  0.88902920727E+01 -0.53546812726E+02 -0.45170961762E+02  0.14364617062E+03  0.12509000000E+03 0.  0.
         25    1    4    4    0    0  0.10298464825E+02  0.27306848135E+02 -0.53433852376E+02  0.13912011721E+03  0.12509000000E+03 0.  0.
         25    1    3    3    0    0 -0.19188756898E+02  0.26239964591E+02 -0.35912899857E+03  0.38167773035E+03  0.12509000000E+03 0.  0.
<mgrwt>
<rscale>  2 0.48162808E+03</rscale>
<asrwt>0</asrwt>
<pdfrwt beam="1">  1       21 0.15199280E-01 0.48162808E+03</pdfrwt>
<pdfrwt beam="2">  1       21 0.82513074E-01 0.48162808E+03</pdfrwt>
<totfact> 0.44718727E+04</totfact>
</mgrwt>
</event>
<event>
 7    0  0.4709932E-002  0.4534616E+03  0.7546771E-02  0.1026695E+00
         21   -1    0    0  502  501  0.00000000000E+00  0.00000000000E+00  0.15780553398E+04  0.15780553398E+04  0.00000000000E+00 0. -1.
         21   -1    0    0  501  502 -0.00000000000E+00 -0.00000000000E+00 -0.32576077119E+02  0.32576077119E+02  0.00000000000E+00 0. -1.
      99926    2    1    2    0    0  0.00000000000E+00 -0.35527136788E-14  0.15454792626E+04  0.16106314169E+04  0.45346158579E+03 0.  0.
      99925    2    3    3    0    0  0.27309255420E+02 -0.64434621242E+01  0.13580531264E+04  0.13835557065E+04  0.26292733783E+03 0.  0.
         25    1    4    4    0    0  0.18343995058E+02 -0.28531814853E+02  0.52139942104E+03  0.53726662931E+03  0.12509000000E+03 0.  0.
         25    1    3    3    0    0 -0.27309255420E+02  0.64434621242E+01  0.18742613620E+03  0.22707571042E+03  0.12509000000E+03 0.  0.
         25    1    4    4    0    0  0.89652603620E+01  0.22088352729E+02  0.83665370541E+03  0.84628907715E+03  0.12509000000E+03 0.  0.
<mgrwt>
<rscale>  2 0.45346159E+03</rscale>
<asrwt>0</asrwt>
<pdfrwt beam="1">  1       21 0.23206691E+00 0.45346159E+03</pdfrwt>
<pdfrwt beam="2">  1       21 0.47906006E-02 0.45346159E+03</pdfrwt>
<totfact> 0.21445650E+04</totfact>
</mgrwt>
</event>
<event>
 7    0  0.4709932E-002  0.4566956E+03  0.7546771E-02  0.1025744E+00
         21   -1    0    0  502  501  0.00000000000E+00  0.00000000000E+00  0.19168241829E+03  0.19168241829E+03  0.00000000000E+00 0.  1.
         21   -1    0    0  501  502 -0.00000000000E+00 -0.00000000000E+00 -0.27202660745E+03  0.27202660745E+03  0.00000000000E+00 0.  1.
      99926    2    1    2    0    0  0.71054273576E-14  0.00000000000E+00 -0.80344189162E+02  0.46370902574E+03  0.45669560083E+03 0.  0.
      99925    2    3    3    0    0 -0.58257075886E+02  0.97285974034E+02 -0.70468446151E+02  0.29458337412E+03  0.26259305926E+03 0.  0.
         25    1    4    4    0    0 -0.20367870060E+02  0.10551007020E+02 -0.48860830666E+02  0.13623899131E+03  0.12509000000E+03 0.  0.
         25    1    3    3    0    0  0.58257075886E+02 -0.97285974034E+02 -0.98757430110E+01  0.16912565162E+03  0.12509000000E+03 0.  0.
         25    1    4    4    0    0 -0.37889205825E+02  0.86734967014E+02 -0.21607615485E+02  0.15834438281E+03  0.12509000000E+03 0.  0.
<mgrwt>
<rscale>  2 0.45669560E+03</rscale>
<asrwt>0</asrwt>
<pdfrwt beam="1">  1       21 0.28188591E-01 0.45669560E+03</pdfrwt>
<pdfrwt beam="2">  1       21 0.40003912E-01 0.45669560E+03</pdfrwt>
<totfact> 0.66998418E+04</totfact>
</mgrwt>
</event>
<event>
 7    0  0.4709932E-002  0.4552459E+03  0.7546771E-02  0.1026169E+00
         21   -1    0    0  502  501  0.00000000000E+00  0.00000000000E+00  0.17621010921E+03  0.17621010921E+03  0.00000000000E+00 0. -1.
         21   -1    0    0  501  502 -0.00000000000E+00 -0.00000000000E+00 -0.29403645838E+03  0.29403645838E+03  0.00000000000E+00 0. -1.
      99926    2    1    2    0    0  0.00000000000E+00  0.35527136788E-14 -0.11782634916E+03  0.47024656759E+03  0.45524585201E+03 0.  0.
      99925    2    3    3    0    0  0.27579846551E+02  0.24297929285E+02 -0.18471338175E+03  0.32371185999E+03  0.26328558182E+03 0.  0.
         25    1    4    4    0    0  0.42086420675E+02  0.26333654564E+02 -0.12747617347E+03  0.18537100925E+03  0.12509000000E+03 0.  0.
         25    1    4    4    0    0 -0.14506574124E+02 -0.20357252797E+01 -0.57237208285E+02  0.13834085074E+03  0.12509000000E+03 0.  0.
         25    1    3    3    0    0 -0.27579846551E+02 -0.24297929285E+02  0.66887032590E+02  0.14653470760E+03  0.12509000000E+03 0.  0.
<mgrwt>
<rscale>  2 0.45524585E+03</rscale>
<asrwt>0</asrwt>
<pdfrwt beam="1">  1       21 0.25913252E-01 0.45524585E+03</pdfrwt>
<pdfrwt beam="2">  1       21 0.43240655E-01 0.45524585E+03</pdfrwt>
<totfact> 0.67286053E+04</totfact>
</mgrwt>
</event>
<event>
 7    0  0.4709932E-002  0.4576282E+03  0.7546771E-02  0.1025471E+00
         21   -1    0    0  502  501  0.00000000000E+00  0.00000000000E+00  0.19934964562E+03  0.19934964562E+03  0.00000000000E+00 0. -1.
         21   -1    0    0  501  502 -0.00000000000E+00 -0.00000000000E+00 -0.26263344032E+03  0.26263344032E+03  0.00000000000E+00 0. -1.
      99926    2    1    2    0    0  0.00000000000E+00  0.35527136788E-14 -0.63283794699E+02  0.46198308595E+03  0.45762816022E+03 0.  0.
      99925    2    3    3    0    0 -0.10223206380E+03  0.18018463455E+02  0.11632273843E+02  0.28299709398E+03  0.26301328011E+03 0.  0.
         25    1    4    4    0    0 -0.71404524272E+02  0.34416525775E+02  0.32081412736E+02  0.15152500941E+03  0.12509000000E+03 0.  0.
         25    1    3    3    0    0  0.10223206380E+03 -0.18018463455E+02 -0.74916068542E+02  0.17898599196E+03  0.12509000000E+03 0.  0.
         25    1    4    4    0    0 -0.30827539523E+02 -0.16398062320E+02 -0.20449138893E+02  0.13147208457E+03  0.12509000000E+03 0.  0.
<mgrwt>
<rscale>  2 0.45762816E+03</rscale>
<asrwt>0</asrwt>
<pdfrwt beam="1">  1       21 0.29316124E-01 0.45762816E+03</pdfrwt>
<pdfrwt beam="2">  1       21 0.38622565E-01 0.45762816E+03</pdfrwt>
<totfact> 0.66628830E+04</totfact>
</mgrwt>
</event>
<event>
 7    0  0.4709932E-002  0.4281776E+03  0.7546771E-02  0.1034437E+00
         21   -1    0    0  502  501  0.00000000000E+00  0.00000000000E+00  0.27845758250E+02  0.27845758250E+02  0.00000000000E+00 0.  1.
         21   -1    0    0  501  502 -0.00000000000E+00 -0.00000000000E+00 -0.16459961432E+04  0.16459961432E+04  0.00000000000E+00 0.  1.
      99926    2    1    2    0    0  0.00000000000E+00 -0.44408920985E-15 -0.16181503850E+04  0.16738419015E+04  0.42817758317E+03 0.  0.
      99925    2    3    3    0    0  0.82391129386E+02  0.30639328264E+01 -0.11324267792E+04  0.11655382372E+04  0.26323238033E+03 0.  0.
         25    1    4    4    0    0  0.58719021442E+02  0.69940870760E+01 -0.43175724326E+03  0.45338578048E+03  0.12509000000E+03 0.  0.
         25    1    3    3    0    0 -0.82391129386E+02 -0.30639328264E+01 -0.48572360572E+03  0.50830366430E+03  0.12509000000E+03 0.  0.
         25    1    4    4    0    0  0.23672107944E+02 -0.39301542496E+01 -0.70066953597E+03  0.71215245667E+03  0.12509000000E+03 0.  0.
<mgrwt>
<rscale>  2 0.42817758E+03</rscale>
<asrwt>0</asrwt>
<pdfrwt beam="1">  1       21 0.40949632E-02 0.42817758E+03</pdfrwt>
<pdfrwt beam="2">  1       21 0.24205833E+00 0.42817758E+03</pdfrwt>
<totfact> 0.24537089E+04</totfact>
</mgrwt>
</event>
<event>
 7    0  0.4709932E-002  0.4526968E+03  0.7546771E-02  0.1026921E+00
         21   -1    0    0  502  501  0.00000000000E+00  0.00000000000E+00  0.34239504771E+03  0.34239504771E+03  0.00000000000E+00 0.  1.
         21   -1    0    0  501  502 -0.00000000000E+00 -0.00000000000E+00 -0.14963300963E+03  0.14963300963E+03  0.00000000000E+00 0.  1.
      99926    2    1    2    0    0 -0.19984014443E-14 -0.14210854715E-13  0.19276203808E+03  0.49202805734E+03  0.45269681453E+03 0.  0.
      99925    2    3    3    0    0 -0.92377507964E+00  0.10811033239E+03  0.94207073340E+02  0.29954614519E+03  0.26299091829E+03 0.  0.
         25    1    4    4    0    0  0.20670921258E+02  0.24713346136E+02  0.20741520424E+02  0.13082719607E+03  0.12509000000E+03 0.  0.
         25    1    4    4    0    0 -0.21594696337E+02  0.83396986250E+02  0.73465552916E+02  0.16871894912E+03  0.12509000000E+03 0.  0.
         25    1    3    3    0    0  0.92377507964E+00 -0.10811033239E+03  0.98554964739E+02  0.19248191215E+03  0.12509000000E+03 0.  0.
<mgrwt>
<rscale>  2 0.45269681E+03</rscale>
<asrwt>0</asrwt>
<pdfrwt beam="1">  1       21 0.50352213E-01 0.45269681E+03</pdfrwt>
<pdfrwt beam="2">  1       21 0.22004854E-01 0.45269681E+03</pdfrwt>
<totfact> 0.67052045E+04</totfact>
</mgrwt>
</event>
<event>
 7    0  0.4709932E-002  0.4248121E+03  0.7546771E-02  0.1035511E+00
         21   -1    0    0  502  501  0.00000000000E+00  0.00000000000E+00  0.45614501281E+02  0.45614501281E+02  0.00000000000E+00 0.  1.
         21   -1    0    0  501  502 -0.00000000000E+00 -0.00000000000E+00 -0.98907870568E+03  0.98907870568E+03  0.00000000000E+00 0.  1.
      99926    2    1    2    0    0  0.00000000000E+00  0.00000000000E+00 -0.94346420440E+03  0.10346932070E+04  0.42481210853E+03 0.  0.
      99925    2    3    3    0    0  0.91119478460E+01 -0.74915510644E+02 -0.68758487233E+03  0.74004578713E+03  0.26305788161E+03 0.  0.
         25    1    4    4    0    0 -0.28465880661E+02 -0.61767596617E+02 -0.35411838476E+03  0.38167116852E+03  0.12509000000E+03 0.  0.
         25    1    3    3    0    0 -0.91119478460E+01  0.74915510644E+02 -0.25587933208E+03  0.29464741983E+03  0.12509000000E+03 0.  0.
         25    1    4    4    0    0  0.37577828507E+02 -0.13147914027E+02 -0.33346648756E+03  0.35837461861E+03  0.12509000000E+03 0.  0.
<mgrwt>
<rscale>  2 0.42481211E+03</rscale>
<asrwt>0</asrwt>
<pdfrwt beam="1">  1       21 0.67080153E-02 0.42481211E+03</pdfrwt>
<pdfrwt beam="2">  1       21 0.14545274E+00 0.42481211E+03</pdfrwt>
<totfact> 0.48251041E+04</totfact>
</mgrwt>
</event>
<event>
 7    0  0.4709932E-002  0.4616585E+03  0.7546771E-02  0.1024301E+00
         21   -1    0    0  502  501  0.00000000000E+00  0.00000000000E+00  0.23948464948E+03  0.23948464948E+03  0.00000000000E+00 0.  1.
         21   -1    0    0  501  502 -0.00000000000E+00 -0.00000000000E+00 -0.22248671496E+03  0.22248671496E+03  0.00000000000E+00 0.  1.
      99926    2    1    2    0    0  0.00000000000E+00  0.00000000000E+00  0.16997934523E+02  0.46197136444E+03  0.46165854458E+03 0.  0.
      99925    2    3    3    0    0 -0.20995220069E+02 -0.98973859310E+02  0.73858649197E+02  0.29133352261E+03  0.26302755985E+03 0.  0.
         25    1    4    4    0    0 -0.11080902545E+02 -0.11951373372E+02  0.54462571818E+02  0.13740197071E+03  0.12509000000E+03 0.  0.
         25    1    4    4    0    0 -0.99143175245E+01 -0.87022485938E+02  0.19396077379E+02  0.15393155189E+03  0.12509000000E+03 0.  0.
         25    1    3    3    0    0  0.20995220069E+02  0.98973859310E+02 -0.56860714674E+02  0.17063784183E+03  0.12509000000E+03 0.  0.
<mgrwt>
<rscale>  2 0.46165854E+03</rscale>
<asrwt>0</asrwt>
<pdfrwt beam="1">  1       21 0.35218331E-01 0.46165854E+03</pdfrwt>
<pdfrwt beam="2">  1       21 0.32718634E-01 0.46165854E+03</pdfrwt>
<totfact> 0.64540422E+04</totfact>
</mgrwt>
</event>
<event>
 7    0  0.4709932E-002  0.4536852E+03  0.7546771E-02  0.1026629E+00
         21   -1    0    0  502  501  0.00000000000E+00  0.00000000000E+00  0.67024886299E+02  0.67024886299E+02  0.00000000000E+00 0.  1.
         21   -1    0    0  501  502 -0.00000000000E+00 -0.00000000000E+00 -0.76773820128E+03  0.76773820128E+03  0.00000000000E+00 0.  1.
      99926    2    1    2    0    0  0.00000000000E+00  0.00000000000E+00 -0.70071331498E+03  0.83476308758E+03  0.45368520209E+03 0.  0.
      99925    2    3    3    0    0 -0.45194566473E+02 -0.97178637475E+02 -0.38353981143E+03  0.47736586337E+03  0.26322831181E+03 0.  0.
         25    1    4    4    0    0 -0.18945811053E+01 -0.22541257188E+02 -0.13034924563E+03  0.18207177609E+03  0.12509000000E+03 0.  0.
         25    1    3    3    0    0  0.45194566473E+02  0.97178637475E+02 -0.31717350355E+03  0.35739722421E+03  0.12509000000E+03 0.  0.
         25    1    4    4    0    0 -0.43299985367E+02 -0.74637380286E+02 -0.25319056580E+03  0.29529408728E+03  0.12509000000E+03 0.  0.
<mgrwt>
<rscale>  2 0.45368520E+03</rscale>
<asrwt>0</asrwt>
<pdfrwt beam="1">  1       21 0.98566004E-02 0.45368520E+03</pdfrwt>
<pdfrwt beam="2">  1       21 0.11290268E+00 0.45368520E+03</pdfrwt>
<totfact> 0.46607787E+04</totfact>
</mgrwt>
</event>
<event>
 7    0  0.4709932E-002  0.4485943E+03  0.7546771E-02  0.1028142E+00
         21   -1    0    0  502  501  0.00000000000E+00  0.00000000000E+00  0.91864043317E+03  0.91864043317E+03  0.00000000000E+00 0.  1.
         21   -1    0    0  501  502 -0.00000000000E+00 -0.00000000000E+00 -0.54764858177E+02  0.54764858177E+02  0.00000000000E+00 0.  1.
      99926    2    1    2    0    0 -0.71054273576E-14  0.00000000000E+00  0.86387557499E+03  0.97340529135E+03  0.44859430687E+03 0.  0.
      99925    2    3    3    0    0 -0.43122817244E+02 -0.57766987641E+02  0.71866147158E+03  0.76863408693E+03  0.26292098933E+03 0.  0.
         25    1    4    4    0    0  0.18568834480E+02 -0.24362986843E+02  0.36133116551E+03  0.38359624087E+03  0.12509000000E+03 0.  0.
         25    1    4    4    0    0 -0.61691651724E+02 -0.33404000798E+02  0.35733030606E+03  0.38503784605E+03  0.12509000000E+03 0.  0.
         25    1    3    3    0    0  0.43122817244E+02  0.57766987641E+02  0.14521410341E+03  0.20477120442E+03  0.12509000000E+03 0.  0.
<mgrwt>
<rscale>  2 0.44859431E+03</rscale>
<asrwt>0</asrwt>
<pdfrwt beam="1">  1       21 0.13509417E+00 0.44859431E+03</pdfrwt>
<pdfrwt beam="2">  1       21 0.80536562E-02 0.44859431E+03</pdfrwt>
<totfact> 0.42285428E+04</totfact>
</mgrwt>
</event>
<event>
 7    0  0.4709932E-002  0.4190838E+03  0.7546771E-02  0.1037365E+00
         21   -1    0    0  502  501  0.00000000000E+00  0.00000000000E+00  0.11108796813E+04  0.11108796813E+04  0.00000000000E+00 0. -1.
         21   -1    0    0  501  502 -0.00000000000E+00 -0.00000000000E+00 -0.39525264505E+02  0.39525264505E+02  0.00000000000E+00 0. -1.
      99926    2    1    2    0    0  0.00000000000E+00  0.00000000000E+00  0.10713544168E+04  0.11504049458E+04  0.41908382568E+03 0.  0.
      99925    2    3    3    0    0  0.36088509831E+02  0.61449284181E+02  0.76005098166E+03  0.80742428761E+03  0.26301728163E+03 0.  0.
         25    1    4    4    0    0  0.19053982806E+02  0.52603917107E+02  0.49650075160E+03  0.51506381235E+03  0.12509000000E+03 0.  0.
         25    1    3    3    0    0 -0.36088509831E+02 -0.61449284181E+02  0.31130343515E+03  0.34298065821E+03  0.12509000000E+03 0.  0.
         25    1    4    4    0    0  0.17034527026E+02  0.88453670740E+01  0.26355023006E+03  0.29236047526E+03  0.12509000000E+03 0.  0.
<mgrwt>
<rscale>  2 0.41908383E+03</rscale>
<asrwt>0</asrwt>
<pdfrwt beam="1">  1       21 0.16336464E+00 0.41908383E+03</pdfrwt>
<pdfrwt beam="2">  1       21 0.58125396E-02 0.41908383E+03</pdfrwt>
<totfact> 0.45140017E+04</totfact>
</mgrwt>
</event>
<event>
 7    0  0.4709932E-002  0.4624415E+03  0.7546771E-02  0.1024076E+00
         21   -1    0    0  502  501  0.00000000000E+00  0.00000000000E+00  0.10618280232E+03  0.10618280232E+03  0.00000000000E+00 0.  1.
         21   -1    0    0  501  502 -0.00000000000E+00 -0.00000000000E+00 -0.50349984211E+03  0.50349984211E+03  0.00000000000E+00 0.  1.
      99926    2    1    2    0    0  0.00000000000E+00  0.14210854715E-13 -0.39731703979E+03  0.60968264443E+03  0.46244145230E+03 0.  0.
      99925    2    3    3    0    0 -0.40008920107E+01  0.11853660587E+03 -0.22443453153E+03  0.36554578972E+03  0.26303218694E+03 0.  0.
         25    1    4    4    0    0  0.72475032651E+01  0.97039451876E+02 -0.99699497181E+02  0.18723429003E+03  0.12509000000E+03 0.  0.
         25    1    3    3    0    0  0.40008920107E+01 -0.11853660587E+03 -0.17288250826E+03  0.24413685471E+03  0.12509000000E+03 0.  0.
         25    1    4    4    0    0 -0.11248395276E+02  0.21497153994E+02 -0.12473503435E+03  0.17831149969E+03  0.12509000000E+03 0.  0.
<mgrwt>
<rscale>  2 0.46244145E+03</rscale>
<asrwt>0</asrwt>
<pdfrwt beam="1">  1       21 0.15615118E-01 0.46244145E+03</pdfrwt>
<pdfrwt beam="2">  1       21 0.74044094E-01 0.46244145E+03</pdfrwt>
<totfact> 0.54793562E+04</totfact>
</mgrwt>
</event>
<event>
 7    0  0.4709932E-002  0.4625057E+03  0.7546771E-02  0.1024057E+00
         21   -1    0    0  502  501  0.00000000000E+00  0.00000000000E+00  0.13327625166E+04  0.13327625166E+04  0.00000000000E+00 0. -1.
         21   -1    0    0  501  502 -0.00000000000E+00 -0.00000000000E+00 -0.40125585469E+02  0.40125585469E+02  0.00000000000E+00 0. -1.
      99926    2    1    2    0    0  0.00000000000E+00  0.17763568394E-14  0.12926369311E+04  0.13728881020E+04  0.46250568113E+03 0.  0.
      99925    2    3    3    0    0 -0.76307232884E+02  0.64944134298E+01  0.53355158189E+03  0.59976259691E+03  0.26300743510E+03 0.  0.
         25    1    4    4    0    0 -0.20325384938E+02  0.39793398105E+02  0.25220048786E+03  0.28504250557E+03  0.12509000000E+03 0.  0.
         25    1    4    4    0    0 -0.55981847946E+02 -0.33298984675E+02  0.28135109402E+03  0.31472009133E+03  0.12509000000E+03 0.  0.
         25    1    3    3    0    0  0.76307232884E+02 -0.64944134298E+01  0.75908534921E+03  0.77312550513E+03  0.12509000000E+03 0.  0.
<mgrwt>
<rscale>  2 0.46250568E+03</rscale>
<asrwt>0</asrwt>
<pdfrwt beam="1">  1       21 0.19599446E+00 0.46250568E+03</pdfrwt>
<pdfrwt beam="2">  1       21 0.59008223E-02 0.46250568E+03</pdfrwt>
<totfact> 0.25540791E+04</totfact>
</mgrwt>
</event>
<event>
 7    0  0.4709932E-002  0.4493330E+03  0.7546771E-02  0.1027921E+00
         21   -1    0    0  502  501  0.00000000000E+00  0.00000000000E+00  0.13642776189E+04  0.13642776189E+04  0.00000000000E+00 0.  1.
         21   -1    0    0  501  502 -0.00000000000E+00 -0.00000000000E+00 -0.36997621845E+02  0.36997621845E+02  0.00000000000E+00 0.  1.
      99926    2    1    2    0    0  0.35527136788E-14  0.00000000000E+00  0.13272799971E+04  0.14012752408E+04  0.44933296090E+03 0.  0.
      99925    2    3    3    0    0 -0.31367563555E+02  0.10347159305E+03  0.82988572155E+03  0.87711985537E+03  0.26256167893E+03 0.  0.
         25    1    4    4    0    0 -0.62527823855E+01  0.10909086227E+02  0.39686314584E+03  0.41630033639E+03  0.12509000000E+03 0.  0.
         25    1    4    4    0    0 -0.25114781169E+02  0.92562506827E+02  0.43302257571E+03  0.46081951898E+03  0.12509000000E+03 0.  0.
         25    1    3    3    0    0  0.31367563555E+02 -0.10347159305E+03  0.49739427555E+03  0.52415538541E+03  0.12509000000E+03 0.  0.
<mgrwt>
<rscale>  2 0.44933296E+03</rscale>
<asrwt>0</asrwt>
<pdfrwt beam="1">  1       21 0.20062903E+00 0.44933296E+03</pdfrwt>
<pdfrwt beam="2">  1       21 0.54408276E-02 0.44933296E+03</pdfrwt>
<totfact> 0.27488859E+04</totfact>
</mgrwt>
</event>
<event>
 7    0  0.4709932E-002  0.4523450E+03  0.7546771E-02  0.1027025E+00
         21   -1    0    0  502  501  0.00000000000E+00  0.00000000000E+00  0.59543859795E+03  0.59543859795E+03  0.00000000000E+00 0.  1.
         21   -1    0    0  501  502 -0.00000000000E+00 -0.00000000000E+00 -0.85909784583E+02  0.85909784583E+02  0.00000000000E+00 0.  1.
      99926    2    1    2    0    0 -0.24424906542E-14  0.00000000000E+00  0.50952881336E+03  0.68134838253E+03  0.45234500851E+03 0.  0.
      99925    2    3    3    0    0  0.18660348670E+01 -0.79302713489E+02  0.20516388858E+03  0.34285478142E+03  0.26299197234E+03 0.  0.
         25    1    3    3    0    0 -0.18660348670E+01  0.79302713489E+02  0.30436492478E+03  0.33849360111E+03  0.12509000000E+03 0.  0.
         25    1    4    4    0    0 -0.33513084912E+02 -0.23476183561E+02  0.11741382108E+03  0.17637395368E+03  0.12509000000E+03 0.  0.
         25    1    4    4    0    0  0.35379119779E+02 -0.55826529928E+02  0.87750067494E+02  0.16648082774E+03  0.12509000000E+03 0.  0.
<mgrwt>
<rscale>  2 0.45234501E+03</rscale>
<asrwt>0</asrwt>
<pdfrwt beam="1">  1       21 0.87564497E-01 0.45234501E+03</pdfrwt>
<pdfrwt beam="2">  1       21 0.12633792E-01 0.45234501E+03</pdfrwt>
<totfact> 0.55069964E+04</totfact>
</mgrwt>
</event>
<event>
 7    0  0.4709932E-002  0.4589743E+03  0.7546771E-02  0.1025079E+00
         21   -1    0    0  502  501  0.00000000000E+00  0.00000000000E+00  0.11657739787E+03  0.11657739787E+03  0.00000000000E+00 0.  1.
         21   -1    0    0  501  502 -0.00000000000E+00 -0.00000000000E+00 -0.45175435126E+03  0.45175435126E+03  0.00000000000E+00 0.  1.
      99926    2    1    2    0    0  0.14210854715E-13 -0.71054273576E-14 -0.33517695339E+03  0.56833174913E+03  0.45897427704E+03 0.  0.
      99925    2    3    3    0    0 -0.58715182942E+02  0.53363013699E+02 -0.10388176938E+03  0.29366822009E+03  0.26297246537E+03 0.  0.
         25    1    4    4    0    0  0.11280615843E+02  0.33209816679E+02 -0.50674282175E+02  0.13944724878E+03  0.12509000000E+03 0.  0.
         25    1    3    3    0    0  0.58715182942E+02 -0.53363013699E+02 -0.23129518402E+03  0.27466352905E+03  0.12509000000E+03 0.  0.
         25    1    4    4    0    0 -0.69995798785E+02  0.20153197019E+02 -0.53207487203E+02  0.15422097131E+03  0.12509000000E+03 0.  0.
<mgrwt>
<rscale>  2 0.45897428E+03</rscale>
<asrwt>0</asrwt>
<pdfrwt beam="1">  1       21 0.17143735E-01 0.45897428E+03</pdfrwt>
<pdfrwt beam="2">  1       21 0.66434465E-01 0.45897428E+03</pdfrwt>
<totfact> 0.58801138E+04</totfact>
</mgrwt>
</event>
<event>
 7    0  0.4709932E-002  0.4417204E+03  0.7546771E-02  0.1030220E+00
         21   -1    0    0  502  501  0.00000000000E+00  0.00000000000E+00  0.22611243702E+03  0.22611243702E+03  0.00000000000E+00 0.  1.
         21   -1    0    0  501  502 -0.00000000000E+00 -0.00000000000E+00 -0.21572999297E+03  0.21572999297E+03  0.00000000000E+00 0.  1.
      99926    2    1    2    0    0  0.71054273576E-14 -0.14210854715E-13  0.10382444055E+02  0.44184242999E+03  0.44172042945E+03 0.  0.
      99925    2    3    3    0    0 -0.40424218761E+02  0.73538116903E+02  0.60739509179E+02  0.28301763908E+03  0.26337753123E+03 0.  0.
         25    1    4    4    0    0 -0.27717372030E+02 -0.43622677925E+01  0.34938156767E+02  0.13287386873E+03  0.12509000000E+03 0.  0.
         25    1    3    3    0    0  0.40424218761E+02 -0.73538116903E+02 -0.50357065124E+02  0.15882479091E+03  0.12509000000E+03 0.  0.
         25    1    4    4    0    0 -0.12706846731E+02  0.77900384696E+02  0.25801352412E+02  0.15014377035E+03  0.12509000000E+03 0.  0.
<mgrwt>
<rscale>  2 0.44172043E+03</rscale>
<asrwt>0</asrwt>
<pdfrwt beam="1">  1       21 0.33251829E-01 0.44172043E+03</pdfrwt>
<pdfrwt beam="2">  1       21 0.31724999E-01 0.44172043E+03</pdfrwt>
<totfact> 0.77402594E+04</totfact>
</mgrwt>
</event>
<event>
 7    0  0.4709932E-002  0.4507477E+03  0.7546771E-02  0.1027499E+00
         21   -1    0    0  502  501  0.00000000000E+00  0.00000000000E+00  0.52580305171E+03  0.52580305171E+03  0.00000000000E+00 0.  1.
         21   -1    0    0  501  502 -0.00000000000E+00 -0.00000000000E+00 -0.96601533725E+02  0.96601533725E+02  0.00000000000E+00 0.  1.
      99926    2    1    2    0    0  0.00000000000E+00  0.00000000000E+00  0.42920151799E+03  0.62240458544E+03  0.45074773980E+03 0.  0.
      99925    2    3    3    0    0  0.48427209219E+02  0.70983709385E+02  0.36366152435E+03  0.45709614507E+03  0.26325519929E+03 0.  0.
         25    1    3    3    0    0 -0.48427209219E+02 -0.70983709385E+02  0.65539993636E+02  0.16530844037E+03  0.12509000000E+03 0.  0.
         25    1    4    4    0    0  0.49369030212E+02  0.30216904618E+02  0.23872857899E+03  0.27566139555E+03  0.12509000000E+03 0.  0.
         25    1    4    4    0    0 -0.94182099300E+00  0.40766804767E+02  0.12493294536E+03  0.18143474952E+03  0.12509000000E+03 0.  0.
<mgrwt>
<rscale>  2 0.45074774E+03</rscale>
<asrwt>0</asrwt>
<pdfrwt beam="1">  1       21 0.77323977E-01 0.45074774E+03</pdfrwt>
<pdfrwt beam="2">  1       21 0.14206108E-01 0.45074774E+03</pdfrwt>
<totfact> 0.59285531E+04</totfact>
</mgrwt>
</event>
<event>
 7    0  0.4709932E-002  0.4530547E+03  0.7546771E-02  0.1026815E+00
         21   -1    0    0  502  501  0.00000000000E+00  0.00000000000E+00  0.99461334653E+02  0.99461334653E+02  0.00000000000E+00 0. -1.
         21   -1    0    0  501  502 -0.00000000000E+00 -0.00000000000E+00 -0.51592560303E+03  0.51592560303E+03  0.00000000000E+00 0. -1.
      99926    2    1    2    0    0 -0.88817841970E-15  0.00000000000E+00 -0.41646426838E+03  0.61538693768E+03  0.45305473867E+03 0.  0.
      99925    2    3    3    0    0 -0.57638174192E+01 -0.34934789206E+02 -0.11910457700E+03  0.29085041394E+03  0.26297224557E+03 0.  0.
         25    1    3    3    0    0  0.57638174192E+01  0.34934789206E+02 -0.29735969137E+03  0.32453652374E+03  0.12509000000E+03 0.  0.
         25    1    4    4    0    0 -0.34278806171E+02 -0.15366316062E+02 -0.31765395523E+02  0.13441617713E+03  0.12509000000E+03 0.  0.
         25    1    4    4    0    0  0.28514988752E+02 -0.19568473145E+02 -0.87339181480E+02  0.15643423681E+03  0.12509000000E+03 0.  0.
<mgrwt>
<rscale>  2 0.45305474E+03</rscale>
<asrwt>0</asrwt>
<pdfrwt beam="1">  1       21 0.14626667E-01 0.45305474E+03</pdfrwt>
<pdfrwt beam="2">  1       21 0.75871411E-01 0.45305474E+03</pdfrwt>
<totfact> 0.58636665E+04</totfact>
</mgrwt>
</event>
<event>
 7    0  0.4709932E-002  0.4532182E+03  0.7546771E-02  0.1026767E+00
         21   -1    0    0  502  501  0.00000000000E+00  0.00000000000E+00  0.37218306095E+03  0.37218306095E+03  0.00000000000E+00 0.  1.
         21   -1    0    0  501  502 -0.00000000000E+00 -0.00000000000E+00 -0.13797426908E+03  0.13797426908E+03  0.00000000000E+00 0.  1.
      99926    2    1    2    0    0  0.35527136788E-14 -0.14210854715E-13  0.23420879187E+03  0.51015733003E+03  0.45321820704E+03 0.  0.
      99925    2    3    3    0    0  0.18638325814E+02 -0.76327541435E+02  0.58648260263E+02  0.28071825504E+03  0.26303961586E+03 0.  0.
         25    1    4    4    0    0 -0.74468002845E+01 -0.75780851447E+02  0.24793060553E+02  0.14852742586E+03  0.12509000000E+03 0.  0.
         25    1    3    3    0    0 -0.18638325814E+02  0.76327541435E+02  0.17556053161E+03  0.22943907498E+03  0.12509000000E+03 0.  0.
         25    1    4    4    0    0  0.26085126099E+02 -0.54668998729E+00  0.33855199710E+02  0.13219082919E+03  0.12509000000E+03 0.  0.
<mgrwt>
<rscale>  2 0.45321821E+03</rscale>
<asrwt>0</asrwt>
<pdfrwt beam="1">  1       21 0.54732803E-01 0.45321821E+03</pdfrwt>
<pdfrwt beam="2">  1       21 0.20290334E-01 0.45321821E+03</pdfrwt>
<totfact> 0.65483884E+04</totfact>
</mgrwt>
</event>
<event>
 7    0  0.4709932E-002  0.4553195E+03  0.7546771E-02  0.1026147E+00
         21   -1    0    0  502  501  0.00000000000E+00  0.00000000000E+00  0.61637485648E+03  0.61637485648E+03  0.00000000000E+00 0. -1.
         21   -1    0    0  501  502 -0.00000000000E+00 -0.00000000000E+00 -0.84086748114E+02  0.84086748114E+02  0.00000000000E+00 0. -1.
      99926    2    1    2    0    0  0.00000000000E+00  0.17763568394E-14  0.53228810837E+03  0.70046160459E+03  0.45531948037E+03 0.  0.
      99925    2    3    3    0    0  0.31361921107E+02  0.69819971958E+01  0.16774403277E+03  0.31371593942E+03  0.26314883951E+03 0.  0.
         25    1    3    3    0    0 -0.31361921107E+02 -0.69819971958E+01  0.36454407559E+03  0.38674566517E+03  0.12509000000E+03 0.  0.
         25    1    4    4    0    0 -0.47968782580E+01  0.29785826624E+02  0.11069475290E+03  0.16973815696E+03  0.12509000000E+03 0.  0.
         25    1    4    4    0    0  0.36158799365E+02 -0.22803829428E+02  0.57049279873E+02  0.14397778246E+03  0.12509000000E+03 0.  0.
<mgrwt>
<rscale>  2 0.45531948E+03</rscale>
<asrwt>0</asrwt>
<pdfrwt beam="1">  1       21 0.90643359E-01 0.45531948E+03</pdfrwt>
<pdfrwt beam="2">  1       21 0.12365699E-01 0.45531948E+03</pdfrwt>
<totfact> 0.52745163E+04</totfact>
</mgrwt>
</event>
<event>
 7    0  0.4709932E-002  0.4632897E+03  0.7546771E-02  0.1023831E+00
         21   -1    0    0  502  501  0.00000000000E+00  0.00000000000E+00  0.10830760230E+03  0.10830760230E+03  0.00000000000E+00 0. -1.
         21   -1    0    0  501  502 -0.00000000000E+00 -0.00000000000E+00 -0.49543464069E+03  0.49543464069E+03  0.00000000000E+00 0. -1.
      99926    2    1    2    0    0  0.00000000000E+00  0.00000000000E+00 -0.38712703839E+03  0.60374224299E+03  0.46328970647E+03 0.  0.
      99925    2    3    3    0    0 -0.95730909174E+02 -0.56939630507E+02 -0.18042246312E+03  0.33769559665E+03  0.26282983526E+03 0.  0.
         25    1    3    3    0    0  0.95730909174E+02  0.56939630507E+02 -0.20670457526E+03  0.26604664634E+03  0.12509000000E+03 0.  0.
         25    1    4    4    0    0 -0.71326632639E+02 -0.62320543100E+02 -0.85463376187E+02  0.17866962636E+03  0.12509000000E+03 0.  0.
         25    1    4    4    0    0 -0.24404276535E+02  0.53809125933E+01 -0.94959086938E+02  0.15902597029E+03  0.12509000000E+03 0.  0.
<mgrwt>
<rscale>  2 0.46328971E+03</rscale>
<asrwt>0</asrwt>
<pdfrwt beam="1">  1       21 0.15927589E-01 0.46328971E+03</pdfrwt>
<pdfrwt beam="2">  1       21 0.72858036E-01 0.46328971E+03</pdfrwt>
<totfact> 0.54772107E+04</totfact>
</mgrwt>
</event>
<event>
 7    0  0.4709932E-002  0.4546725E+03  0.7546771E-02  0.1026338E+00
         21   -1    0    0  502  501  0.00000000000E+00  0.00000000000E+00  0.44962261218E+03  0.44962261218E+03  0.00000000000E+00 0. -1.
         21   -1    0    0  501  502 -0.00000000000E+00 -0.00000000000E+00 -0.11494478399E+03  0.11494478399E+03  0.00000000000E+00 0. -1.
      99926    2    1    2    0    0  0.00000000000E+00  0.00000000000E+00  0.33467782819E+03  0.56456739616E+03  0.45467251526E+03 0.  0.
      99925    2    3    3    0    0 -0.82228200541E+02  0.65137247755E+02  0.15974760259E+03  0.32529259612E+03  0.26323304988E+03 0.  0.
         25    1    4    4    0    0 -0.65912784297E+00  0.31799728658E+02  0.57745988370E+02  0.14139930857E+03  0.12509000000E+03 0.  0.
         25    1    3    3    0    0  0.82228200541E+02 -0.65137247755E+02  0.17493022559E+03  0.23927480004E+03  0.12509000000E+03 0.  0.
         25    1    4    4    0    0 -0.81569072698E+02  0.33337519097E+02  0.10200161422E+03  0.18389328755E+03  0.12509000000E+03 0.  0.
<mgrwt>
<rscale>  2 0.45467252E+03</rscale>
<asrwt>0</asrwt>
<pdfrwt beam="1">  1       21 0.66120972E-01 0.45467252E+03</pdfrwt>
<pdfrwt beam="2">  1       21 0.16903645E-01 0.45467252E+03</pdfrwt>
<totfact> 0.61072054E+04</totfact>
</mgrwt>
</event>
<event>
 7    0  0.4709932E-002  0.4530843E+03  0.7546771E-02  0.1026806E+00
         21   -1    0    0  502  501  0.00000000000E+00  0.00000000000E+00  0.36566155079E+03  0.36566155079E+03  0.00000000000E+00 0.  1.
         21   -1    0    0  501  502 -0.00000000000E+00 -0.00000000000E+00 -0.14035207161E+03  0.14035207161E+03  0.00000000000E+00 0.  1.
      99926    2    1    2    0    0  0.00000000000E+00  0.00000000000E+00  0.22530947918E+03  0.50601362239E+03  0.45308434605E+03 0.  0.
      99925    2    3    3    0    0  0.79403486958E+02  0.77513134477E+02  0.12739974301E+03  0.31224307691E+03  0.26258683289E+03 0.  0.
         25    1    4    4    0    0  0.20963702174E+02  0.59850283798E+02  0.94807360345E+02  0.16928519414E+03  0.12509000000E+03 0.  0.
         25    1    4    4    0    0  0.58439784783E+02  0.17662850679E+02  0.32592382664E+02  0.14295788277E+03  0.12509000000E+03 0.  0.
         25    1    3    3    0    0 -0.79403486958E+02 -0.77513134477E+02  0.97909736171E+02  0.19377054548E+03  0.12509000000E+03 0.  0.
<mgrwt>
<rscale>  2 0.45308435E+03</rscale>
<asrwt>0</asrwt>
<pdfrwt beam="1">  1       21 0.53773757E-01 0.45308435E+03</pdfrwt>
<pdfrwt beam="2">  1       21 0.20640011E-01 0.45308435E+03</pdfrwt>
<totfact> 0.65845677E+04</totfact>
</mgrwt>
</event>
<event>
 7    0  0.4709932E-002  0.4615861E+03  0.7546771E-02  0.1024322E+00
         21   -1    0    0  502  501  0.00000000000E+00  0.00000000000E+00  0.64863314755E+03  0.64863314755E+03  0.00000000000E+00 0.  1.
         21   -1    0    0  501  502 -0.00000000000E+00 -0.00000000000E+00 -0.82119487769E+02  0.82119487769E+02  0.00000000000E+00 0.  1.
      99926    2    1    2    0    0  0.00000000000E+00  0.00000000000E+00  0.56651365978E+03  0.73075263532E+03  0.46158605623E+03 0.  0.
      99925    2    3    3    0    0  0.98680031971E+02  0.66953581290E+02  0.33968578644E+03  0.44558790577E+03  0.26256735802E+03 0.  0.
         25    1    3    3    0    0 -0.98680031971E+02 -0.66953581290E+02  0.22682787334E+03  0.28516472955E+03  0.12509000000E+03 0.  0.
         25    1    4    4    0    0  0.83522658622E+02  0.34422256829E+02  0.22046237060E+03  0.26909494834E+03  0.12509000000E+03 0.  0.
         25    1    4    4    0    0  0.15157373349E+02  0.32531324461E+02  0.11922341584E+03  0.17649295743E+03  0.12509000000E+03 0.  0.
<mgrwt>
<rscale>  2 0.46158606E+03</rscale>
<asrwt>0</asrwt>
<pdfrwt beam="1">  1       21 0.95387225E-01 0.46158606E+03</pdfrwt>
<pdfrwt beam="2">  1       21 0.12076396E-01 0.46158606E+03</pdfrwt>
<totfact> 0.48693683E+04</totfact>
</mgrwt>
</event>
<event>
 7    0  0.4709932E-002  0.4541964E+03  0.7546771E-02  0.1026478E+00
         21   -1    0    0  502  501  0.00000000000E+00  0.00000000000E+00  0.21983160893E+02  0.21983160893E+02  0.00000000000E+00 0. -1.
         21   -1    0    0  501  502 -0.00000000000E+00 -0.00000000000E+00 -0.23460502228E+04  0.23460502228E+04  0.00000000000E+00 0. -1.
      99926    2    1    2    0    0 -0.53290705182E-14  0.00000000000E+00 -0.23240670620E+04  0.23680333837E+04  0.45419643113E+03 0.  0.
      99925    2    3    3    0    0 -0.15406555640E+02 -0.77495515659E+02 -0.10466931464E+04  0.10821194889E+04  0.26300784868E+03 0.  0.
         25    1    3    3    0    0  0.15406555640E+02  0.77495515659E+02 -0.12773739155E+04  0.12859138949E+04  0.12509000000E+03 0.  0.
         25    1    4    4    0    0 -0.36806310072E+02 -0.63311365520E+02 -0.49138944669E+03  0.51232229103E+03  0.12509000000E+03 0.  0.
         25    1    4    4    0    0  0.21399754432E+02 -0.14184150138E+02 -0.55530369975E+03  0.56979719784E+03  0.12509000000E+03 0.  0.
<mgrwt>
<rscale>  2 0.45419643E+03</rscale>
<asrwt>0</asrwt>
<pdfrwt beam="1">  1       21 0.32328190E-02 0.45419643E+03</pdfrwt>
<pdfrwt beam="2">  1       21 0.34500726E+00 0.45419643E+03</pdfrwt>
<totfact> 0.86317714E+03</totfact>
</mgrwt>
</event>
<event>
 7    0  0.4709932E-002  0.4282061E+03  0.7546771E-02  0.1034428E+00
         21   -1    0    0  502  501  0.00000000000E+00  0.00000000000E+00  0.10673878729E+04  0.10673878729E+04  0.00000000000E+00 0. -1.
         21   -1    0    0  501  502 -0.00000000000E+00 -0.00000000000E+00 -0.42946075368E+02  0.42946075368E+02  0.00000000000E+00 0. -1.
      99926    2    1    2    0    0  0.00000000000E+00  0.00000000000E+00  0.10244417975E+04  0.11103339482E+04  0.42820611875E+03 0.  0.
      99925    2    3    3    0    0  0.20207985186E+02 -0.48007620217E+02  0.48693899202E+03  0.55601466455E+03  0.26330520501E+03 0.  0.
         25    1    4    4    0    0  0.38145435792E+02 -0.31164313892E+02  0.31033016618E+03  0.33819906693E+03  0.12509000000E+03 0.  0.
         25    1    3    3    0    0 -0.20207985186E+02  0.48007620217E+02  0.53750280546E+03  0.55431928367E+03  0.12509000000E+03 0.  0.
         25    1    4    4    0    0 -0.17937450606E+02 -0.16843306325E+02  0.17660882584E+03  0.21781559762E+03  0.12509000000E+03 0.  0.
<mgrwt>
<rscale>  2 0.42820612E+03</rscale>
<asrwt>0</asrwt>
<pdfrwt beam="1">  1       21 0.15696879E+00 0.42820612E+03</pdfrwt>
<pdfrwt beam="2">  1       21 0.63156000E-02 0.42820612E+03</pdfrwt>
<totfact> 0.43545015E+04</totfact>
</mgrwt>
</event>
<event>
 7    0  0.4709932E-002  0.4571312E+03  0.7546771E-02  0.1025617E+00
         21   -1    0    0  502  501  0.00000000000E+00  0.00000000000E+00  0.59380736070E+02  0.59380736070E+02  0.00000000000E+00 0. -1.
         21   -1    0    0  501  502 -0.00000000000E+00 -0.00000000000E+00 -0.87978412965E+03  0.87978412965E+03  0.00000000000E+00 0. -1.
      99926    2    1    2    0    0 -0.14210854715E-13  0.00000000000E+00 -0.82040339358E+03  0.93916486572E+03  0.45713118118E+03 0.  0.
      99925    2    3    3    0    0  0.77612102074E+02 -0.50934595943E+02 -0.65524355458E+03  0.71213347589E+03  0.26300570374E+03 0.  0.
         25    1    4    4    0    0  0.73842623085E+02 -0.47435545731E+01 -0.35415423022E+03  0.38281583193E+03  0.12509000000E+03 0.  0.
         25    1    4    4    0    0  0.37694789886E+01 -0.46191041370E+02 -0.30108932436E+03  0.32931764395E+03  0.12509000000E+03 0.  0.
         25    1    3    3    0    0 -0.77612102074E+02  0.50934595943E+02 -0.16515983900E+03  0.22703138983E+03  0.12509000000E+03 0.  0.
<mgrwt>
<rscale>  2 0.45713118E+03</rscale>
<asrwt>0</asrwt>
<pdfrwt beam="1">  1       21 0.87324619E-02 0.45713118E+03</pdfrwt>
<pdfrwt beam="2">  1       21 0.12938001E+00 0.45713118E+03</pdfrwt>
<totfact> 0.40896780E+04</totfact>
</mgrwt>
</event>
<event>
 7    0  0.4709932E-002  0.4539533E+03  0.7546771E-02  0.1026550E+00
         21   -1    0    0  502  501  0.00000000000E+00  0.00000000000E+00  0.44250642391E+03  0.44250642391E+03  0.00000000000E+00 0. -1.
         21   -1    0    0  501  502 -0.00000000000E+00 -0.00000000000E+00 -0.11642406261E+03  0.11642406261E+03  0.00000000000E+00 0. -1.
      99926    2    1    2    0    0  0.00000000000E+00  0.00000000000E+00  0.32608236130E+03  0.55893048652E+03  0.45395328219E+03 0.  0.
      99925    2    3    3    0    0  0.87025189963E+02  0.21432836498E+02  0.12231579202E+03  0.30358547868E+03  0.26300235688E+03 0.  0.
         25    1    4    4    0    0  0.34735716013E+02 -0.25304141435E+02  0.77683485189E+02  0.15339198647E+03  0.12509000000E+03 0.  0.
         25    1    4    4    0    0  0.52289473950E+02  0.46736977933E+02  0.44632306826E+02  0.15019349222E+03  0.12509000000E+03 0.  0.
         25    1    3    3    0    0 -0.87025189963E+02 -0.21432836498E+02  0.20376656928E+03  0.25534500783E+03  0.12509000000E+03 0.  0.
<mgrwt>
<rscale>  2 0.45395328E+03</rscale>
<asrwt>0</asrwt>
<pdfrwt beam="1">  1       21 0.65074473E-01 0.45395328E+03</pdfrwt>
<pdfrwt beam="2">  1       21 0.17121186E-01 0.45395328E+03</pdfrwt>
<totfact> 0.61790221E+04</totfact>
</mgrwt>
</event>
<event>
 7    0  0.4709932E-002  0.4546853E+03  0.7546771E-02  0.1026334E+00
         21   -1    0    0  502  501  0.00000000000E+00  0.00000000000E+00  0.73443193870E+02  0.73443193870E+02  0.00000000000E+00 0.  1.
         21   -1    0    0  501  502 -0.00000000000E+00 -0.00000000000E+00 -0.70373674130E+03  0.70373674130E+03  0.00000000000E+00 0.  1.
      99926    2    1    2    0    0  0.00000000000E+00  0.71054273576E-14 -0.63029354743E+03  0.77717993517E+03  0.45468527104E+03 0.  0.
      99925    2    3    3    0    0 -0.54443053127E+02 -0.60761168429E+02 -0.26343177276E+03  0.38108520479E+03  0.26300887587E+03 0.  0.
         25    1    3    3    0    0  0.54443053127E+02  0.60761168429E+02 -0.36686177467E+03  0.39609473038E+03  0.12509000000E+03 0.  0.
         25    1    4    4    0    0 -0.52232280395E+02 -0.58547648957E+02 -0.11644505691E+03  0.18805051899E+03  0.12509000000E+03 0.  0.
         25    1    4    4    0    0 -0.22107727319E+01 -0.22135194719E+01 -0.14698671585E+03  0.19303468580E+03  0.12509000000E+03 0.  0.
<mgrwt>
<rscale>  2 0.45468527E+03</rscale>
<asrwt>0</asrwt>
<pdfrwt beam="1">  1       21 0.10800469E-01 0.45468527E+03</pdfrwt>
<pdfrwt beam="2">  1       21 0.10349070E+00 0.45468527E+03</pdfrwt>
<totfact> 0.49009387E+04</totfact>
</mgrwt>
</event>
<event>
 7    0  0.4709932E-002  0.4577827E+03  0.7546771E-02  0.1025426E+00
         21   -1    0    0  502  501  0.00000000000E+00  0.00000000000E+00  0.14460026013E+03  0.14460026013E+03  0.00000000000E+00 0.  1.
         21   -1    0    0  501  502 -0.00000000000E+00 -0.00000000000E+00 -0.36231786293E+03  0.36231786293E+03  0.00000000000E+00 0.  1.
      99926    2    1    2    0    0  0.00000000000E+00  0.00000000000E+00 -0.21771760280E+03  0.50691812305E+03  0.45778273112E+03 0.  0.
      99925    2    3    3    0    0  0.98257900147E+02  0.41527364092E+02 -0.18657974009E+03  0.33959743843E+03  0.26293589307E+03 0.  0.
         25    1    4    4    0    0  0.24376860522E+02  0.52648554782E+02 -0.85076970172E+02  0.16202376555E+03  0.12509000000E+03 0.  0.
         25    1    4    4    0    0  0.73881039625E+02 -0.11121190689E+02 -0.10150276991E+03  0.17757367288E+03  0.12509000000E+03 0.  0.
         25    1    3    3    0    0 -0.98257900147E+02 -0.41527364092E+02 -0.31137862711E+02  0.16732068463E+03  0.12509000000E+03 0.  0.
<mgrwt>
<rscale>  2 0.45778273E+03</rscale>
<asrwt>0</asrwt>
<pdfrwt beam="1">  1       21 0.21264744E-01 0.45778273E+03</pdfrwt>
<pdfrwt beam="2">  1       21 0.53282038E-01 0.45778273E+03</pdfrwt>
<totfact> 0.63375920E+04</totfact>
</mgrwt>
</event>
<event>
 7    0  0.4709932E-002  0.4647713E+03  0.7546771E-02  0.1023406E+00
         21   -1    0    0  502  501  0.00000000000E+00  0.00000000000E+00  0.60242176861E+03  0.60242176861E+03  0.00000000000E+00 0. -1.
         21   -1    0    0  501  502 -0.00000000000E+00 -0.00000000000E+00 -0.89643310402E+02  0.89643310402E+02  0.00000000000E+00 0. -1.
      99926    2    1    2    0    0  0.00000000000E+00  0.00000000000E+00  0.51277845821E+03  0.69206507901E+03  0.46477126243E+03 0.  0.
      99925    2    3    3    0    0 -0.20695148108E+02 -0.11112931877E+03  0.38879419206E+03  0.48278626738E+03  0.26295178559E+03 0.  0.
         25    1    4    4    0    0 -0.20456616962E+02 -0.46242202080E+02  0.25487256697E+03  0.28838229475E+03  0.12509000000E+03 0.  0.
         25    1    4    4    0    0 -0.23853114607E+00 -0.64887116686E+02  0.13392162510E+03  0.19440397264E+03  0.12509000000E+03 0.  0.
         25    1    3    3    0    0  0.20695148108E+02  0.11112931877E+03  0.12398426614E+03  0.20927881163E+03  0.12509000000E+03 0.  0.
<mgrwt>
<rscale>  2 0.46477126E+03</rscale>
<asrwt>0</asrwt>
<pdfrwt beam="1">  1       21 0.88591435E-01 0.46477126E+03</pdfrwt>
<pdfrwt beam="2">  1       21 0.13182840E-01 0.46477126E+03</pdfrwt>
<totfact> 0.49422020E+04</totfact>
</mgrwt>
</event>
<event>
 7    0  0.4709932E-002  0.4509444E+03  0.7546771E-02  0.1027441E+00
         21   -1    0    0  502  501  0.00000000000E+00  0.00000000000E+00  0.21969986439E+03  0.21969986439E+03  0.00000000000E+00 0.  1.
         21   -1    0    0  501  502 -0.00000000000E+00 -0.00000000000E+00 -0.23139624521E+03  0.23139624521E+03  0.00000000000E+00 0.  1.
      99926    2    1    2    0    0  0.00000000000E+00  0.00000000000E+00 -0.11696380818E+02  0.45109610959E+03  0.45094444754E+03 0.  0.
      99925    2    3    3    0    0 -0.10224608874E+03 -0.31537659607E+02 -0.29292704880E+02  0.28554845676E+03  0.26311779104E+03 0.  0.
         25    1    4    4    0    0 -0.65159369073E+02 -0.19204391758E+02  0.23480358799E+02  0.14426845598E+03  0.12509000000E+03 0.  0.
         25    1    3    3    0    0  0.10224608874E+03  0.31537659607E+02  0.17596324062E+02  0.16554765283E+03  0.12509000000E+03 0.  0.
         25    1    4    4    0    0 -0.37086719672E+02 -0.12333267849E+02 -0.52773063679E+02  0.14128000079E+03  0.12509000000E+03 0.  0.
<mgrwt>
<rscale>  2 0.45094445E+03</rscale>
<asrwt>0</asrwt>
<pdfrwt beam="1">  1       21 0.32308804E-01 0.45094445E+03</pdfrwt>
<pdfrwt beam="2">  1       21 0.34028859E-01 0.45094445E+03</pdfrwt>
<totfact> 0.71105957E+04</totfact>
</mgrwt>
</event>
<event>
 7    0  0.4709932E-002  0.4501858E+03  0.7546771E-02  0.1027667E+00
         21   -1    0    0  502  501  0.00000000000E+00  0.00000000000E+00  0.65551774788E+03  0.65551774788E+03  0.00000000000E+00 0. -1.
         21   -1    0    0  501  502 -0.00000000000E+00 -0.00000000000E+00 -0.77292804478E+02  0.77292804478E+02  0.00000000000E+00 0. -1.
      99926    2    1    2    0    0  0.00000000000E+00  0.71054273576E-14  0.57822494340E+03  0.73281055236E+03  0.45018576219E+03 0.  0.
      99925    2    3    3    0    0  0.60344182651E+02 -0.52385531697E+02  0.24552160491E+03  0.36849656161E+03  0.26291290027E+03 0.  0.
         25    1    4    4    0    0  0.14935809903E+02 -0.76508749492E+00  0.76999079406E+02  0.14764833255E+03  0.12509000000E+03 0.  0.
         25    1    4    4    0    0  0.45408372747E+02 -0.51620444202E+02  0.16852252550E+03  0.22084822906E+03  0.12509000000E+03 0.  0.
         25    1    3    3    0    0 -0.60344182651E+02  0.52385531697E+02  0.33270333849E+03  0.36431399075E+03  0.12509000000E+03 0.  0.
<mgrwt>
<rscale>  2 0.45018576E+03</rscale>
<asrwt>0</asrwt>
<pdfrwt beam="1">  1       21 0.96399666E-01 0.45018576E+03</pdfrwt>
<pdfrwt beam="2">  1       21 0.11366589E-01 0.45018576E+03</pdfrwt>
<totfact> 0.53140717E+04</totfact>
</mgrwt>
</event>
<event>
 7    0  0.4709932E-002  0.4565370E+03  0.7546771E-02  0.1025790E+00
         21   -1    0    0  502  501  0.00000000000E+00  0.00000000000E+00  0.24124038364E+03  0.24124038364E+03  0.00000000000E+00 0. -1.
         21   -1    0    0  501  502 -0.00000000000E+00 -0.00000000000E+00 -0.21599415216E+03  0.21599415216E+03  0.00000000000E+00 0. -1.
      99926    2    1    2    0    0  0.00000000000E+00  0.00000000000E+00  0.25246231477E+02  0.45723453580E+03  0.45653701769E+03 0.  0.
      99925    2    3    3    0    0  0.10261932443E+03  0.25541740246E+02  0.59969366367E+02  0.28979406746E+03  0.26306115332E+03 0.  0.
         25    1    3    3    0    0 -0.10261932443E+03 -0.25541740246E+02 -0.34723134890E+02  0.16744046834E+03  0.12509000000E+03 0.  0.
         25    1    4    4    0    0  0.52788458731E+02  0.22733223643E+02  0.70572958909E+02  0.15469800083E+03  0.12509000000E+03 0.  0.
         25    1    4    4    0    0  0.49830865702E+02  0.28085166032E+01 -0.10603592542E+02  0.13509606662E+03  0.12509000000E+03 0.  0.
<mgrwt>
<rscale>  2 0.45653702E+03</rscale>
<asrwt>0</asrwt>
<pdfrwt beam="1">  1       21 0.35476527E-01 0.45653702E+03</pdfrwt>
<pdfrwt beam="2">  1       21 0.31763846E-01 0.45653702E+03</pdfrwt>
<totfact> 0.67550214E+04</totfact>
</mgrwt>
</event>
<event>
 7    0  0.4709932E-002  0.4572363E+03  0.7546771E-02  0.1025586E+00
         21   -1    0    0  502  501  0.00000000000E+00  0.00000000000E+00  0.99828215358E+02  0.99828215358E+02  0.00000000000E+00 0. -1.
         21   -1    0    0  501  502 -0.00000000000E+00 -0.00000000000E+00 -0.52356205222E+03  0.52356205222E+03  0.00000000000E+00 0. -1.
      99926    2    1    2    0    0  0.00000000000E+00  0.14210854715E-13 -0.42373383686E+03  0.62339026757E+03  0.45723632971E+03 0.  0.
      99925    2    3    3    0    0  0.46140839320E+02  0.90379168186E+02 -0.34023426338E+03  0.44195968039E+03  0.26319504938E+03 0.  0.
         25    1    3    3    0    0 -0.46140839320E+02 -0.90379168186E+02 -0.83499573481E+02  0.18143058719E+03  0.12509000000E+03 0.  0.
         25    1    4    4    0    0 -0.30129552749E+01  0.18771597583E+02 -0.18815381842E+03  0.22673953837E+03  0.12509000000E+03 0.  0.
         25    1    4    4    0    0  0.49153794595E+02  0.71607570604E+02 -0.15208044496E+03  0.21522014202E+03  0.12509000000E+03 0.  0.
<mgrwt>
<rscale>  2 0.45723633E+03</rscale>
<asrwt>0</asrwt>
<pdfrwt beam="1">  1       21 0.14680620E-01 0.45723633E+03</pdfrwt>
<pdfrwt beam="2">  1       21 0.76994420E-01 0.45723633E+03</pdfrwt>
<totfact> 0.56261109E+04</totfact>
</mgrwt>
</event>
<event>
 7    0  0.4709932E-002  0.4494667E+03  0.7546771E-02  0.1027881E+00
         21   -1    0    0  502  501  0.00000000000E+00  0.00000000000E+00  0.28165145831E+02  0.28165145831E+02  0.00000000000E+00 0. -1.
         21   -1    0    0  501  502 -0.00000000000E+00 -0.00000000000E+00 -0.17931767696E+04  0.17931767696E+04  0.00000000000E+00 0. -1.
      99926    2    1    2    0    0  0.00000000000E+00  0.00000000000E+00 -0.17650116238E+04  0.18213419154E+04  0.44946672943E+03 0.  0.
      99925    2    3    3    0    0  0.49635996607E+02  0.24184016681E+02 -0.14920658466E+04  0.15160625283E+04  0.26293820635E+03 0.  0.
         25    1    3    3    0    0 -0.49635996607E+02 -0.24184016681E+02 -0.27294577719E+03  0.30527938713E+03  0.12509000000E+03 0.  0.
         25    1    4    4    0    0  0.18012791324E+02  0.16524842725E+02 -0.96495124493E+03  0.97333239146E+03  0.12509000000E+03 0.  0.
         25    1    4    4    0    0  0.31623205282E+02  0.76591739560E+01 -0.52711460164E+03  0.54273013683E+03  0.12509000000E+03 0.  0.
<mgrwt>
<rscale>  2 0.44946673E+03</rscale>
<asrwt>0</asrwt>
<pdfrwt beam="1">  1       21 0.41419327E-02 0.44946673E+03</pdfrwt>
<pdfrwt beam="2">  1       21 0.26370250E+00 0.44946673E+03</pdfrwt>
<totfact> 0.17596582E+04</totfact>
</mgrwt>
</event>
<event>
 7    0  0.4709932E-002  0.4570845E+03  0.7546771E-02  0.1025630E+00
         21   -1    0    0  502  501  0.00000000000E+00  0.00000000000E+00  0.12406669969E+04  0.12406669969E+04  0.00000000000E+00 0.  1.
         21   -1    0    0  501  502 -0.00000000000E+00 -0.00000000000E+00 -0.42099587562E+02  0.42099587562E+02  0.00000000000E+00 0.  1.
      99926    2    1    2    0    0  0.00000000000E+00 -0.17763568394E-14  0.11985674094E+04  0.12827665845E+04  0.45708453867E+03 0.  0.
      99925    2    3    3    0    0 -0.11077814400E+03 -0.11607665081E+02  0.67014551343E+03  0.72843478559E+03  0.26289863560E+03 0.  0.
         25    1    4    4    0    0 -0.47183796521E+02  0.92679331093E+01  0.23237714081E+03  0.26825146581E+03  0.12509000000E+03 0.  0.
         25    1    4    4    0    0 -0.63594347475E+02 -0.20875598190E+02  0.43776837263E+03  0.46018331978E+03  0.12509000000E+03 0.  0.
         25    1    3    3    0    0  0.11077814400E+03  0.11607665081E+02  0.52842189595E+03  0.55433179892E+03  0.12509000000E+03 0.  0.
<mgrwt>
<rscale>  2 0.45708454E+03</rscale>
<asrwt>0</asrwt>
<pdfrwt beam="1">  1       21 0.18245100E+00 0.45708454E+03</pdfrwt>
<pdfrwt beam="2">  1       21 0.61911166E-02 0.45708454E+03</pdfrwt>
<totfact> 0.29143795E+04</totfact>
</mgrwt>
</event>
<event>
 7    0  0.4709932E-002  0.4670259E+03  0.7546771E-02  0.1022763E+00
         21   -1    0    0  502  501  0.00000000000E+00  0.00000000000E+00  0.15419419740E+03  0.15419419740E+03  0.00000000000E+00 0. -1.
         21   -1    0    0  501  502 -0.00000000000E+00 -0.00000000000E+00 -0.35363394708E+03  0.35363394708E+03  0.00000000000E+00 0. -1.
      99926    2    1    2    0    0  0.00000000000E+00 -0.14210854715E-13 -0.19943974968E+03  0.50782814447E+03  0.46702592066E+03 0.  0.
      99925    2    3    3    0    0 -0.60241501944E+02  0.10473745959E+03 -0.14979890773E+03  0.32696716116E+03  0.26432714147E+03 0.  0.
         25    1    4    4    0    0 -0.68661766644E+02  0.64021529239E+02 -0.10213973118E+03  0.18679728903E+03  0.12509000000E+03 0.  0.
         25    1    3    3    0    0  0.60241501944E+02 -0.10473745959E+03 -0.49640841951E+02  0.18086098332E+03  0.12509000000E+03 0.  0.
         25    1    4    4    0    0  0.84202646995E+01  0.40715930348E+02 -0.47659176553E+02  0.14016987212E+03  0.12509000000E+03 0.  0.
<mgrwt>
<rscale>  2 0.46702592E+03</rscale>
<asrwt>0</asrwt>
<pdfrwt beam="1">  1       21 0.22675617E-01 0.46702592E+03</pdfrwt>
<pdfrwt beam="2">  1       21 0.52004992E-01 0.46702592E+03</pdfrwt>
<totfact> 0.58897731E+04</totfact>
</mgrwt>
</event>
<event>
 7    0  0.4709932E-002  0.4574348E+03  0.7546771E-02  0.1025528E+00
         21   -1    0    0  502  501  0.00000000000E+00  0.00000000000E+00  0.28490047349E+03  0.28490047349E+03  0.00000000000E+00 0. -1.
         21   -1    0    0  501  502 -0.00000000000E+00 -0.00000000000E+00 -0.18361377334E+03  0.18361377334E+03  0.00000000000E+00 0. -1.
      99926    2    1    2    0    0  0.00000000000E+00  0.00000000000E+00  0.10128670015E+03  0.46851424682E+03  0.45743480831E+03 0.  0.
      99925    2    3    3    0    0 -0.84953153555E+02  0.45257645971E+02  0.12870361328E+03  0.30831284844E+03  0.26311005231E+03 0.  0.
         25    1    4    4    0    0 -0.37446105740E+02  0.34633948439E+02  0.22063808878E+02  0.13687965876E+03  0.12509000000E+03 0.  0.
         25    1    3    3    0    0  0.84953153555E+02 -0.45257645971E+02 -0.27416913134E+02  0.16020139838E+03  0.12509000000E+03 0.  0.
         25    1    4    4    0    0 -0.47507047816E+02  0.10623697532E+02  0.10663980441E+03  0.17143318968E+03  0.12509000000E+03 0.  0.
<mgrwt>
<rscale>  2 0.45743481E+03</rscale>
<asrwt>0</asrwt>
<pdfrwt beam="1">  1       21 0.41897129E-01 0.45743481E+03</pdfrwt>
<pdfrwt beam="2">  1       21 0.27002025E-01 0.45743481E+03</pdfrwt>
<totfact> 0.66257829E+04</totfact>
</mgrwt>
</event>
<event>
 7    0  0.4709932E-002  0.4589958E+03  0.7546771E-02  0.1025073E+00
         21   -1    0    0  502  501  0.00000000000E+00  0.00000000000E+00  0.11549007839E+03  0.11549007839E+03  0.00000000000E+00 0. -1.
         21   -1    0    0  501  502 -0.00000000000E+00 -0.00000000000E+00 -0.45605033161E+03  0.45605033161E+03  0.00000000000E+00 0. -1.
      99926    2    1    2    0    0  0.00000000000E+00  0.00000000000E+00 -0.34056025322E+03  0.57154041000E+03  0.45899581064E+03 0.  0.
      99925    2    3    3    0    0 -0.92437076848E+02  0.69418766073E+02 -0.23143800177E+03  0.36925656951E+03  0.26348299225E+03 0.  0.
         25    1    4    4    0    0 -0.22604412334E+02  0.18003165311E+02 -0.65658704295E+02  0.14420002416E+03  0.12509000000E+03 0.  0.
         25    1    4    4    0    0 -0.69832664513E+02  0.51415600762E+02 -0.16577929747E+03  0.22505654535E+03  0.12509000000E+03 0.  0.
         25    1    3    3    0    0  0.92437076848E+02 -0.69418766073E+02 -0.10912225146E+03  0.20228384049E+03  0.12509000000E+03 0.  0.
<mgrwt>
<rscale>  2 0.45899581E+03</rscale>
<asrwt>0</asrwt>
<pdfrwt beam="1">  1       21 0.16983835E-01 0.45899581E+03</pdfrwt>
<pdfrwt beam="2">  1       21 0.67066224E-01 0.45899581E+03</pdfrwt>
<totfact> 0.58591743E+04</totfact>
</mgrwt>
</event>
<event>
 7    0  0.4709932E-002  0.4518840E+03  0.7546771E-02  0.1027162E+00
         21   -1    0    0  502  501  0.00000000000E+00  0.00000000000E+00  0.17039080224E+03  0.17039080224E+03  0.00000000000E+00 0.  1.
         21   -1    0    0  501  502 -0.00000000000E+00 -0.00000000000E+00 -0.29960412338E+03  0.29960412338E+03  0.00000000000E+00 0.  1.
      99926    2    1    2    0    0  0.00000000000E+00  0.00000000000E+00 -0.12921332113E+03  0.46999492562E+03  0.45188399811E+03 0.  0.
      99925    2    3    3    0    0 -0.28190281284E+02  0.10097739950E+03 -0.11719905244E+03  0.30633986789E+03  0.26290182502E+03 0.  0.
         25    1    4    4    0    0  0.79452718898E+01  0.45245293698E+02 -0.20450604362E+02  0.13481839365E+03  0.12509000000E+03 0.  0.
         25    1    3    3    0    0  0.28190281284E+02 -0.10097739950E+03 -0.12014268697E+02  0.16365505773E+03  0.12509000000E+03 0.  0.
         25    1    4    4    0    0 -0.36135553174E+02  0.55732105806E+02 -0.96748448075E+02  0.17152147424E+03  0.12509000000E+03 0.  0.
<mgrwt>
<rscale>  2 0.45188400E+03</rscale>
<asrwt>0</asrwt>
<pdfrwt beam="1">  1       21 0.25057471E-01 0.45188400E+03</pdfrwt>
<pdfrwt beam="2">  1       21 0.44059429E-01 0.45188400E+03</pdfrwt>
<totfact> 0.69129382E+04</totfact>
</mgrwt>
</event>
<event>
 7    0  0.4709932E-002  0.4551466E+03  0.7546771E-02  0.1026198E+00
         21   -1    0    0  502  501  0.00000000000E+00  0.00000000000E+00  0.12390532367E+04  0.12390532367E+04  0.00000000000E+00 0.  1.
         21   -1    0    0  501  502 -0.00000000000E+00 -0.00000000000E+00 -0.41797730351E+02  0.41797730351E+02  0.00000000000E+00 0.  1.
      99926    2    1    2    0    0  0.00000000000E+00  0.00000000000E+00  0.11972555064E+04  0.12808509671E+04  0.45514662728E+03 0.  0.
      99925    2    3    3    0    0  0.91409986950E+02 -0.61468140499E+02  0.82774661780E+03  0.87548885138E+03  0.26302499424E+03 0.  0.
         25    1    4    4    0    0  0.76142542362E+02 -0.45193303592E+01  0.40381721891E+03  0.42957416763E+03  0.12509000000E+03 0.  0.
         25    1    3    3    0    0 -0.91409986950E+02  0.61468140499E+02  0.36950888860E+03  0.40536211572E+03  0.12509000000E+03 0.  0.
         25    1    4    4    0    0  0.15267444588E+02 -0.56948810139E+02  0.42392939889E+03  0.44591468375E+03  0.12509000000E+03 0.  0.
<mgrwt>
<rscale>  2 0.45514663E+03</rscale>
<asrwt>0</asrwt>
<pdfrwt beam="1">  1       21 0.18221369E+00 0.45514663E+03</pdfrwt>
<pdfrwt beam="2">  1       21 0.61467259E-02 0.45514663E+03</pdfrwt>
<totfact> 0.29642200E+04</totfact>
</mgrwt>
</event>
<event>
 7    0  0.4709932E-002  0.4397811E+03  0.7546771E-02  0.1030814E+00
         21   -1    0    0  502  501  0.00000000000E+00  0.00000000000E+00  0.90879024603E+02  0.90879024603E+02  0.00000000000E+00 0.  1.
         21   -1    0    0  501  502 -0.00000000000E+00 -0.00000000000E+00 -0.53204635549E+03  0.53204635549E+03  0.00000000000E+00 0.  1.
      99926    2    1    2    0    0  0.17763568394E-14  0.00000000000E+00 -0.44116733089E+03  0.62292538010E+03  0.43978109933E+03 0.  0.
      99925    2    3    3    0    0  0.48154294936E+01 -0.67590055857E+02 -0.18142347057E+03  0.32677341727E+03  0.26320103828E+03 0.  0.
         25    1    4    4    0    0  0.29000714988E+02 -0.33577631998E+02 -0.12832296399E+03  0.18461524863E+03  0.12509000000E+03 0.  0.
         25    1    3    3    0    0 -0.48154294936E+01  0.67590055857E+02 -0.25974386032E+03  0.29615196283E+03  0.12509000000E+03 0.  0.
         25    1    4    4    0    0 -0.24185285495E+02 -0.34012423859E+02 -0.53100506577E+02  0.14215816864E+03  0.12509000000E+03 0.  0.
<mgrwt>
<rscale>  2 0.43978110E+03</rscale>
<asrwt>0</asrwt>
<pdfrwt beam="1">  1       21 0.13364563E-01 0.43978110E+03</pdfrwt>
<pdfrwt beam="2">  1       21 0.78242109E-01 0.43978110E+03</pdfrwt>
<totfact> 0.64721868E+04</totfact>
</mgrwt>
</event>
<event>
 7    0  0.4709932E-002  0.4558865E+03  0.7546771E-02  0.1025981E+00
         21   -1    0    0  502  501  0.00000000000E+00  0.00000000000E+00  0.37534504272E+03  0.37534504272E+03  0.00000000000E+00 0. -1.
         21   -1    0    0  501  502 -0.00000000000E+00 -0.00000000000E+00 -0.13842761735E+03  0.13842761735E+03  0.00000000000E+00 0. -1.
      99926    2    1    2    0    0  0.71054273576E-14 -0.71054273576E-14  0.23691742537E+03  0.51377266007E+03  0.45588647687E+03 0.  0.
      99925    2    3    3    0    0  0.48831536428E+02 -0.47470415480E+02  0.45705768124E+02  0.27534580491E+03  0.26284660116E+03 0.  0.
         25    1    3    3    0    0 -0.48831536428E+02  0.47470415480E+02  0.19121165725E+03  0.23842685516E+03  0.12509000000E+03 0.  0.
         25    1    4    4    0    0  0.31741734274E+02 -0.31412337479E+02  0.62823788470E+02  0.14693062696E+03  0.12509000000E+03 0.  0.
         25    1    4    4    0    0  0.17089802154E+02 -0.16058078001E+02 -0.17118020346E+02  0.12841517795E+03  0.12509000000E+03 0.  0.
<mgrwt>
<rscale>  2 0.45588648E+03</rscale>
<asrwt>0</asrwt>
<pdfrwt beam="1">  1       21 0.55197800E-01 0.45588648E+03</pdfrwt>
<pdfrwt beam="2">  1       21 0.20357003E-01 0.45588648E+03</pdfrwt>
<totfact> 0.63863084E+04</totfact>
</mgrwt>
</event>
<event>
 7    0  0.4709932E-002  0.4587254E+03  0.7546771E-02  0.1025152E+00
         21   -1    0    0  502  501  0.00000000000E+00  0.00000000000E+00  0.11119605296E+03  0.11119605296E+03  0.00000000000E+00 0. -1.
         21   -1    0    0  501  502 -0.00000000000E+00 -0.00000000000E+00 -0.47310352528E+03  0.47310352528E+03  0.00000000000E+00 0. -1.
      99926    2    1    2    0    0  0.71054273576E-14  0.00000000000E+00 -0.36190747232E+03  0.58429957825E+03  0.45872538475E+03 0.  0.
      99925    2    3    3    0    0 -0.37293155678E+02  0.10718228365E+03 -0.19164389294E+03  0.34447460884E+03  0.26278613557E+03 0.  0.
         25    1    4    4    0    0 -0.40028631965E+02  0.79508264602E+02 -0.13471804431E+03  0.20425551420E+03  0.12509000000E+03 0.  0.
         25    1    4    4    0    0  0.27354762868E+01  0.27674019043E+02 -0.56925848632E+02  0.14021909464E+03  0.12509000000E+03 0.  0.
         25    1    3    3    0    0  0.37293155678E+02 -0.10718228365E+03 -0.17026357937E+03  0.23982496940E+03  0.12509000000E+03 0.  0.
<mgrwt>
<rscale>  2 0.45872538E+03</rscale>
<asrwt>0</asrwt>
<pdfrwt beam="1">  1       21 0.16352361E-01 0.45872538E+03</pdfrwt>
<pdfrwt beam="2">  1       21 0.69574048E-01 0.45872538E+03</pdfrwt>
<totfact> 0.57930310E+04</totfact>
</mgrwt>
</event>
<event>
 7    0  0.4709932E-002  0.4398866E+03  0.7546771E-02  0.1030782E+00
         21   -1    0    0  502  501  0.00000000000E+00  0.00000000000E+00  0.56678318106E+02  0.56678318106E+02  0.00000000000E+00 0.  1.
         21   -1    0    0  501  502 -0.00000000000E+00 -0.00000000000E+00 -0.85350211248E+03  0.85350211248E+03  0.00000000000E+00 0.  1.
      99926    2    1    2    0    0 -0.14210854715E-13  0.00000000000E+00 -0.79682379438E+03  0.91018043059E+03  0.43988664101E+03 0.  0.
      99925    2    3    3    0    0  0.75635614907E+02 -0.18093267888E+02 -0.63290930870E+03  0.68980897305E+03  0.26308575345E+03 0.  0.
         25    1    3    3    0    0 -0.75635614907E+02  0.18093267888E+02 -0.16391448567E+03  0.22037145754E+03  0.12509000000E+03 0.  0.
         25    1    4    4    0    0  0.18416666557E+02 -0.37461861372E+02 -0.36377077543E+03  0.38693571795E+03  0.12509000000E+03 0.  0.
         25    1    4    4    0    0  0.57218948350E+02  0.19368593484E+02 -0.26913853327E+03  0.30287325510E+03  0.12509000000E+03 0.  0.
<mgrwt>
<rscale>  2 0.43988664E+03</rscale>
<asrwt>0</asrwt>
<pdfrwt beam="1">  1       21 0.83350475E-02 0.43988664E+03</pdfrwt>
<pdfrwt beam="2">  1       21 0.12551501E+00 0.43988664E+03</pdfrwt>
<totfact> 0.48254436E+04</totfact>
</mgrwt>
</event>
<event>
 7    0  0.4709932E-002  0.4279852E+03  0.7546771E-02  0.1034498E+00
         21   -1    0    0  502  501  0.00000000000E+00  0.00000000000E+00  0.36751264053E+03  0.36751264053E+03  0.00000000000E+00 0. -1.
         21   -1    0    0  501  502 -0.00000000000E+00 -0.00000000000E+00 -0.12460208566E+03  0.12460208566E+03  0.00000000000E+00 0. -1.
      99926    2    1    2    0    0  0.00000000000E+00 -0.14210854715E-13  0.24291055486E+03  0.49211472619E+03  0.42798524048E+03 0.  0.
      99925    2    3    3    0    0  0.45597406436E+01 -0.74894841577E+02  0.20371969919E+03  0.34107347421E+03  0.26305773215E+03 0.  0.
         25    1    4    4    0    0 -0.21849274975E+02 -0.34490822336E+02  0.14160619613E+03  0.19330501940E+03  0.12509000000E+03 0.  0.
         25    1    4    4    0    0  0.26409015618E+02 -0.40404019241E+02  0.62113503061E+02  0.14776845482E+03  0.12509000000E+03 0.  0.
         25    1    3    3    0    0 -0.45597406436E+01  0.74894841577E+02  0.39190855676E+02  0.15104125197E+03  0.12509000000E+03 0.  0.
<mgrwt>
<rscale>  2 0.42798524E+03</rscale>
<asrwt>0</asrwt>
<pdfrwt beam="1">  1       21 0.54045976E-01 0.42798524E+03</pdfrwt>
<pdfrwt beam="2">  1       21 0.18323836E-01 0.42798524E+03</pdfrwt>
<totfact> 0.82057994E+04</totfact>
</mgrwt>
</event>
<event>
 7    0  0.4709932E-002  0.4683368E+03  0.7546771E-02  0.1022391E+00
         21   -1    0    0  502  501  0.00000000000E+00  0.00000000000E+00  0.10802314533E+03  0.10802314533E+03  0.00000000000E+00 0. -1.
         21   -1    0    0  501  502 -0.00000000000E+00 -0.00000000000E+00 -0.50762121858E+03  0.50762121858E+03  0.00000000000E+00 0. -1.
      99926    2    1    2    0    0 -0.14210854715E-13  0.00000000000E+00 -0.39959807325E+03  0.61564436391E+03  0.46833680474E+03 0.  0.
      99925    2    3    3    0    0 -0.88425284389E+02 -0.85819026891E+02 -0.21841452866E+03  0.36333716777E+03  0.26291644083E+03 0.  0.
         25    1    3    3    0    0  0.88425284389E+02  0.85819026891E+02 -0.18118354459E+03  0.25230719614E+03  0.12509000000E+03 0.  0.
         25    1    4    4    0    0 -0.63720238340E+02 -0.65357997726E+02 -0.80972459920E+02  0.17474548351E+03  0.12509000000E+03 0.  0.
         25    1    4    4    0    0 -0.24705046049E+02 -0.20461029165E+02 -0.13744206874E+03  0.18859168426E+03  0.12509000000E+03 0.  0.
<mgrwt>
<rscale>  2 0.46833680E+03</rscale>
<asrwt>0</asrwt>
<pdfrwt beam="1">  1       21 0.15885757E-01 0.46833680E+03</pdfrwt>
<pdfrwt beam="2">  1       21 0.74650177E-01 0.46833680E+03</pdfrwt>
<totfact> 0.52024925E+04</totfact>
</mgrwt>
</event>
<event>
 7    0  0.4709932E-002  0.4510765E+03  0.7546771E-02  0.1027401E+00
         21   -1    0    0  502  501  0.00000000000E+00  0.00000000000E+00  0.68543507656E+03  0.68543507656E+03  0.00000000000E+00 0.  1.
         21   -1    0    0  501  502 -0.00000000000E+00 -0.00000000000E+00 -0.74212006973E+02  0.74212006973E+02  0.00000000000E+00 0.  1.
      99926    2    1    2    0    0  0.00000000000E+00  0.00000000000E+00  0.61122306958E+03  0.75964708353E+03  0.45107654641E+03 0.  0.
      99925    2    3    3    0    0  0.36613406332E+01 -0.26827459146E+02  0.56458927166E+03  0.62342910678E+03  0.26300130710E+03 0.  0.
         25    1    3    3    0    0 -0.36613406332E+01  0.26827459146E+02  0.46633797924E+02  0.13621797674E+03  0.12509000000E+03 0.  0.
         25    1    4    4    0    0 -0.13832417142E+01  0.22963990887E+02  0.23179506077E+03  0.26439689207E+03  0.12509000000E+03 0.  0.
         25    1    4    4    0    0  0.50445823474E+01 -0.49791450034E+02  0.33279421088E+03  0.35903221472E+03  0.12509000000E+03 0.  0.
<mgrwt>
<rscale>  2 0.45107655E+03</rscale>
<asrwt>0</asrwt>
<pdfrwt beam="1">  1       21 0.10079927E+00 0.45107655E+03</pdfrwt>
<pdfrwt beam="2">  1       21 0.10913531E-01 0.45107655E+03</pdfrwt>
<totfact> 0.51341467E+04</totfact>
</mgrwt>
</event>
<event>
 7    0  0.4709932E-002  0.4655444E+03  0.7546771E-02  0.1023185E+00
         21   -1    0    0  502  501  0.00000000000E+00  0.00000000000E+00  0.27415199080E+03  0.27415199080E+03  0.00000000000E+00 0. -1.
         21   -1    0    0  501  502 -0.00000000000E+00 -0.00000000000E+00 -0.19763815994E+03  0.19763815994E+03  0.00000000000E+00 0. -1.
      99926    2    1    2    0    0  0.00000000000E+00  0.00000000000E+00  0.76513830860E+02  0.47179015074E+03  0.46554439103E+03 0.  0.
      99925    2    3    3    0    0 -0.78851419000E+02 -0.20430571690E+02  0.14078844309E+03  0.30926726492E+03  0.26303973256E+03 0.  0.
         25    1    4    4    0    0 -0.51067189956E+01  0.72324101686E+01  0.83881631390E+02  0.15087088029E+03  0.12509000000E+03 0.  0.
         25    1    3    3    0    0  0.78851419000E+02  0.20430571690E+02 -0.64274612233E+02  0.16252288582E+03  0.12509000000E+03 0.  0.
         25    1    4    4    0    0 -0.73744700005E+02 -0.27662981859E+02  0.56906811703E+02  0.15839638462E+03  0.12509000000E+03 0.  0.
<mgrwt>
<rscale>  2 0.46554439E+03</rscale>
<asrwt>0</asrwt>
<pdfrwt beam="1">  1       21 0.40316469E-01 0.46554439E+03</pdfrwt>
<pdfrwt beam="2">  1       21 0.29064435E-01 0.46554439E+03</pdfrwt>
<totfact> 0.61951085E+04</totfact>
</mgrwt>
</event>
<event>
 7    0  0.4709932E-002  0.4593727E+03  0.7546771E-02  0.1024963E+00
         21   -1    0    0  502  501  0.00000000000E+00  0.00000000000E+00  0.14065507064E+03  0.14065507064E+03  0.00000000000E+00 0.  1.
         21   -1    0    0  501  502 -0.00000000000E+00 -0.00000000000E+00 -0.37507222813E+03  0.37507222813E+03  0.00000000000E+00 0.  1.
      99926    2    1    2    0    0 -0.35527136788E-14  0.00000000000E+00 -0.23441715749E+03  0.51572729877E+03  0.45937266241E+03 0.  0.
      99925    2    3    3    0    0 -0.16753117556E+02  0.10433331610E+03 -0.20418451549E+03  0.34921114778E+03  0.26285167219E+03 0.  0.
         25    1    3    3    0    0  0.16753117556E+02 -0.10433331610E+03 -0.30232642002E+02  0.16651615099E+03  0.12509000000E+03 0.  0.
         25    1    4    4    0    0 -0.39598055857E+02  0.50416551545E+02 -0.13435743609E+03  0.19444604246E+03  0.12509000000E+03 0.  0.
         25    1    4    4    0    0  0.22844938301E+02  0.53916764559E+02 -0.69827079402E+02  0.15476510532E+03  0.12509000000E+03 0.  0.
<mgrwt>
<rscale>  2 0.45937266E+03</rscale>
<asrwt>0</asrwt>
<pdfrwt beam="1">  1       21 0.20684570E-01 0.45937266E+03</pdfrwt>
<pdfrwt beam="2">  1       21 0.55157680E-01 0.45937266E+03</pdfrwt>
<totfact> 0.61999855E+04</totfact>
</mgrwt>
</event>
<event>
 7    0  0.4709932E-002  0.4286948E+03  0.7546771E-02  0.1034273E+00
         21   -1    0    0  502  501  0.00000000000E+00  0.00000000000E+00  0.13080202925E+03  0.13080202925E+03  0.00000000000E+00 0. -1.
         21   -1    0    0  501  502 -0.00000000000E+00 -0.00000000000E+00 -0.35125446953E+03  0.35125446953E+03  0.00000000000E+00 0. -1.
      99926    2    1    2    0    0  0.00000000000E+00  0.00000000000E+00 -0.22045244028E+03  0.48205649878E+03  0.42869475106E+03 0.  0.
      99925    2    3    3    0    0 -0.63496397813E+02 -0.57215592831E+02 -0.12940346111E+03  0.30530005249E+03  0.26297804034E+03 0.  0.
         25    1    3    3    0    0  0.63496397813E+02  0.57215592831E+02 -0.91048979164E+02  0.17675644629E+03  0.12509000000E+03 0.  0.
         25    1    4    4    0    0 -0.15187217042E+02 -0.65267482606E+02 -0.73274576652E+02  0.15970963506E+03  0.12509000000E+03 0.  0.
         25    1    4    4    0    0 -0.48309180770E+02  0.80518897751E+01 -0.56128884462E+02  0.14559041743E+03  0.12509000000E+03 0.  0.
<mgrwt>
<rscale>  2 0.42869475E+03</rscale>
<asrwt>0</asrwt>
<pdfrwt beam="1">  1       21 0.19235593E-01 0.42869475E+03</pdfrwt>
<pdfrwt beam="2">  1       21 0.51655069E-01 0.42869475E+03</pdfrwt>
<totfact> 0.82472842E+04</totfact>
</mgrwt>
</event>
<event>
 7    0  0.4709932E-002  0.4486948E+03  0.7546771E-02  0.1028112E+00
         21   -1    0    0  502  501  0.00000000000E+00  0.00000000000E+00  0.12541543141E+03  0.12541543141E+03  0.00000000000E+00 0.  1.
         21   -1    0    0  501  502 -0.00000000000E+00 -0.00000000000E+00 -0.40132035651E+03  0.40132035651E+03  0.00000000000E+00 0.  1.
      99926    2    1    2    0    0  0.71054273576E-14  0.00000000000E+00 -0.27590492510E+03  0.52673578792E+03  0.44869484349E+03 0.  0.
      99925    2    3    3    0    0 -0.45720504539E+02  0.62731548456E+02 -0.88224355162E+02  0.28820462404E+03  0.26315918523E+03 0.  0.
         25    1    4    4    0    0 -0.43716736572E+02  0.14852115022E+02 -0.11501975733E+02  0.13383400884E+03  0.12509000000E+03 0.  0.
         25    1    4    4    0    0 -0.20037679669E+01  0.47879433434E+02 -0.76722379429E+02  0.15437061520E+03  0.12509000000E+03 0.  0.
         25    1    3    3    0    0  0.45720504539E+02 -0.62731548456E+02 -0.18768056994E+03  0.23853116387E+03  0.12509000000E+03 0.  0.
<mgrwt>
<rscale>  2 0.44869484E+03</rscale>
<asrwt>0</asrwt>
<pdfrwt beam="1">  1       21 0.18443446E-01 0.44869484E+03</pdfrwt>
<pdfrwt beam="2">  1       21 0.59017699E-01 0.44869484E+03</pdfrwt>
<totfact> 0.66697889E+04</totfact>
</mgrwt>
</event>
<event>
 7    0  0.4709932E-002  0.4535609E+03  0.7546771E-02  0.1026665E+00
         21   -1    0    0  502  501  0.00000000000E+00  0.00000000000E+00  0.12305773923E+03  0.12305773923E+03  0.00000000000E+00 0.  1.
         21   -1    0    0  501  502 -0.00000000000E+00 -0.00000000000E+00 -0.41792876844E+03  0.41792876844E+03  0.00000000000E+00 0.  1.
      99926    2    1    2    0    0  0.00000000000E+00  0.00000000000E+00 -0.29487102921E+03  0.54098650767E+03  0.45356088633E+03 0.  0.
      99925    2    3    3    0    0 -0.10581584685E+03  0.32764510188E+02 -0.17144841582E+03  0.33325794399E+03  0.26343080946E+03 0.  0.
         25    1    4    4    0    0 -0.83300009900E+02  0.68121889245E+00 -0.62344358064E+02  0.16270735322E+03  0.12509000000E+03 0.  0.
         25    1    4    4    0    0 -0.22515836951E+02  0.32083291295E+02 -0.10910405776E+03  0.17055059077E+03  0.12509000000E+03 0.  0.
         25    1    3    3    0    0  0.10581584685E+03 -0.32764510188E+02 -0.12342261339E+03  0.20772856368E+03  0.12509000000E+03 0.  0.
<mgrwt>
<rscale>  2 0.45356089E+03</rscale>
<asrwt>0</asrwt>
<pdfrwt beam="1">  1       21 0.18096726E-01 0.45356089E+03</pdfrwt>
<pdfrwt beam="2">  1       21 0.61460113E-01 0.45356089E+03</pdfrwt>
<totfact> 0.63182589E+04</totfact>
</mgrwt>
</event>
<event>
 7    0  0.4709932E-002  0.4567910E+03  0.7546771E-02  0.1025716E+00
         21   -1    0    0  502  501  0.00000000000E+00  0.00000000000E+00  0.58585000178E+02  0.58585000178E+02  0.00000000000E+00 0. -1.
         21   -1    0    0  501  502 -0.00000000000E+00 -0.00000000000E+00 -0.89040701972E+03  0.89040701972E+03  0.00000000000E+00 0. -1.
      99926    2    1    2    0    0  0.00000000000E+00 -0.71054273576E-14 -0.83182201954E+03  0.94899201989E+03  0.45679096054E+03 0.  0.
      99925    2    3    3    0    0 -0.54084791744E+02  0.40451498118E+02 -0.32946066692E+03  0.42690397645E+03  0.26294711572E+03 0.  0.
         25    1    4    4    0    0 -0.18152733871E+02 -0.18930267064E+02 -0.16986219528E+03  0.21257598698E+03  0.12509000000E+03 0.  0.
         25    1    4    4    0    0 -0.35932057873E+02  0.59381765183E+02 -0.15959847164E+03  0.21432798947E+03  0.12509000000E+03 0.  0.
         25    1    3    3    0    0  0.54084791744E+02 -0.40451498118E+02 -0.50236135262E+03  0.52208804344E+03  0.12509000000E+03 0.  0.
<mgrwt>
<rscale>  2 0.45679096E+03</rscale>
<asrwt>0</asrwt>
<pdfrwt beam="1">  1       21 0.86154417E-02 0.45679096E+03</pdfrwt>
<pdfrwt beam="2">  1       21 0.13094220E+00 0.45679096E+03</pdfrwt>
<totfact> 0.40609912E+04</totfact>
</mgrwt>
</event>
<event>
 7    0  0.4709932E-002  0.4518068E+03  0.7546771E-02  0.1027185E+00
         21   -1    0    0  502  501  0.00000000000E+00  0.00000000000E+00  0.18358644307E+02  0.18358644307E+02  0.00000000000E+00 0. -1.
         21   -1    0    0  501  502 -0.00000000000E+00 -0.00000000000E+00 -0.27797450894E+04  0.27797450894E+04  0.00000000000E+00 0. -1.
      99926    2    1    2    0    0  0.00000000000E+00 -0.35527136788E-14 -0.27613864451E+04  0.27981037337E+04  0.45180682315E+03 0.  0.
      99925    2    3    3    0    0 -0.93951773787E+01  0.26628072082E+02 -0.10832348533E+04  0.11150595879E+04  0.26298823851E+03 0.  0.
         25    1    3    3    0    0  0.93951773787E+01 -0.26628072082E+02 -0.16781515918E+04  0.16830441458E+04  0.12509000000E+03 0.  0.
         25    1    4    4    0    0 -0.36541448646E+02  0.38515876028E+02 -0.54510499342E+03  0.56178796011E+03  0.12509000000E+03 0.  0.
         25    1    4    4    0    0  0.27146271267E+02 -0.11887803946E+02 -0.53812985986E+03  0.55327162777E+03  0.12509000000E+03 0.  0.
<mgrwt>
<rscale>  2 0.45180682E+03</rscale>
<asrwt>0</asrwt>
<pdfrwt beam="1">  1       21 0.26998033E-02 0.45180682E+03</pdfrwt>
<pdfrwt beam="2">  1       21 0.40878564E+00 0.45180682E+03</pdfrwt>
<totfact> 0.46519881E+03</totfact>
</mgrwt>
</event>
<event>
 7    0  0.4709932E-002  0.4526091E+03  0.7546771E-02  0.1026947E+00
         21   -1    0    0  502  501  0.00000000000E+00  0.00000000000E+00  0.15090215740E+03  0.15090215740E+03  0.00000000000E+00 0.  1.
         21   -1    0    0  501  502 -0.00000000000E+00 -0.00000000000E+00 -0.33938388192E+03  0.33938388192E+03  0.00000000000E+00 0.  1.
      99926    2    1    2    0    0  0.00000000000E+00  0.00000000000E+00 -0.18848172451E+03  0.49028603932E+03  0.45260914692E+03 0.  0.
      99925    2    3    3    0    0  0.76265095492E+02 -0.73027885777E+02 -0.82100043717E+02  0.29505794964E+03  0.26300064558E+03 0.  0.
         25    1    3    3    0    0 -0.76265095492E+02  0.73027885777E+02 -0.10638168080E+03  0.19522808968E+03  0.12509000000E+03 0.  0.
         25    1    4    4    0    0  0.59953652685E+02 -0.62846992934E+02 -0.18472212161E+02  0.15340441882E+03  0.12509000000E+03 0.  0.
         25    1    4    4    0    0  0.16311442807E+02 -0.10180892843E+02 -0.63627831555E+02  0.14165353082E+03  0.12509000000E+03 0.  0.
<mgrwt>
<rscale>  2 0.45260915E+03</rscale>
<asrwt>0</asrwt>
<pdfrwt beam="1">  1       21 0.22191494E-01 0.45260915E+03</pdfrwt>
<pdfrwt beam="2">  1       21 0.49909394E-01 0.45260915E+03</pdfrwt>
<totfact> 0.67225552E+04</totfact>
</mgrwt>
</event>
<event>
 7    0  0.4709932E-002  0.4580852E+03  0.7546771E-02  0.1025338E+00
         21   -1    0    0  502  501  0.00000000000E+00  0.00000000000E+00  0.53996885145E+02  0.53996885145E+02  0.00000000000E+00 0. -1.
         21   -1    0    0  501  502 -0.00000000000E+00 -0.00000000000E+00 -0.97154686047E+03  0.97154686047E+03  0.00000000000E+00 0. -1.
      99926    2    1    2    0    0  0.00000000000E+00  0.00000000000E+00 -0.91754997532E+03  0.10255437456E+04  0.45808516342E+03 0.  0.
      99925    2    3    3    0    0  0.76608832017E+02 -0.77195235523E+02 -0.48503523306E+03  0.56235422943E+03  0.26297354337E+03 0.  0.
         25    1    3    3    0    0 -0.76608832017E+02  0.77195235523E+02 -0.43251474226E+03  0.46318951619E+03  0.12509000000E+03 0.  0.
         25    1    4    4    0    0  0.52542669401E+02 -0.98232754162E+01 -0.18629049394E+03  0.23067051195E+03  0.12509000000E+03 0.  0.
         25    1    4    4    0    0  0.24066162616E+02 -0.67371960107E+02 -0.29874473912E+03  0.33168371748E+03  0.12509000000E+03 0.  0.
<mgrwt>
<rscale>  2 0.45808516E+03</rscale>
<asrwt>0</asrwt>
<pdfrwt beam="1">  1       21 0.79407184E-02 0.45808516E+03</pdfrwt>
<pdfrwt beam="2">  1       21 0.14287454E+00 0.45808516E+03</pdfrwt>
<totfact> 0.37281629E+04</totfact>
</mgrwt>
</event>
<event>
 7    0  0.4709932E-002  0.4525425E+03  0.7546771E-02  0.1026967E+00
         21   -1    0    0  502  501  0.00000000000E+00  0.00000000000E+00  0.55058493557E+03  0.55058493557E+03  0.00000000000E+00 0. -1.
         21   -1    0    0  501  502 -0.00000000000E+00 -0.00000000000E+00 -0.92989591818E+02  0.92989591818E+02  0.00000000000E+00 0. -1.
      99926    2    1    2    0    0  0.00000000000E+00  0.00000000000E+00  0.45759534375E+03  0.64357452738E+03  0.45254245511E+03 0.  0.
      99925    2    3    3    0    0 -0.55348900373E+02 -0.70253660280E+02  0.38189410807E+03  0.47217656141E+03  0.26288498971E+03 0.  0.
         25    1    4    4    0    0 -0.68857179447E+02 -0.36957612391E+02  0.19890217133E+03  0.24762220849E+03  0.12509000000E+03 0.  0.
         25    1    3    3    0    0  0.55348900373E+02  0.70253660280E+02  0.75701235683E+02  0.17139796597E+03  0.12509000000E+03 0.  0.
         25    1    4    4    0    0  0.13508279074E+02 -0.33296047889E+02  0.18299193673E+03  0.22455435292E+03  0.12509000000E+03 0.  0.
<mgrwt>
<rscale>  2 0.45254246E+03</rscale>
<asrwt>0</asrwt>
<pdfrwt beam="1">  1       21 0.80968371E-01 0.45254246E+03</pdfrwt>
<pdfrwt beam="2">  1       21 0.13674940E-01 0.45254246E+03</pdfrwt>
<totfact> 0.57173812E+04</totfact>
</mgrwt>
</event>
<event>
 7    0  0.4709932E-002  0.4549428E+03  0.7546771E-02  0.1026258E+00
         21   -1    0    0  502  501  0.00000000000E+00  0.00000000000E+00  0.23777771988E+03  0.23777771988E+03  0.00000000000E+00 0.  1.
         21   -1    0    0  501  502 -0.00000000000E+00 -0.00000000000E+00 -0.21761181585E+03  0.21761181585E+03  0.00000000000E+00 0.  1.
      99926    2    1    2    0    0  0.17763568394E-14  0.00000000000E+00  0.20165904038E+02  0.45538953573E+03  0.45494281571E+03 0.  0.
      99925    2    3    3    0    0  0.12197416568E+02 -0.48383784572E+02  0.11409603487E+03  0.29119408768E+03  0.26322295483E+03 0.  0.
         25    1    4    4    0    0  0.46657354991E+02 -0.19303932709E+02  0.54772728779E+02  0.14559227490E+03  0.12509000000E+03 0.  0.
         25    1    3    3    0    0 -0.12197416568E+02  0.48383784572E+02 -0.93930130832E+02  0.16419544804E+03  0.12509000000E+03 0.  0.
         25    1    4    4    0    0 -0.34459938422E+02 -0.29079851863E+02  0.59323306091E+02  0.14560181278E+03  0.12509000000E+03 0.  0.
<mgrwt>
<rscale>  2 0.45494282E+03</rscale>
<asrwt>0</asrwt>
<pdfrwt beam="1">  1       21 0.34967312E-01 0.45494282E+03</pdfrwt>
<pdfrwt beam="2">  1       21 0.32001737E-01 0.45494282E+03</pdfrwt>
<totfact> 0.68548558E+04</totfact>
</mgrwt>
</event>
<event>
 7    0  0.4709932E-002  0.4529329E+03  0.7546771E-02  0.1026851E+00
         21   -1    0    0  502  501  0.00000000000E+00  0.00000000000E+00  0.31179759943E+03  0.31179759943E+03  0.00000000000E+00 0.  1.
         21   -1    0    0  501  502 -0.00000000000E+00 -0.00000000000E+00 -0.16448826234E+03  0.16448826234E+03  0.00000000000E+00 0.  1.
      99926    2    1    2    0    0  0.71054273576E-14  0.00000000000E+00  0.14730933709E+03  0.47628586178E+03  0.45293286625E+03 0.  0.
      99925    2    3    3    0    0 -0.53950986802E+02  0.96190562458E+02  0.10795623114E+03  0.30493969657E+03  0.26300254261E+03 0.  0.
         25    1    3    3    0    0  0.53950986802E+02 -0.96190562458E+02  0.39353105948E+02  0.17134616521E+03  0.12509000000E+03 0.  0.
         25    1    4    4    0    0  0.14139217348E+02  0.47563048624E+02  0.46468238502E+02  0.14236912008E+03  0.12509000000E+03 0.  0.
         25    1    4    4    0    0 -0.68090204150E+02  0.48627513834E+02  0.61487992643E+02  0.16257057650E+03  0.12509000000E+03 0.  0.
<mgrwt>
<rscale>  2 0.45293287E+03</rscale>
<asrwt>0</asrwt>
<pdfrwt beam="1">  1       21 0.45852589E-01 0.45293287E+03</pdfrwt>
<pdfrwt beam="2">  1       21 0.24189450E-01 0.45293287E+03</pdfrwt>
<totfact> 0.68081593E+04</totfact>
</mgrwt>
</event>
<event>
 7    0  0.4709932E-002  0.4366569E+03  0.7546771E-02  0.1031777E+00
         21   -1    0    0  502  501  0.00000000000E+00  0.00000000000E+00  0.28976745798E+04  0.28976745798E+04  0.00000000000E+00 0. -1.
         21   -1    0    0  501  502 -0.00000000000E+00 -0.00000000000E+00 -0.16450197783E+02  0.16450197783E+02  0.00000000000E+00 0. -1.
      99926    2    1    2    0    0  0.00000000000E+00  0.00000000000E+00  0.28812243820E+04  0.29141247776E+04  0.43665693604E+03 0.  0.
      99925    2    3    3    0    0 -0.25997453650E+02 -0.80947095142E+02  0.15642119828E+04  0.15884560907E+04  0.26306904964E+03 0.  0.
         25    1    4    4    0    0 -0.34657223301E+02 -0.71061703333E+02  0.95480934596E+03  0.96620871660E+03  0.12509000000E+03 0.  0.
         25    1    4    4    0    0  0.86597696512E+01 -0.98853918092E+01  0.60940263688E+03  0.62224737405E+03  0.12509000000E+03 0.  0.
         25    1    3    3    0    0  0.25997453650E+02  0.80947095142E+02  0.13170123992E+04  0.13256686869E+04  0.12509000000E+03 0.  0.
<mgrwt>
<rscale>  2 0.43665694E+03</rscale>
<asrwt>0</asrwt>
<pdfrwt beam="1">  1       21 0.42612826E+00 0.43665694E+03</pdfrwt>
<pdfrwt beam="2">  1       21 0.24191487E-02 0.43665694E+03</pdfrwt>
<totfact> 0.43415971E+03</totfact>
</mgrwt>
</event>
<event>
 7    0  0.4709932E-002  0.4339063E+03  0.7546771E-02  0.1032633E+00
         21   -1    0    0  502  501  0.00000000000E+00  0.00000000000E+00  0.64243687525E+03  0.64243687525E+03  0.00000000000E+00 0. -1.
         21   -1    0    0  501  502 -0.00000000000E+00 -0.00000000000E+00 -0.73265838071E+02  0.73265838071E+02  0.00000000000E+00 0. -1.
      99926    2    1    2    0    0  0.35527136788E-14  0.00000000000E+00  0.56917103717E+03  0.71570271332E+03  0.43390633124E+03 0.  0.
      99925    2    3    3    0    0  0.29841643126E+02 -0.87001595372E+02  0.37006990280E+03  0.46321791958E+03  0.26298157121E+03 0.  0.
         25    1    4    4    0    0  0.23147021397E+02 -0.83940572924E+02  0.18463170271E+03  0.23941215117E+03  0.12509000000E+03 0.  0.
         25    1    4    4    0    0  0.66946217291E+01 -0.30610224473E+01  0.18543820009E+03  0.22380576841E+03  0.12509000000E+03 0.  0.
         25    1    3    3    0    0 -0.29841643126E+02  0.87001595372E+02  0.19910113437E+03  0.25248479374E+03  0.12509000000E+03 0.  0.
<mgrwt>
<rscale>  2 0.43390633E+03</rscale>
<asrwt>0</asrwt>
<pdfrwt beam="1">  1       21 0.94476008E-01 0.43390633E+03</pdfrwt>
<pdfrwt beam="2">  1       21 0.10774388E-01 0.43390633E+03</pdfrwt>
<totfact> 0.61672511E+04</totfact>
</mgrwt>
</event>
<event>
 7    0  0.4709932E-002  0.4563627E+03  0.7546771E-02  0.1025841E+00
         21   -1    0    0  502  501  0.00000000000E+00  0.00000000000E+00  0.60440772567E+03  0.60440772567E+03  0.00000000000E+00 0. -1.
         21   -1    0    0  501  502 -0.00000000000E+00 -0.00000000000E+00 -0.86145038683E+02  0.86145038683E+02  0.00000000000E+00 0. -1.
      99926    2    1    2    0    0  0.00000000000E+00 -0.14210854715E-13  0.51826268698E+03  0.69055276435E+03  0.45636269308E+03 0.  0.
      99925    2    3    3    0    0  0.37691338302E+02  0.10714381494E+03  0.30626572735E+03  0.41946116903E+03  0.26315117804E+03 0.  0.
         25    1    4    4    0    0  0.57537896600E+02  0.59852645239E+02  0.18089741433E+03  0.23508366872E+03  0.12509000000E+03 0.  0.
         25    1    4    4    0    0 -0.19846558298E+02  0.47291169705E+02  0.12536831302E+03  0.18437750030E+03  0.12509000000E+03 0.  0.
         25    1    3    3    0    0 -0.37691338302E+02 -0.10714381494E+03  0.21199695963E+03  0.27109159532E+03  0.12509000000E+03 0.  0.
<mgrwt>
<rscale>  2 0.45636269E+03</rscale>
<asrwt>0</asrwt>
<pdfrwt beam="1">  1       21 0.88883487E-01 0.45636269E+03</pdfrwt>
<pdfrwt beam="2">  1       21 0.12668388E-01 0.45636269E+03</pdfrwt>
<totfact> 0.52849779E+04</totfact>
</mgrwt>
</event>
<event>
 7    0  0.4709932E-002  0.4546845E+03  0.7546771E-02  0.1026334E+00
         21   -1    0    0  502  501  0.00000000000E+00  0.00000000000E+00  0.14933341621E+03  0.14933341621E+03  0.00000000000E+00 0.  1.
         21   -1    0    0  501  502 -0.00000000000E+00 -0.00000000000E+00 -0.34610132220E+03  0.34610132220E+03  0.00000000000E+00 0.  1.
      99926    2    1    2    0    0  0.00000000000E+00  0.00000000000E+00 -0.19676790599E+03  0.49543473841E+03  0.45468447433E+03 0.  0.
      99925    2    3    3    0    0  0.76618005057E+02 -0.82473575232E+02 -0.11475885868E+03  0.30823110263E+03  0.26299164944E+03 0.  0.
         25    1    3    3    0    0 -0.76618005057E+02  0.82473575232E+02 -0.82009047310E+02  0.18720363579E+03  0.12509000000E+03 0.  0.
         25    1    4    4    0    0  0.63812360857E+02 -0.75736680823E+02 -0.54208618930E+02  0.16850562212E+03  0.12509000000E+03 0.  0.
         25    1    4    4    0    0  0.12805644200E+02 -0.67368944093E+01 -0.60550239749E+02  0.13972548051E+03  0.12509000000E+03 0.  0.
<mgrwt>
<rscale>  2 0.45468447E+03</rscale>
<asrwt>0</asrwt>
<pdfrwt beam="1">  1       21 0.21960796E-01 0.45468447E+03</pdfrwt>
<pdfrwt beam="2">  1       21 0.50897253E-01 0.45468447E+03</pdfrwt>
<totfact> 0.65757138E+04</totfact>
</mgrwt>
</event>
<event>
 7    0  0.4709932E-002  0.4478918E+03  0.7546771E-02  0.1028353E+00
         21   -1    0    0  502  501  0.00000000000E+00  0.00000000000E+00  0.60288139899E+03  0.60288139899E+03  0.00000000000E+00 0. -1.
         21   -1    0    0  501  502 -0.00000000000E+00 -0.00000000000E+00 -0.83186786909E+02  0.83186786909E+02  0.00000000000E+00 0. -1.
      99926    2    1    2    0    0 -0.14210854715E-13  0.00000000000E+00  0.51969461208E+03  0.68606818590E+03  0.44789180153E+03 0.  0.
      99925    2    3    3    0    0 -0.86720461126E+02  0.17004120082E+02  0.23867822409E+03  0.36602553734E+03  0.26305478679E+03 0.  0.
         25    1    4    4    0    0 -0.81112823903E+02  0.23595145420E+02  0.14700527032E+03  0.21069902395E+03  0.12509000000E+03 0.  0.
         25    1    4    4    0    0 -0.56076372229E+01 -0.65910253390E+01  0.91672953765E+02  0.15532651339E+03  0.12509000000E+03 0.  0.
         25    1    3    3    0    0  0.86720461126E+02 -0.17004120082E+02  0.28101638799E+03  0.32004264856E+03  0.12509000000E+03 0.  0.
<mgrwt>
<rscale>  2 0.44789180E+03</rscale>
<asrwt>0</asrwt>
<pdfrwt beam="1">  1       21 0.88659027E-01 0.44789180E+03</pdfrwt>
<pdfrwt beam="2">  1       21 0.12233351E-01 0.44789180E+03</pdfrwt>
<totfact> 0.56777308E+04</totfact>
</mgrwt>
</event>
<event>
 7    0  0.4709932E-002  0.4614870E+03  0.7546771E-02  0.1024351E+00
         21   -1    0    0  502  501  0.00000000000E+00  0.00000000000E+00  0.27804276899E+03  0.27804276899E+03  0.00000000000E+00 0.  1.
         21   -1    0    0  501  502 -0.00000000000E+00 -0.00000000000E+00 -0.19149056613E+03  0.19149056613E+03  0.00000000000E+00 0.  1.
      99926    2    1    2    0    0  0.00000000000E+00  0.14210854715E-13  0.86552202860E+02  0.46953333512E+03  0.46148701929E+03 0.  0.
      99925    2    3    3    0    0  0.32034235312E+02 -0.71469946036E+02 -0.37722784200E+02  0.27659312177E+03  0.26257684808E+03 0.  0.
         25    1    4    4    0    0  0.84128276084E+01  0.82845775075E+00  0.14883542662E+00  0.12537540533E+03  0.12509000000E+03 0.  0.
         25    1    3    3    0    0 -0.32034235312E+02  0.71469946036E+02  0.12427498706E+03  0.19294021335E+03  0.12509000000E+03 0.  0.
         25    1    4    4    0    0  0.23621407703E+02 -0.72298403787E+02 -0.37871619627E+02  0.15121771644E+03  0.12509000000E+03 0.  0.
<mgrwt>
<rscale>  2 0.46148702E+03</rscale>
<asrwt>0</asrwt>
<pdfrwt beam="1">  1       21 0.40888643E-01 0.46148702E+03</pdfrwt>
<pdfrwt beam="2">  1       21 0.28160377E-01 0.46148702E+03</pdfrwt>
<totfact> 0.64104945E+04</totfact>
</mgrwt>
</event>
<event>
 6    0  0.4709932E-002  0.4462280E+03  0.7546771E-02  0.1028853E+00
         21   -1    0    0  502  501  0.00000000000E+00  0.00000000000E+00  0.11888364446E+03  0.11888364446E+03  0.00000000000E+00 0. -1.
         21   -1    0    0  501  502 -0.00000000000E+00 -0.00000000000E+00 -0.41872754538E+03  0.41872754538E+03  0.00000000000E+00 0. -1.
      99926    2    1    2    0    0  0.17763568394E-14  0.00000000000E+00 -0.29984390091E+03  0.53761118984E+03  0.44622799836E+03 0.  0.
         25    1    3    3    0    0 -0.26315527413E+02  0.65811273120E+02 -0.16090482533E+03  0.21578114275E+03  0.12509000000E+03 0.  0.
         25    1    3    3    0    0 -0.39620024927E+01 -0.96436111800E+02 -0.76045957881E+02  0.17534570691E+03  0.12509000000E+03 0.  0.
         25    1    3    3    0    0  0.30277529906E+02  0.30624838680E+02 -0.62893117704E+02  0.14648434017E+03  0.12509000000E+03 0.  0.
<mgrwt>
<rscale>  2 0.44622800E+03</rscale>
<asrwt>0</asrwt>
<pdfrwt beam="1">  1       21 0.17482889E-01 0.44622800E+03</pdfrwt>
<pdfrwt beam="2">  1       21 0.61577580E-01 0.44622800E+03</pdfrwt>
<totfact> 0.67240618E+04</totfact>
</mgrwt>
</event>
<event>
 7    0  0.4709932E-002  0.4551335E+03  0.7546771E-02  0.1026202E+00
         21   -1    0    0  502  501  0.00000000000E+00  0.00000000000E+00  0.89636799126E+03  0.89636799126E+03  0.00000000000E+00 0.  1.
         21   -1    0    0  501  502 -0.00000000000E+00 -0.00000000000E+00 -0.57773845247E+02  0.57773845247E+02  0.00000000000E+00 0.  1.
      99926    2    1    2    0    0  0.00000000000E+00  0.00000000000E+00  0.83859414601E+03  0.95414183651E+03  0.45513349959E+03 0.  0.
      99925    2    3    3    0    0  0.94871633205E+01  0.81702115494E+02  0.36429151785E+03  0.45677302654E+03  0.26299818603E+03 0.  0.
         25    1    3    3    0    0 -0.94871633205E+01 -0.81702115494E+02  0.47430262816E+03  0.49736880996E+03  0.12509000000E+03 0.  0.
         25    1    4    4    0    0  0.31803572772E+02  0.61524345424E+02  0.22981197482E+03  0.27066171541E+03  0.12509000000E+03 0.  0.
         25    1    4    4    0    0 -0.22316409451E+02  0.20177770070E+02  0.13447954303E+03  0.18611131113E+03  0.12509000000E+03 0.  0.
<mgrwt>
<rscale>  2 0.45513350E+03</rscale>
<asrwt>0</asrwt>
<pdfrwt beam="1">  1       21 0.13181881E+00 0.45513350E+03</pdfrwt>
<pdfrwt beam="2">  1       21 0.84961543E-02 0.45513350E+03</pdfrwt>
<totfact> 0.40930815E+04</totfact>
</mgrwt>
</event>
<event>
 7    0  0.4709932E-002  0.4544176E+03  0.7546771E-02  0.1026413E+00
         21   -1    0    0  502  501  0.00000000000E+00  0.00000000000E+00  0.40715193714E+03  0.40715193714E+03  0.00000000000E+00 0.  1.
         21   -1    0    0  501  502 -0.00000000000E+00 -0.00000000000E+00 -0.12679258703E+03  0.12679258703E+03  0.00000000000E+00 0.  1.
      99926    2    1    2    0    0  0.14210854715E-13  0.00000000000E+00  0.28035935011E+03  0.53394452418E+03  0.45441763797E+03 0.  0.
      99925    2    3    3    0    0 -0.85069353734E+02  0.72691024423E+02  0.19206918285E+03  0.34430422859E+03  0.26293354834E+03 0.  0.
         25    1    4    4    0    0 -0.33178427127E+02  0.70147773741E+02  0.12520673215E+03  0.19325049046E+03  0.12509000000E+03 0.  0.
         25    1    3    3    0    0  0.85069353734E+02 -0.72691024423E+02  0.88290167263E+02  0.18964029559E+03  0.12509000000E+03 0.  0.
         25    1    4    4    0    0 -0.51890926607E+02  0.25432506818E+01  0.66862450703E+02  0.15105373813E+03  0.12509000000E+03 0.  0.
<mgrwt>
<rscale>  2 0.45441764E+03</rscale>
<asrwt>0</asrwt>
<pdfrwt beam="1">  1       21 0.59875285E-01 0.45441764E+03</pdfrwt>
<pdfrwt beam="2">  1       21 0.18645969E-01 0.45441764E+03</pdfrwt>
<totfact> 0.63231058E+04</totfact>
</mgrwt>
</event>
<event>
 7    0  0.4709932E-002  0.4545427E+03  0.7546771E-02  0.1026376E+00
         21   -1    0    0  502  501  0.00000000000E+00  0.00000000000E+00  0.79884623628E+02  0.79884623628E+02  0.00000000000E+00 0. -1.
         21   -1    0    0  501  502 -0.00000000000E+00 -0.00000000000E+00 -0.64658585053E+03  0.64658585053E+03  0.00000000000E+00 0. -1.
      99926    2    1    2    0    0  0.00000000000E+00  0.14210854715E-13 -0.56670122690E+03  0.72647047416E+03  0.45454270344E+03 0.  0.
      99925    2    3    3    0    0 -0.40506736327E+02 -0.10475885888E+03 -0.37075889827E+03  0.46829201175E+03  0.26309700382E+03 0.  0.
         25    1    4    4    0    0 -0.24346201704E+02 -0.72729940137E+02 -0.25460982597E+03  0.29386400479E+03  0.12509000000E+03 0.  0.
         25    1    4    4    0    0 -0.16160534623E+02 -0.32028918747E+02 -0.11614907230E+03  0.17442800696E+03  0.12509000000E+03 0.  0.
         25    1    3    3    0    0  0.40506736327E+02  0.10475885888E+03 -0.19594232863E+03  0.25817846241E+03  0.12509000000E+03 0.  0.
<mgrwt>
<rscale>  2 0.45454270E+03</rscale>
<asrwt>0</asrwt>
<pdfrwt beam="1">  1       21 0.11747739E-01 0.45454270E+03</pdfrwt>
<pdfrwt beam="2">  1       21 0.95086156E-01 0.45454270E+03</pdfrwt>
<totfact> 0.51674863E+04</totfact>
</mgrwt>
</event>
<event>
 7    0  0.4709932E-002  0.4501682E+03  0.7546771E-02  0.1027672E+00
         21   -1    0    0  502  501  0.00000000000E+00  0.00000000000E+00  0.21867637251E+03  0.21867637251E+03  0.00000000000E+00 0.  1.
         21   -1    0    0  501  502 -0.00000000000E+00 -0.00000000000E+00 -0.23167953738E+03  0.23167953738E+03  0.00000000000E+00 0.  1.
      99926    2    1    2    0    0  0.00000000000E+00 -0.71054273576E-14 -0.13003164869E+02  0.45035590989E+03  0.45016815000E+03 0.  0.
      99925    2    3    3    0    0 -0.90062725147E+02 -0.59766914655E+02 -0.18390856079E+02  0.28494758524E+03  0.26300860099E+03 0.  0.
         25    1    3    3    0    0  0.90062725147E+02  0.59766914655E+02  0.53876912099E+01  0.16540832465E+03  0.12509000000E+03 0.  0.
         25    1    4    4    0    0 -0.65130848491E+02 -0.46270960408E+02 -0.42602678554E+02  0.15441996478E+03  0.12509000000E+03 0.  0.
         25    1    4    4    0    0 -0.24931876656E+02 -0.13495954247E+02  0.24211822475E+02  0.13052762046E+03  0.12509000000E+03 0.  0.
<mgrwt>
<rscale>  2 0.45016815E+03</rscale>
<asrwt>0</asrwt>
<pdfrwt beam="1">  1       21 0.32158290E-01 0.45016815E+03</pdfrwt>
<pdfrwt beam="2">  1       21 0.34070520E-01 0.45016815E+03</pdfrwt>
<totfact> 0.71608529E+04</totfact>
</mgrwt>
</event>
<event>
 7    0  0.4709932E-002  0.3959410E+03  0.7546771E-02  0.1045194E+00
         21   -1    0    0  502  501  0.00000000000E+00  0.00000000000E+00  0.20136962474E+02  0.20136962474E+02  0.00000000000E+00 0. -1.
         21   -1    0    0  501  502 -0.00000000000E+00 -0.00000000000E+00 -0.19462870675E+04  0.19462870675E+04  0.00000000000E+00 0. -1.
      99926    2    1    2    0    0 -0.35527136788E-14 -0.35527136788E-14 -0.19261501050E+04  0.19664240300E+04  0.39594095339E+03 0.  0.
      99925    2    3    3    0    0  0.31277446187E+02  0.13782096844E+02 -0.13602581302E+04  0.13858644205E+04  0.26296346992E+03 0.  0.
         25    1    3    3    0    0 -0.31277446187E+02 -0.13782096844E+02 -0.56589197486E+03  0.58055960946E+03  0.12509000000E+03 0.  0.
         25    1    4    4    0    0  0.10642085413E+02  0.37759429198E+02 -0.55075207825E+03  0.56613990168E+03  0.12509000000E+03 0.  0.
         25    1    4    4    0    0  0.20635360774E+02 -0.23977332353E+02 -0.80950605191E+03  0.81972451883E+03  0.12509000000E+03 0.  0.
<mgrwt>
<rscale>  2 0.39594095E+03</rscale>
<asrwt>0</asrwt>
<pdfrwt beam="1">  1       21 0.29613170E-02 0.39594095E+03</pdfrwt>
<pdfrwt beam="2">  1       21 0.28621879E+00 0.39594095E+03</pdfrwt>
<totfact> 0.23235760E+04</totfact>
</mgrwt>
</event>
<event>
 7    0  0.4709932E-002  0.4543527E+03  0.7546771E-02  0.1026432E+00
         21   -1    0    0  502  501  0.00000000000E+00  0.00000000000E+00  0.80033262725E+03  0.80033262725E+03  0.00000000000E+00 0. -1.
         21   -1    0    0  501  502 -0.00000000000E+00 -0.00000000000E+00 -0.64484551715E+02  0.64484551715E+02  0.00000000000E+00 0. -1.
      99926    2    1    2    0    0  0.00000000000E+00  0.00000000000E+00  0.73584807553E+03  0.86481717896E+03  0.45435268544E+03 0.  0.
      99925    2    3    3    0    0  0.24909839584E+02 -0.61197783225E+02  0.63680530744E+03  0.69212483173E+03  0.26296409326E+03 0.  0.
         25    1    4    4    0    0 -0.19542611205E+02 -0.21459251220E+02  0.24637211196E+03  0.27782933389E+03  0.12509000000E+03 0.  0.
         25    1    3    3    0    0 -0.24909839584E+02  0.61197783225E+02  0.99042768098E+02  0.17269234723E+03  0.12509000000E+03 0.  0.
         25    1    4    4    0    0  0.44452450789E+02 -0.39738532005E+02  0.39043319547E+03  0.41429549784E+03  0.12509000000E+03 0.  0.
<mgrwt>
<rscale>  2 0.45435269E+03</rscale>
<asrwt>0</asrwt>
<pdfrwt beam="1">  1       21 0.11769597E+00 0.45435269E+03</pdfrwt>
<pdfrwt beam="2">  1       21 0.94830228E-02 0.45435269E+03</pdfrwt>
<totfact> 0.45011659E+04</totfact>
</mgrwt>
</event>
<event>
 7    0  0.4709932E-002  0.4594840E+03  0.7546771E-02  0.1024931E+00
         21   -1    0    0  502  501  0.00000000000E+00  0.00000000000E+00  0.56673599261E+02  0.56673599261E+02  0.00000000000E+00 0. -1.
         21   -1    0    0  501  502 -0.00000000000E+00 -0.00000000000E+00 -0.93132216640E+03  0.93132216640E+03  0.00000000000E+00 0. -1.
      99926    2    1    2    0    0  0.00000000000E+00  0.71054273576E-14 -0.87464856714E+03  0.98799576566E+03  0.45948396813E+03 0.  0.
      99925    2    3    3    0    0  0.34318635821E+02  0.55745489432E+02 -0.75754450368E+03  0.80456676541E+03  0.26299938513E+03 0.  0.
         25    1    3    3    0    0 -0.34318635821E+02 -0.55745489432E+02 -0.11710406346E+03  0.18342900026E+03  0.12509000000E+03 0.  0.
         25    1    4    4    0    0  0.35016416110E+02  0.55505363076E+02 -0.47521466906E+03  0.49576555398E+03  0.12509000000E+03 0.  0.
         25    1    4    4    0    0 -0.69778028870E+00  0.24012635643E+00 -0.28232983462E+03  0.30880121142E+03  0.12509000000E+03 0.  0.
<mgrwt>
<rscale>  2 0.45948397E+03</rscale>
<asrwt>0</asrwt>
<pdfrwt beam="1">  1       21 0.83343530E-02 0.45948397E+03</pdfrwt>
<pdfrwt beam="2">  1       21 0.13695914E+00 0.45948397E+03</pdfrwt>
<totfact> 0.38278498E+04</totfact>
</mgrwt>
</event>
<event>
 7    0  0.4709932E-002  0.4046522E+03  0.7546771E-02  0.1042181E+00
         21   -1    0    0  502  501  0.00000000000E+00  0.00000000000E+00  0.36429043443E+02  0.36429043443E+02  0.00000000000E+00 0.  1.
         21   -1    0    0  501  502 -0.00000000000E+00 -0.00000000000E+00 -0.11237149221E+04  0.11237149221E+04  0.00000000000E+00 0.  1.
      99926    2    1    2    0    0  0.00000000000E+00  0.35527136788E-14 -0.10872858787E+04  0.11601439656E+04  0.40465224435E+03 0.  0.
      99925    2    3    3    0    0 -0.21466373809E+02 -0.19289902394E+02 -0.85144225557E+03  0.89162464000E+03  0.26307352309E+03 0.  0.
         25    1    3    3    0    0  0.21466373809E+02  0.19289902394E+02 -0.23584362310E+03  0.26851932555E+03  0.12509000000E+03 0.  0.
         25    1    4    4    0    0 -0.23942698349E+01  0.30301334282E+02 -0.41899201025E+03  0.43832147580E+03  0.12509000000E+03 0.  0.
         25    1    4    4    0    0 -0.19072103974E+02 -0.49591236676E+02 -0.43245024532E+03  0.45330316420E+03  0.12509000000E+03 0.  0.
<mgrwt>
<rscale>  2 0.40465224E+03</rscale>
<asrwt>0</asrwt>
<pdfrwt beam="1">  1       21 0.53572132E-02 0.40465224E+03</pdfrwt>
<pdfrwt beam="2">  1       21 0.16525217E+00 0.40465224E+03</pdfrwt>
<totfact> 0.50552323E+04</totfact>
</mgrwt>
</event>
<event>
 7    0  0.4709932E-002  0.4235875E+03  0.7546771E-02  0.1035905E+00
         21   -1    0    0  502  501  0.00000000000E+00  0.00000000000E+00  0.19243660561E+03  0.19243660561E+03  0.00000000000E+00 0. -1.
         21   -1    0    0  501  502 -0.00000000000E+00 -0.00000000000E+00 -0.23309807328E+03  0.23309807328E+03  0.00000000000E+00 0. -1.
      99926    2    1    2    0    0  0.00000000000E+00  0.00000000000E+00 -0.40661467664E+02  0.42553467889E+03  0.42358754465E+03 0.  0.
      99925    2    3    3    0    0  0.69284161289E+02 -0.37078886133E+02 -0.42645001434E+02  0.27779646004E+03  0.26301547153E+03 0.  0.
         25    1    4    4    0    0  0.27568848104E+02 -0.51771176975E+02  0.87976484547E+00  0.13816142094E+03  0.12509000000E+03 0.  0.
         25    1    4    4    0    0  0.41715313184E+02  0.14692290841E+02 -0.43524766280E+02  0.13963503910E+03  0.12509000000E+03 0.  0.
         25    1    3    3    0    0 -0.69284161289E+02  0.37078886133E+02  0.19835337707E+01  0.14773821885E+03  0.12509000000E+03 0.  0.
<mgrwt>
<rscale>  2 0.42358754E+03</rscale>
<asrwt>0</asrwt>
<pdfrwt beam="1">  1       21 0.28299501E-01 0.42358754E+03</pdfrwt>
<pdfrwt beam="2">  1       21 0.34279128E-01 0.42358754E+03</pdfrwt>
<totfact> 0.91669828E+04</totfact>
</mgrwt>
</event>
<event>
 7    0  0.4709932E-002  0.4554918E+03  0.7546771E-02  0.1026097E+00
         21   -1    0    0  502  501  0.00000000000E+00  0.00000000000E+00  0.37392162200E+03  0.37392162200E+03  0.00000000000E+00 0.  1.
         21   -1    0    0  501  502 -0.00000000000E+00 -0.00000000000E+00 -0.13871405491E+03  0.13871405491E+03  0.00000000000E+00 0.  1.
      99926    2    1    2    0    0  0.00000000000E+00  0.00000000000E+00  0.23520756709E+03  0.51263567691E+03  0.45549175363E+03 0.  0.
      99925    2    3    3    0    0 -0.58006330631E+02  0.70037101137E+02  0.70909999246E+02  0.28700073097E+03  0.26281411997E+03 0.  0.
         25    1    4    4    0    0 -0.16544018456E+02  0.66393648698E+02  0.13528804437E+02  0.14322135938E+03  0.12509000000E+03 0.  0.
         25    1    3    3    0    0  0.58006330631E+02 -0.70037101137E+02  0.16429756784E+03  0.22563494594E+03  0.12509000000E+03 0.  0.
         25    1    4    4    0    0 -0.41462312175E+02  0.36434524391E+01  0.57381194809E+02  0.14377937159E+03  0.12509000000E+03 0.  0.
<mgrwt>
<rscale>  2 0.45549175E+03</rscale>
<asrwt>0</asrwt>
<pdfrwt beam="1">  1       21 0.54988474E-01 0.45549175E+03</pdfrwt>
<pdfrwt beam="2">  1       21 0.20399126E-01 0.45549175E+03</pdfrwt>
<totfact> 0.64141102E+04</totfact>
</mgrwt>
</event>
<event>
 7    0  0.4709932E-002  0.4683128E+03  0.7546771E-02  0.1022397E+00
         21   -1    0    0  502  501  0.00000000000E+00  0.00000000000E+00  0.44394198912E+02  0.44394198912E+02  0.00000000000E+00 0.  1.
         21   -1    0    0  501  502 -0.00000000000E+00 -0.00000000000E+00 -0.12350537482E+04  0.12350537482E+04  0.00000000000E+00 0.  1.
      99926    2    1    2    0    0 -0.71054273576E-14 -0.71054273576E-14 -0.11906595493E+04  0.12794479471E+04  0.46831280898E+03 0.  0.
      99925    2    3    3    0    0 -0.53456947255E+02 -0.58342944771E+02 -0.47564676479E+03  0.54927513571E+03  0.26306232235E+03 0.  0.
         25    1    4    4    0    0  0.13688878303E+02 -0.24672005245E+02 -0.24008876063E+03  0.27218782910E+03  0.12509000000E+03 0.  0.
         25    1    4    4    0    0 -0.67145825558E+02 -0.33670939526E+02 -0.23555800417E+03  0.27708730661E+03  0.12509000000E+03 0.  0.
         25    1    3    3    0    0  0.53456947255E+02  0.58342944771E+02 -0.71501278449E+03  0.73017281140E+03  0.12509000000E+03 0.  0.
<mgrwt>
<rscale>  2 0.46831281E+03</rscale>
<asrwt>0</asrwt>
<pdfrwt beam="1">  1       21 0.65285582E-02 0.46831281E+03</pdfrwt>
<pdfrwt beam="2">  1       21 0.18162557E+00 0.46831281E+03</pdfrwt>
<totfact> 0.26828295E+04</totfact>
</mgrwt>
</event>
<event>
 7    0  0.4709932E-002  0.4544353E+03  0.7546771E-02  0.1026408E+00
         21   -1    0    0  502  501  0.00000000000E+00  0.00000000000E+00  0.35416818785E+03  0.35416818785E+03  0.00000000000E+00 0. -1.
         21   -1    0    0  501  502 -0.00000000000E+00 -0.00000000000E+00 -0.14577217305E+03  0.14577217305E+03  0.00000000000E+00 0. -1.
      99926    2    1    2    0    0  0.00000000000E+00  0.35527136788E-14  0.20839601480E+03  0.49994036090E+03  0.45443532595E+03 0.  0.
      99925    2    3    3    0    0 -0.77285251300E+02  0.18889565906E+02  0.43398070120E+02  0.27812589875E+03  0.26294637723E+03 0.  0.
         25    1    4    4    0    0 -0.27127096100E+02  0.31552529432E+02 -0.10894795893E+02  0.13227866848E+03  0.12509000000E+03 0.  0.
         25    1    4    4    0    0 -0.50158155200E+02 -0.12662963526E+02  0.54292866013E+02  0.14584723027E+03  0.12509000000E+03 0.  0.
         25    1    3    3    0    0  0.77285251300E+02 -0.18889565906E+02  0.16499794468E+03  0.22181446215E+03  0.12509000000E+03 0.  0.
<mgrwt>
<rscale>  2 0.45443533E+03</rscale>
<asrwt>0</asrwt>
<pdfrwt beam="1">  1       21 0.52083557E-01 0.45443533E+03</pdfrwt>
<pdfrwt beam="2">  1       21 0.21437084E-01 0.45443533E+03</pdfrwt>
<totfact> 0.65568261E+04</totfact>
</mgrwt>
</event>
<event>
 7    0  0.4709932E-002  0.4583466E+03  0.7546771E-02  0.1025262E+00
         21   -1    0    0  502  501  0.00000000000E+00  0.00000000000E+00  0.46006037985E+03  0.46006037985E+03  0.00000000000E+00 0. -1.
         21   -1    0    0  501  502 -0.00000000000E+00 -0.00000000000E+00 -0.11415982348E+03  0.11415982348E+03  0.00000000000E+00 0. -1.
      99926    2    1    2    0    0  0.00000000000E+00 -0.35527136788E-14  0.34590055637E+03  0.57422020333E+03  0.45834664504E+03 0.  0.
      99925    2    3    3    0    0  0.44030136601E+02  0.14124627071E+02  0.35062873126E+03  0.44077350328E+03  0.26306390095E+03 0.  0.
         25    1    4    4    0    0  0.14145448478E+02  0.37209003494E+02  0.13259281467E+03  0.18658233104E+03  0.12509000000E+03 0.  0.
         25    1    4    4    0    0  0.29884688122E+02 -0.23084376422E+02  0.21803591659E+03  0.25419117223E+03  0.12509000000E+03 0.  0.
         25    1    3    3    0    0 -0.44030136601E+02 -0.14124627071E+02 -0.47281748910E+01  0.13344670006E+03  0.12509000000E+03 0.  0.
<mgrwt>
<rscale>  2 0.45834665E+03</rscale>
<asrwt>0</asrwt>
<pdfrwt beam="1">  1       21 0.67655937E-01 0.45834665E+03</pdfrwt>
<pdfrwt beam="2">  1       21 0.16788210E-01 0.45834665E+03</pdfrwt>
<totfact> 0.58724362E+04</totfact>
</mgrwt>
</event>
<event>
 7    0  0.4709932E-002  0.4641302E+03  0.7546771E-02  0.1023590E+00
         21   -1    0    0  502  501  0.00000000000E+00  0.00000000000E+00  0.48428221860E+03  0.48428221860E+03  0.00000000000E+00 0.  1.
         21   -1    0    0  501  502 -0.00000000000E+00 -0.00000000000E+00 -0.11120419514E+03  0.11120419514E+03  0.00000000000E+00 0.  1.
      99926    2    1    2    0    0  0.00000000000E+00 -0.71054273576E-14  0.37307802346E+03  0.59548641375E+03  0.46413021596E+03 0.  0.
      99925    2    3    3    0    0 -0.10144883971E+03 -0.50120220420E+02  0.28985163036E+03  0.40739589250E+03  0.26297061058E+03 0.  0.
         25    1    4    4    0    0 -0.81103490065E+02 -0.69320430563E+01  0.12252542231E+03  0.19309535606E+03  0.12509000000E+03 0.  0.
         25    1    4    4    0    0 -0.20345349648E+02 -0.43188177364E+02  0.16732620805E+03  0.21430053644E+03  0.12509000000E+03 0.  0.
         25    1    3    3    0    0  0.10144883971E+03  0.50120220420E+02  0.83226393097E+02  0.18809052124E+03  0.12509000000E+03 0.  0.
<mgrwt>
<rscale>  2 0.46413022E+03</rscale>
<asrwt>0</asrwt>
<pdfrwt beam="1">  1       21 0.71217972E-01 0.46413022E+03</pdfrwt>
<pdfrwt beam="2">  1       21 0.16353558E-01 0.46413022E+03</pdfrwt>
<totfact> 0.54888123E+04</totfact>
</mgrwt>
</event>
<event>
 7    0  0.4709932E-002  0.4536968E+03  0.7546771E-02  0.1026625E+00
         21   -1    0    0  502  501  0.00000000000E+00  0.00000000000E+00  0.57431206484E+03  0.57431206484E+03  0.00000000000E+00 0.  1.
         21   -1    0    0  501  502 -0.00000000000E+00 -0.00000000000E+00 -0.89603207057E+02  0.89603207057E+02  0.00000000000E+00 0.  1.
      99926    2    1    2    0    0  0.13877787808E-14  0.00000000000E+00  0.48470885778E+03  0.66391527189E+03  0.45369682768E+03 0.  0.
      99925    2    3    3    0    0  0.16647700588E+00 -0.10697580870E+03  0.25716413909E+03  0.38308087502E+03  0.26300895615E+03 0.  0.
         25    1    3    3    0    0 -0.16647700588E+00  0.10697580870E+03  0.22754471869E+03  0.28083439687E+03  0.12509000000E+03 0.  0.
         25    1    4    4    0    0 -0.32569856623E+02 -0.28029966200E+02  0.11327369236E+03  0.17414049514E+03  0.12509000000E+03 0.  0.
         25    1    4    4    0    0  0.32736333629E+02 -0.78945842500E+02  0.14389044673E+03  0.20894037988E+03  0.12509000000E+03 0.  0.
<mgrwt>
<rscale>  2 0.45369683E+03</rscale>
<asrwt>0</asrwt>
<pdfrwt beam="1">  1       21 0.84457655E-01 0.45369683E+03</pdfrwt>
<pdfrwt beam="2">  1       21 0.13176942E-01 0.45369683E+03</pdfrwt>
<totfact> 0.55473815E+04</totfact>
</mgrwt>
</event>
<event>
 7    0  0.4709932E-002  0.4524865E+03  0.7546771E-02  0.1026983E+00
         21   -1    0    0  502  501  0.00000000000E+00  0.00000000000E+00  0.29571509127E+03  0.29571509127E+03  0.00000000000E+00 0. -1.
         21   -1    0    0  501  502 -0.00000000000E+00 -0.00000000000E+00 -0.17309234672E+03  0.17309234672E+03  0.00000000000E+00 0. -1.
      99926    2    1    2    0    0  0.00000000000E+00  0.17763568394E-14  0.12262274455E+03  0.46880743800E+03  0.45248654835E+03 0.  0.
      99925    2    3    3    0    0  0.33123757321E+02  0.84366219851E+01  0.18651004984E+03  0.32424791473E+03  0.26302538209E+03 0.  0.
         25    1    3    3    0    0 -0.33123757321E+02 -0.84366219851E+01 -0.63887305297E+02  0.14455952327E+03  0.12509000000E+03 0.  0.
         25    1    4    4    0    0  0.56221297455E+02 -0.13762630532E+01  0.10659742403E+03  0.17370448267E+03  0.12509000000E+03 0.  0.
         25    1    4    4    0    0 -0.23097540134E+02  0.98128850384E+01  0.79912625810E+02  0.15054343206E+03  0.12509000000E+03 0.  0.
<mgrwt>
<rscale>  2 0.45248655E+03</rscale>
<asrwt>0</asrwt>
<pdfrwt beam="1">  1       21 0.43487513E-01 0.45248655E+03</pdfrwt>
<pdfrwt beam="2">  1       21 0.25454757E-01 0.45248655E+03</pdfrwt>
<totfact> 0.68887908E+04</totfact>
</mgrwt>
</event>
<event>
 7    0  0.4709932E-002  0.4554464E+03  0.7546771E-02  0.1026110E+00
         21   -1    0    0  502  501  0.00000000000E+00  0.00000000000E+00  0.39260866237E+03  0.39260866237E+03  0.00000000000E+00 0. -1.
         21   -1    0    0  501  502 -0.00000000000E+00 -0.00000000000E+00 -0.13208537146E+03  0.13208537146E+03  0.00000000000E+00 0. -1.
      99926    2    1    2    0    0  0.00000000000E+00  0.00000000000E+00  0.26052329091E+03  0.52469403383E+03  0.45544642279E+03 0.  0.
      99925    2    3    3    0    0 -0.62869832158E+02  0.66074213837E+02  0.85676648212E+02  0.29116186454E+03  0.26289983983E+03 0.  0.
         25    1    3    3    0    0  0.62869832158E+02 -0.66074213837E+02  0.17484664269E+03  0.23353216929E+03  0.12509000000E+03 0.  0.
         25    1    4    4    0    0 -0.11086641468E+02  0.52255759092E+02  0.12355468198E+02  0.13657870871E+03  0.12509000000E+03 0.  0.
         25    1    4    4    0    0 -0.51783190691E+02  0.13818454745E+02  0.73321180014E+02  0.15458315584E+03  0.12509000000E+03 0.  0.
<mgrwt>
<rscale>  2 0.45544642E+03</rscale>
<asrwt>0</asrwt>
<pdfrwt beam="1">  1       21 0.57736568E-01 0.45544642E+03</pdfrwt>
<pdfrwt beam="2">  1       21 0.19424319E-01 0.45544642E+03</pdfrwt>
<totfact> 0.63342655E+04</totfact>
</mgrwt>
</event>
<event>
 7    0  0.4709932E-002  0.4554728E+03  0.7546771E-02  0.1026102E+00
         21   -1    0    0  502  501  0.00000000000E+00  0.00000000000E+00  0.65465454063E+03  0.65465454063E+03  0.00000000000E+00 0. -1.
         21   -1    0    0  501  502 -0.00000000000E+00 -0.00000000000E+00 -0.79223269072E+02  0.79223269072E+02  0.00000000000E+00 0. -1.
      99926    2    1    2    0    0  0.00000000000E+00  0.14210854715E-13  0.57543127156E+03  0.73387780970E+03  0.45547282168E+03 0.  0.
      99925    2    3    3    0    0  0.26782230109E+02  0.10807295697E+03  0.39888121398E+03  0.49053754832E+03  0.26291407640E+03 0.  0.
         25    1    4    4    0    0  0.15143615986E+02  0.14749754661E+02  0.20881132805E+03  0.24432880139E+03  0.12509000000E+03 0.  0.
         25    1    4    4    0    0  0.11638614123E+02  0.93323202307E+02  0.19006988593E+03  0.24620874693E+03  0.12509000000E+03 0.  0.
         25    1    3    3    0    0 -0.26782230109E+02 -0.10807295697E+03  0.17655005758E+03  0.24334026138E+03  0.12509000000E+03 0.  0.
<mgrwt>
<rscale>  2 0.45547282E+03</rscale>
<asrwt>0</asrwt>
<pdfrwt beam="1">  1       21 0.96272724E-01 0.45547282E+03</pdfrwt>
<pdfrwt beam="2">  1       21 0.11650481E-01 0.45547282E+03</pdfrwt>
<totfact> 0.50912394E+04</totfact>
</mgrwt>
</event>
<event>
 7    0  0.4709932E-002  0.4512941E+03  0.7546771E-02  0.1027337E+00
         21   -1    0    0  502  501  0.00000000000E+00  0.00000000000E+00  0.17334573418E+03  0.17334573418E+03  0.00000000000E+00 0.  1.
         21   -1    0    0  501  502 -0.00000000000E+00 -0.00000000000E+00 -0.29372856947E+03  0.29372856947E+03  0.00000000000E+00 0.  1.
      99926    2    1    2    0    0  0.88817841970E-15  0.00000000000E+00 -0.12038283529E+03  0.46707430365E+03  0.45129411485E+03 0.  0.
      99925    2    3    3    0    0 -0.53860299806E+01 -0.71577881314E+02 -0.16186724002E+03  0.31700476528E+03  0.26294222827E+03 0.  0.
         25    1    4    4    0    0  0.24242086635E+02 -0.13417308159E+02 -0.52396086561E+02  0.13842167789E+03  0.12509000000E+03 0.  0.
         25    1    4    4    0    0 -0.29628116616E+02 -0.58160573156E+02 -0.10947115345E+03  0.17858308739E+03  0.12509000000E+03 0.  0.
         25    1    3    3    0    0  0.53860299806E+01  0.71577881314E+02  0.41484404722E+02  0.15006953837E+03  0.12509000000E+03 0.  0.
<mgrwt>
<rscale>  2 0.45129411E+03</rscale>
<asrwt>0</asrwt>
<pdfrwt beam="1">  1       21 0.25492020E-01 0.45129411E+03</pdfrwt>
<pdfrwt beam="2">  1       21 0.43195377E-01 0.45129411E+03</pdfrwt>
<totfact> 0.69680014E+04</totfact>
</mgrwt>
</event>
<event>
 7    0  0.4709932E-002  0.4520056E+03  0.7546771E-02  0.1027126E+00
         21   -1    0    0  502  501  0.00000000000E+00  0.00000000000E+00  0.91821326939E+03  0.91821326939E+03  0.00000000000E+00 0.  1.
         21   -1    0    0  501  502 -0.00000000000E+00 -0.00000000000E+00 -0.55626810599E+02  0.55626810599E+02  0.00000000000E+00 0.  1.
      99926    2    1    2    0    0 -0.14210854715E-13  0.00000000000E+00  0.86258645879E+03  0.97384007999E+03  0.45200564433E+03 0.  0.
      99925    2    3    3    0    0 -0.68210901607E+02  0.29782631465E+02  0.37047485100E+03  0.46065290667E+03  0.26345730767E+03 0.  0.
         25    1    3    3    0    0  0.68210901607E+02 -0.29782631465E+02  0.49211160780E+03  0.51318717332E+03  0.12509000000E+03 0.  0.
         25    1    4    4    0    0 -0.37356970630E+02 -0.11446717345E+02  0.12911690706E+03  0.18397079763E+03  0.12509000000E+03 0.  0.
         25    1    4    4    0    0 -0.30853930976E+02  0.41229348810E+02  0.24135794393E+03  0.27668210904E+03  0.12509000000E+03 0.  0.
<mgrwt>
<rscale>  2 0.45200564E+03</rscale>
<asrwt>0</asrwt>
<pdfrwt beam="1">  1       21 0.13503135E+00 0.45200564E+03</pdfrwt>
<pdfrwt beam="2">  1       21 0.81804139E-02 0.45200564E+03</pdfrwt>
<totfact> 0.41144942E+04</totfact>
</mgrwt>
</event>
<event>
 7    0  0.4709932E-002  0.4599306E+03  0.7546771E-02  0.1024801E+00
         21   -1    0    0  502  501  0.00000000000E+00  0.00000000000E+00  0.22682551457E+03  0.22682551457E+03  0.00000000000E+00 0.  1.
         21   -1    0    0  501  502 -0.00000000000E+00 -0.00000000000E+00 -0.23314855312E+03  0.23314855312E+03  0.00000000000E+00 0.  1.
      99926    2    1    2    0    0  0.00000000000E+00  0.00000000000E+00 -0.63230385462E+01  0.45997406769E+03  0.45993060578E+03 0.  0.
      99925    2    3    3    0    0  0.21778405733E+02 -0.10768573722E+03  0.37913439568E+02  0.28771005214E+03  0.26319028904E+03 0.  0.
         25    1    4    4    0    0 -0.35967046857E+01 -0.93423712881E+02  0.11506737686E+02  0.15659131370E+03  0.12509000000E+03 0.  0.
         25    1    4    4    0    0  0.25375110419E+02 -0.14262024342E+02  0.26406701882E+02  0.13111873845E+03  0.12509000000E+03 0.  0.
         25    1    3    3    0    0 -0.21778405733E+02  0.10768573722E+03 -0.44236478114E+02  0.17226401555E+03  0.12509000000E+03 0.  0.
<mgrwt>
<rscale>  2 0.45993061E+03</rscale>
<asrwt>0</asrwt>
<pdfrwt beam="1">  1       21 0.33356693E-01 0.45993061E+03</pdfrwt>
<pdfrwt beam="2">  1       21 0.34286552E-01 0.45993061E+03</pdfrwt>
<totfact> 0.65565298E+04</totfact>
</mgrwt>
</event>
<event>
 7    0  0.4709932E-002  0.4502006E+03  0.7546771E-02  0.1027662E+00
         21   -1    0    0  502  501  0.00000000000E+00  0.00000000000E+00  0.98706130817E+03  0.98706130817E+03  0.00000000000E+00 0.  1.
         21   -1    0    0  501  502 -0.00000000000E+00 -0.00000000000E+00 -0.51334351116E+02  0.51334351116E+02  0.00000000000E+00 0.  1.
      99926    2    1    2    0    0 -0.17763568394E-14  0.35527136788E-14  0.93572695706E+03  0.10383956593E+04  0.45020062979E+03 0.  0.
      99925    2    3    3    0    0 -0.96355624622E+01 -0.29134612136E+02  0.35092010792E+03  0.43957329114E+03  0.26294122244E+03 0.  0.
         25    1    4    4    0    0  0.32628420592E+02 -0.16381221295E+02  0.19925643797E+03  0.23808316701E+03  0.12509000000E+03 0.  0.
         25    1    4    4    0    0 -0.42263983054E+02 -0.12753390841E+02  0.15166366995E+03  0.20149012414E+03  0.12509000000E+03 0.  0.
         25    1    3    3    0    0  0.96355624622E+01  0.29134612136E+02  0.58480684914E+03  0.59882236815E+03  0.12509000000E+03 0.  0.
<mgrwt>
<rscale>  2 0.45020063E+03</rscale>
<asrwt>0</asrwt>
<pdfrwt beam="1">  1       21 0.14515606E+00 0.45020063E+03</pdfrwt>
<pdfrwt beam="2">  1       21 0.75491699E-02 0.45020063E+03</pdfrwt>
<totfact> 0.39152493E+04</totfact>
</mgrwt>
</event>
<event>
 7    0  0.4709932E-002  0.4530678E+03  0.7546771E-02  0.1026811E+00
         21   -1    0    0  502  501  0.00000000000E+00  0.00000000000E+00  0.11779225344E+04  0.11779225344E+04  0.00000000000E+00 0. -1.
         21   -1    0    0  501  502 -0.00000000000E+00 -0.00000000000E+00 -0.43566193184E+02  0.43566193184E+02  0.00000000000E+00 0. -1.
      99926    2    1    2    0    0  0.00000000000E+00  0.71054273576E-14  0.11343563412E+04  0.12214887275E+04  0.45306776839E+03 0.  0.
      99925    2    3    3    0    0  0.83645645105E+02 -0.54801404071E+02  0.58270376306E+03  0.64706043535E+03  0.26295197979E+03 0.  0.
         25    1    3    3    0    0 -0.83645645105E+02  0.54801404071E+02  0.55165257811E+03  0.57442829219E+03  0.12509000000E+03 0.  0.
         25    1    4    4    0    0  0.75860805608E+02 -0.22692313507E+02  0.25684876152E+03  0.29646011084E+03  0.12509000000E+03 0.  0.
         25    1    4    4    0    0  0.77848394969E+01 -0.32109090564E+02  0.32585500154E+03  0.35060032451E+03  0.12509000000E+03 0.  0.
<mgrwt>
<rscale>  2 0.45306777E+03</rscale>
<asrwt>0</asrwt>
<pdfrwt beam="1">  1       21 0.17322388E+00 0.45306777E+03</pdfrwt>
<pdfrwt beam="2">  1       21 0.64067939E-02 0.45306777E+03</pdfrwt>
<totfact> 0.31960438E+04</totfact>
</mgrwt>
</event>
<event>
 7    0  0.4709932E-002  0.4480305E+03  0.7546771E-02  0.1028311E+00
         21   -1    0    0  502  501  0.00000000000E+00  0.00000000000E+00  0.19034394356E+03  0.19034394356E+03  0.00000000000E+00 0. -1.
         21   -1    0    0  501  502 -0.00000000000E+00 -0.00000000000E+00 -0.26364296354E+03  0.26364296354E+03  0.00000000000E+00 0. -1.
      99926    2    1    2    0    0  0.00000000000E+00  0.17763568394E-14 -0.73299019977E+02  0.45398690709E+03  0.44803054079E+03 0.  0.
      99925    2    3    3    0    0  0.58482731967E+01 -0.94025105620E+01 -0.15377856752E+03  0.30483237254E+03  0.26296828329E+03 0.  0.
         25    1    3    3    0    0 -0.58482731967E+01  0.94025105620E+01  0.80479547548E+02  0.14915453455E+03  0.12509000000E+03 0.  0.
         25    1    4    4    0    0 -0.26161700296E+01 -0.33666218709E+01 -0.30345155549E+02  0.12878864489E+03  0.12509000000E+03 0.  0.
         25    1    4    4    0    0  0.84644432263E+01 -0.60358886911E+01 -0.12343341198E+03  0.17604372765E+03  0.12509000000E+03 0.  0.
<mgrwt>
<rscale>  2 0.44803054E+03</rscale>
<asrwt>0</asrwt>
<pdfrwt beam="1">  1       21 0.27991756E-01 0.44803054E+03</pdfrwt>
<pdfrwt beam="2">  1       21 0.38771024E-01 0.44803054E+03</pdfrwt>
<totfact> 0.72571222E+04</totfact>
</mgrwt>
</event>
<event>
 7    0  0.4709932E-002  0.4470853E+03  0.7546771E-02  0.1028595E+00
         21   -1    0    0  502  501  0.00000000000E+00  0.00000000000E+00  0.10028494411E+04  0.10028494411E+04  0.00000000000E+00 0.  1.
         21   -1    0    0  501  502 -0.00000000000E+00 -0.00000000000E+00 -0.49829336781E+02  0.49829336781E+02  0.00000000000E+00 0.  1.
      99926    2    1    2    0    0  0.00000000000E+00  0.00000000000E+00  0.95302010429E+03  0.10526787779E+04  0.44708532761E+03 0.  0.
      99925    2    3    3    0    0 -0.71280553899E+02  0.59120185960E+02  0.72371147690E+03  0.77553970005E+03  0.26292092119E+03 0.  0.
         25    1    4    4    0    0 -0.87068024412E+01  0.51826854114E+02  0.41310431340E+03  0.43481549313E+03  0.12509000000E+03 0.  0.
         25    1    4    4    0    0 -0.62573751458E+02  0.72933318460E+01  0.31060716351E+03  0.34072420692E+03  0.12509000000E+03 0.  0.
         25    1    3    3    0    0  0.71280553899E+02 -0.59120185960E+02  0.22930862739E+03  0.27713907780E+03  0.12509000000E+03 0.  0.
<mgrwt>
<rscale>  2 0.44708533E+03</rscale>
<asrwt>0</asrwt>
<pdfrwt beam="1">  1       21 0.14747785E+00 0.44708533E+03</pdfrwt>
<pdfrwt beam="2">  1       21 0.73278443E-02 0.44708533E+03</pdfrwt>
<totfact> 0.39567556E+04</totfact>
</mgrwt>
</event>
<event>
 7    0  0.4709932E-002  0.4556729E+03  0.7546771E-02  0.1026044E+00
         21   -1    0    0  502  501  0.00000000000E+00  0.00000000000E+00  0.66285178899E+03  0.66285178899E+03  0.00000000000E+00 0.  1.
         21   -1    0    0  501  502 -0.00000000000E+00 -0.00000000000E+00 -0.78312284262E+02  0.78312284262E+02  0.00000000000E+00 0.  1.
      99926    2    1    2    0    0  0.00000000000E+00  0.00000000000E+00  0.58453950473E+03  0.74116407325E+03  0.45567285512E+03 0.  0.
      99925    2    3    3    0    0  0.78623008246E+02  0.72620074056E+02  0.30461653300E+03  0.41641858709E+03  0.26297900090E+03 0.  0.
         25    1    4    4    0    0  0.49174123091E+02  0.61539184926E+02  0.20836802265E+03  0.25547975777E+03  0.12509000000E+03 0.  0.
         25    1    3    3    0    0 -0.78623008246E+02 -0.72620074056E+02  0.27992297172E+03  0.32474548616E+03  0.12509000000E+03 0.  0.
         25    1    4    4    0    0  0.29448885156E+02  0.11080889130E+02  0.96248510350E+02  0.16093882933E+03  0.12509000000E+03 0.  0.
<mgrwt>
<rscale>  2 0.45567286E+03</rscale>
<asrwt>0</asrwt>
<pdfrwt beam="1">  1       21 0.97478201E-01 0.45567286E+03</pdfrwt>
<pdfrwt beam="2">  1       21 0.11516513E-01 0.45567286E+03</pdfrwt>
<totfact> 0.50456923E+04</totfact>
</mgrwt>
</event>
<event>
 7    0  0.4709932E-002  0.4527995E+03  0.7546771E-02  0.1026890E+00
         21   -1    0    0  502  501  0.00000000000E+00  0.00000000000E+00  0.96118617838E+03  0.96118617838E+03  0.00000000000E+00 0. -1.
         21   -1    0    0  501  502 -0.00000000000E+00 -0.00000000000E+00 -0.53326665606E+02  0.53326665606E+02  0.00000000000E+00 0. -1.
      99926    2    1    2    0    0  0.00000000000E+00  0.00000000000E+00  0.90785951278E+03  0.10145128440E+04  0.45279953145E+03 0.  0.
      99925    2    3    3    0    0 -0.88062209859E+02  0.38893552754E+02  0.44833206231E+03  0.52863153433E+03  0.26302471316E+03 0.  0.
         25    1    3    3    0    0  0.88062209859E+02 -0.38893552754E+02  0.45952745046E+03  0.48588130966E+03  0.12509000000E+03 0.  0.
         25    1    4    4    0    0 -0.53148712152E+02  0.36929348037E+02  0.16492486946E+03  0.21687849828E+03  0.12509000000E+03 0.  0.
         25    1    4    4    0    0 -0.34913497707E+02  0.19642047174E+01  0.28340719285E+03  0.31175303604E+03  0.12509000000E+03 0.  0.
<mgrwt>
<rscale>  2 0.45279953E+03</rscale>
<asrwt>0</asrwt>
<pdfrwt beam="1">  1       21 0.14135090E+00 0.45279953E+03</pdfrwt>
<pdfrwt beam="2">  1       21 0.78421573E-02 0.45279953E+03</pdfrwt>
<totfact> 0.39277534E+04</totfact>
</mgrwt>
</event>
<event>
 7    0  0.4709932E-002  0.4607390E+03  0.7546771E-02  0.1024567E+00
         21   -1    0    0  502  501  0.00000000000E+00  0.00000000000E+00  0.24712251719E+02  0.24712251719E+02  0.00000000000E+00 0.  1.
         21   -1    0    0  501  502 -0.00000000000E+00 -0.00000000000E+00 -0.21475217388E+04  0.21475217388E+04  0.00000000000E+00 0.  1.
      99926    2    1    2    0    0  0.35527136788E-14  0.00000000000E+00 -0.21228094871E+04  0.21722339905E+04  0.46073896202E+03 0.  0.
      99925    2    3    3    0    0 -0.17156017668E+02  0.79972201883E+02 -0.92513630081E+03  0.96527150095E+03  0.26302473924E+03 0.  0.
         25    1    4    4    0    0  0.25617289533E+02  0.49521622858E+02 -0.53375526953E+03  0.55104521821E+03  0.12509000000E+03 0.  0.
         25    1    3    3    0    0  0.17156017668E+02 -0.79972201883E+02 -0.11976731863E+04  0.12069624896E+04  0.12509000000E+03 0.  0.
         25    1    4    4    0    0 -0.42773307201E+02  0.30450579025E+02 -0.39138103128E+03  0.41422628274E+03  0.12509000000E+03 0.  0.
<mgrwt>
<rscale>  2 0.46073896E+03</rscale>
<asrwt>0</asrwt>
<pdfrwt beam="1">  1       21 0.36341532E-02 0.46073896E+03</pdfrwt>
<pdfrwt beam="2">  1       21 0.31581215E+00 0.46073896E+03</pdfrwt>
<totfact> 0.10615115E+04</totfact>
</mgrwt>
</event>
<event>
 7    0  0.4709932E-002  0.4366507E+03  0.7546771E-02  0.1031779E+00
         21   -1    0    0  502  501  0.00000000000E+00  0.00000000000E+00  0.17539403819E+03  0.17539403819E+03  0.00000000000E+00 0.  1.
         21   -1    0    0  501  502 -0.00000000000E+00 -0.00000000000E+00 -0.27176495754E+03  0.27176495754E+03  0.00000000000E+00 0.  1.
      99926    2    1    2    0    0  0.35527136788E-14  0.00000000000E+00 -0.96370919352E+02  0.44715899574E+03  0.43665067660E+03 0.  0.
      99925    2    3    3    0    0 -0.29200588799E+02  0.25423897960E+02  0.26965914895E+02  0.26727422218E+03  0.26307660539E+03 0.  0.
         25    1    3    3    0    0  0.29200588799E+02 -0.25423897960E+02 -0.12333683425E+03  0.17988477355E+03  0.12509000000E+03 0.  0.
         25    1    4    4    0    0 -0.95706473781E+01  0.39124287038E+02 -0.17064717412E+02  0.13251799805E+03  0.12509000000E+03 0.  0.
         25    1    4    4    0    0 -0.19629941420E+02 -0.13700389078E+02  0.44030632307E+02  0.13475622413E+03  0.12509000000E+03 0.  0.
<mgrwt>
<rscale>  2 0.43665068E+03</rscale>
<asrwt>0</asrwt>
<pdfrwt beam="1">  1       21 0.25793241E-01 0.43665068E+03</pdfrwt>
<pdfrwt beam="2">  1       21 0.39965434E-01 0.43665068E+03</pdfrwt>
<totfact> 0.80228967E+04</totfact>
</mgrwt>
</event>
<event>
 7    0  0.4709932E-002  0.4585240E+03  0.7546771E-02  0.1025210E+00
         21   -1    0    0  502  501  0.00000000000E+00  0.00000000000E+00  0.64791493507E+02  0.64791493507E+02  0.00000000000E+00 0.  1.
         21   -1    0    0  501  502 -0.00000000000E+00 -0.00000000000E+00 -0.81123403923E+03  0.81123403923E+03  0.00000000000E+00 0.  1.
      99926    2    1    2    0    0  0.00000000000E+00 -0.14210854715E-13 -0.74644254572E+03  0.87602553274E+03  0.45852400149E+03 0.  0.
      99925    2    3    3    0    0 -0.42065325496E+02 -0.93637895517E+02 -0.36302199422E+03  0.45985684759E+03  0.26295589915E+03 0.  0.
         25    1    4    4    0    0  0.15860228187E+02 -0.59593540604E+02 -0.19745528100E+03  0.24174166587E+03  0.12509000000E+03 0.  0.
         25    1    4    4    0    0 -0.57925553683E+02 -0.34044354913E+02 -0.16556671322E+03  0.21811518172E+03  0.12509000000E+03 0.  0.
         25    1    3    3    0    0  0.42065325496E+02  0.93637895517E+02 -0.38342055150E+03  0.41616868515E+03  0.12509000000E+03 0.  0.
<mgrwt>
<rscale>  2 0.45852400E+03</rscale>
<asrwt>0</asrwt>
<pdfrwt beam="1">  1       21 0.95281605E-02 0.45852400E+03</pdfrwt>
<pdfrwt beam="2">  1       21 0.11929913E+00 0.45852400E+03</pdfrwt>
<totfact> 0.43084945E+04</totfact>
</mgrwt>
</event>
<event>
 7    0  0.4709932E-002  0.4566889E+03  0.7546771E-02  0.1025746E+00
         21   -1    0    0  502  501  0.00000000000E+00  0.00000000000E+00  0.10347816274E+04  0.10347816274E+04  0.00000000000E+00 0. -1.
         21   -1    0    0  501  502 -0.00000000000E+00 -0.00000000000E+00 -0.50388598304E+02  0.50388598304E+02  0.00000000000E+00 0. -1.
      99926    2    1    2    0    0  0.14210854715E-13 -0.71054273576E-14  0.98439302909E+03  0.10851702257E+04  0.45668893464E+03 0.  0.
      99925    2    3    3    0    0  0.86885567890E+02 -0.35379223216E+02  0.46174355145E+03  0.53963308130E+03  0.26305125695E+03 0.  0.
         25    1    3    3    0    0 -0.86885567890E+02  0.35379223216E+02  0.52264947764E+03  0.54553714440E+03  0.12509000000E+03 0.  0.
         25    1    4    4    0    0  0.60899473848E+02 -0.46980734407E+02  0.19975953574E+03  0.24792602836E+03  0.12509000000E+03 0.  0.
         25    1    4    4    0    0  0.25986094042E+02  0.11601511191E+02  0.26198401571E+03  0.29170705293E+03  0.12509000000E+03 0.  0.
<mgrwt>
<rscale>  2 0.45668893E+03</rscale>
<asrwt>0</asrwt>
<pdfrwt beam="1">  1       21 0.15217376E+00 0.45668893E+03</pdfrwt>
<pdfrwt beam="2">  1       21 0.74100886E-02 0.45668893E+03</pdfrwt>
<totfact> 0.35542053E+04</totfact>
</mgrwt>
</event>
<event>
 7    0  0.4709932E-002  0.4559008E+03  0.7546771E-02  0.1025977E+00
         21   -1    0    0  502  501  0.00000000000E+00  0.00000000000E+00  0.30123206727E+03  0.30123206727E+03  0.00000000000E+00 0. -1.
         21   -1    0    0  501  502 -0.00000000000E+00 -0.00000000000E+00 -0.17249618572E+03  0.17249618572E+03  0.00000000000E+00 0. -1.
      99926    2    1    2    0    0  0.00000000000E+00  0.00000000000E+00  0.12873588156E+03  0.47372825299E+03  0.45590079017E+03 0.  0.
      99925    2    3    3    0    0  0.75620604550E+02  0.54869492224E+02  0.12764567013E+02  0.27923920212E+03  0.26283542536E+03 0.  0.
         25    1    3    3    0    0 -0.75620604550E+02 -0.54869492224E+02  0.11597131454E+03  0.19448905086E+03  0.12509000000E+03 0.  0.
         25    1    4    4    0    0  0.32471462483E+02  0.35153079094E+02 -0.32835010003E+02  0.13789771872E+03  0.12509000000E+03 0.  0.
         25    1    4    4    0    0  0.43149142067E+02  0.19716413130E+02  0.45599577016E+02  0.14134148341E+03  0.12509000000E+03 0.  0.
<mgrwt>
<rscale>  2 0.45590079E+03</rscale>
<asrwt>0</asrwt>
<pdfrwt beam="1">  1       21 0.44298833E-01 0.45590079E+03</pdfrwt>
<pdfrwt beam="2">  1       21 0.25367086E-01 0.45590079E+03</pdfrwt>
<totfact> 0.66681679E+04</totfact>
</mgrwt>
</event>
<event>
 7    0  0.4709932E-002  0.4499834E+03  0.7546771E-02  0.1027727E+00
         21   -1    0    0  502  501  0.00000000000E+00  0.00000000000E+00  0.16047538448E+04  0.16047538448E+04  0.00000000000E+00 0. -1.
         21   -1    0    0  501  502 -0.00000000000E+00 -0.00000000000E+00 -0.31544566696E+02  0.31544566696E+02  0.00000000000E+00 0. -1.
      99926    2    1    2    0    0  0.00000000000E+00  0.00000000000E+00  0.15732092781E+04  0.16362984115E+04  0.44998339831E+03 0.  0.
      99925    2    3    3    0    0 -0.37189210557E+02 -0.63154878820E+02  0.70388810982E+03  0.75497078920E+03  0.26296548309E+03 0.  0.
         25    1    3    3    0    0  0.37189210557E+02  0.63154878820E+02  0.86932116830E+03  0.88132762232E+03  0.12509000000E+03 0.  0.
         25    1    4    4    0    0  0.14997482819E+02 -0.21480117034E+02  0.39328120535E+03  0.41352621985E+03  0.12509000000E+03 0.  0.
         25    1    4    4    0    0 -0.52186693377E+02 -0.41674761786E+02  0.31060690447E+03  0.34144456935E+03  0.12509000000E+03 0.  0.
<mgrwt>
<rscale>  2 0.44998340E+03</rscale>
<asrwt>0</asrwt>
<pdfrwt beam="1">  1       21 0.23599316E+00 0.44998340E+03</pdfrwt>
<pdfrwt beam="2">  1       21 0.46389079E-02 0.44998340E+03</pdfrwt>
<totfact> 0.21445056E+04</totfact>
</mgrwt>
</event>
<event>
 7    0  0.4709932E-002  0.4434699E+03  0.7546771E-02  0.1029687E+00
         21   -1    0    0  502  501  0.00000000000E+00  0.00000000000E+00  0.84383766126E+02  0.84383766126E+02  0.00000000000E+00 0.  1.
         21   -1    0    0  501  502 -0.00000000000E+00 -0.00000000000E+00 -0.58265208946E+03  0.58265208946E+03  0.00000000000E+00 0.  1.
      99926    2    1    2    0    0  0.00000000000E+00  0.00000000000E+00 -0.49826832333E+03  0.66703585559E+03  0.44346985309E+03 0.  0.
      99925    2    3    3    0    0 -0.44001600345E+01  0.89137065635E+02 -0.24423169071E+03  0.37014042501E+03  0.26341988840E+03 0.  0.
         25    1    4    4    0    0 -0.18954360014E+00  0.63024886912E+02 -0.17689792543E+03  0.22563810941E+03  0.12509000000E+03 0.  0.
         25    1    3    3    0    0  0.44001600345E+01 -0.89137065635E+02 -0.25403663263E+03  0.29689543057E+03  0.12509000000E+03 0.  0.
         25    1    4    4    0    0 -0.42106164344E+01  0.26112178723E+02 -0.67333765278E+02  0.14450231560E+03  0.12509000000E+03 0.  0.
<mgrwt>
<rscale>  2 0.44346985E+03</rscale>
<asrwt>0</asrwt>
<pdfrwt beam="1">  1       21 0.12409377E-01 0.44346985E+03</pdfrwt>
<pdfrwt beam="2">  1       21 0.85684133E-01 0.44346985E+03</pdfrwt>
<totfact> 0.59996904E+04</totfact>
</mgrwt>
</event>
<event>
 7    0  0.4709932E-002  0.4511097E+03  0.7546771E-02  0.1027392E+00
         21   -1    0    0  502  501  0.00000000000E+00  0.00000000000E+00  0.10724197485E+04  0.10724197485E+04  0.00000000000E+00 0. -1.
         21   -1    0    0  501  502 -0.00000000000E+00 -0.00000000000E+00 -0.47439447336E+02  0.47439447336E+02  0.00000000000E+00 0. -1.
      99926    2    1    2    0    0  0.00000000000E+00 -0.44408920985E-15  0.10249803012E+04  0.11198591959E+04  0.45110974356E+03 0.  0.
      99925    2    3    3    0    0 -0.10635653651E+03 -0.21787834813E+01  0.71096741495E+03  0.76550335665E+03  0.26306703324E+03 0.  0.
         25    1    4    4    0    0 -0.83624055378E+02  0.15777850169E+02  0.44812256586E+03  0.47297279554E+03  0.12509000000E+03 0.  0.
         25    1    4    4    0    0 -0.22732481132E+02 -0.17956633651E+02  0.26284484909E+03  0.29253056111E+03  0.12509000000E+03 0.  0.
         25    1    3    3    0    0  0.10635653651E+03  0.21787834813E+01  0.31401288626E+03  0.35435583923E+03  0.12509000000E+03 0.  0.
<mgrwt>
<rscale>  2 0.45110974E+03</rscale>
<asrwt>0</asrwt>
<pdfrwt beam="1">  1       21 0.15770877E+00 0.45110974E+03</pdfrwt>
<pdfrwt beam="2">  1       21 0.69763900E-02 0.45110974E+03</pdfrwt>
<totfact> 0.35880712E+04</totfact>
</mgrwt>
</event>
<event>
 7    0  0.4709932E-002  0.4516699E+03  0.7546771E-02  0.1027225E+00
         21   -1    0    0  502  501  0.00000000000E+00  0.00000000000E+00  0.17394640258E+03  0.17394640258E+03  0.00000000000E+00 0.  1.
         21   -1    0    0  501  502 -0.00000000000E+00 -0.00000000000E+00 -0.29320190640E+03  0.29320190640E+03  0.00000000000E+00 0.  1.
      99926    2    1    2    0    0 -0.35527136788E-14 -0.71054273576E-14 -0.11925550382E+03  0.46714830898E+03  0.45166986549E+03 0.  0.
      99925    2    3    3    0    0 -0.30817409380E+02 -0.34724911524E+02 -0.17835647043E+03  0.32121693964E+03  0.26308508047E+03 0.  0.
         25    1    3    3    0    0  0.30817409380E+02  0.34724911524E+02  0.59100966613E+02  0.14593136933E+03  0.12509000000E+03 0.  0.
         25    1    4    4    0    0 -0.32488770538E+02  0.11823210618E+02 -0.60655328604E+02  0.14325461776E+03  0.12509000000E+03 0.  0.
         25    1    4    4    0    0  0.16713611583E+01 -0.46548122143E+02 -0.11770114183E+03  0.17796232189E+03  0.12509000000E+03 0.  0.
<mgrwt>
<rscale>  2 0.45166987E+03</rscale>
<asrwt>0</asrwt>
<pdfrwt beam="1">  1       21 0.25580353E-01 0.45166987E+03</pdfrwt>
<pdfrwt beam="2">  1       21 0.43117927E-01 0.45166987E+03</pdfrwt>
<totfact> 0.69465460E+04</totfact>
</mgrwt>
</event>
<event>
 7    0  0.4709932E-002  0.4531802E+03  0.7546771E-02  0.1026778E+00
         21   -1    0    0  502  501  0.00000000000E+00  0.00000000000E+00  0.35399698661E+03  0.35399698661E+03  0.00000000000E+00 0.  1.
         21   -1    0    0  501  502 -0.00000000000E+00 -0.00000000000E+00 -0.14503817875E+03  0.14503817875E+03  0.00000000000E+00 0.  1.
      99926    2    1    2    0    0  0.00000000000E+00  0.00000000000E+00  0.20895880786E+03  0.49903516537E+03  0.45318022120E+03 0.  0.
      99925    2    3    3    0    0 -0.46678961846E+02  0.39965950505E+02  0.29286464572E+02  0.27164593580E+03  0.26297835415E+03 0.  0.
         25    1    3    3    0    0  0.46678961846E+02 -0.39965950505E+02  0.17967234329E+03  0.22738922956E+03  0.12509000000E+03 0.  0.
         25    1    4    4    0    0 -0.57123706487E+02  0.31670854632E+02  0.36107686216E+02  0.14566205401E+03  0.12509000000E+03 0.  0.
         25    1    4    4    0    0  0.10444744641E+02  0.82950958728E+01 -0.68212216436E+01  0.12598388179E+03  0.12509000000E+03 0.  0.
<mgrwt>
<rscale>  2 0.45318022E+03</rscale>
<asrwt>0</asrwt>
<pdfrwt beam="1">  1       21 0.52058380E-01 0.45318022E+03</pdfrwt>
<pdfrwt beam="2">  1       21 0.21329144E-01 0.45318022E+03</pdfrwt>
<totfact> 0.66290938E+04</totfact>
</mgrwt>
</event>
<event>
 7    0  0.4709932E-002  0.4559918E+03  0.7546771E-02  0.1025950E+00
         21   -1    0    0  502  501  0.00000000000E+00  0.00000000000E+00  0.17841437162E+03  0.17841437162E+03  0.00000000000E+00 0.  1.
         21   -1    0    0  501  502 -0.00000000000E+00 -0.00000000000E+00 -0.29135617836E+03  0.29135617836E+03  0.00000000000E+00 0.  1.
      99926    2    1    2    0    0 -0.31086244690E-14  0.00000000000E+00 -0.11294180675E+03  0.46977054998E+03  0.45599179589E+03 0.  0.
      99925    2    3    3    0    0 -0.25214516387E+01 -0.65861567571E+02 -0.16657387494E+03  0.31854882324E+03  0.26340537803E+03 0.  0.
         25    1    4    4    0    0 -0.34027418733E+02 -0.56379538393E+02 -0.74630862287E+02  0.15985553253E+03  0.12509000000E+03 0.  0.
         25    1    3    3    0    0  0.25214516387E+01  0.65861567571E+02  0.53632068190E+02  0.15122172674E+03  0.12509000000E+03 0.  0.
         25    1    4    4    0    0  0.31505967094E+02 -0.94820291777E+01 -0.91943012651E+02  0.15869329071E+03  0.12509000000E+03 0.  0.
<mgrwt>
<rscale>  2 0.45599180E+03</rscale>
<asrwt>0</asrwt>
<pdfrwt beam="1">  1       21 0.26237408E-01 0.45599180E+03</pdfrwt>
<pdfrwt beam="2">  1       21 0.42846497E-01 0.45599180E+03</pdfrwt>
<totfact> 0.66924735E+04</totfact>
</mgrwt>
</event>
<event>
 7    0  0.4709932E-002  0.4612570E+03  0.7546771E-02  0.1024417E+00
         21   -1    0    0  502  501  0.00000000000E+00  0.00000000000E+00  0.55757113363E+02  0.55757113363E+02  0.00000000000E+00 0.  1.
         21   -1    0    0  501  502 -0.00000000000E+00 -0.00000000000E+00 -0.95394993896E+03  0.95394993896E+03  0.00000000000E+00 0.  1.
      99926    2    1    2    0    0  0.00000000000E+00  0.71054273576E-14 -0.89819282560E+03  0.10097070523E+04  0.46125695611E+03 0.  0.
      99925    2    3    3    0    0 -0.73476780309E+02  0.51108432826E+02 -0.39006150919E+03  0.47880607100E+03  0.26286187158E+03 0.  0.
         25    1    4    4    0    0 -0.63780364733E+02  0.56697766812E+02 -0.22962647621E+03  0.27506071759E+03  0.12509000000E+03 0.  0.
         25    1    4    4    0    0 -0.96964155763E+01 -0.55893339857E+01 -0.16043503298E+03  0.20374535341E+03  0.12509000000E+03 0.  0.
         25    1    3    3    0    0  0.73476780309E+02 -0.51108432826E+02 -0.50813131641E+03  0.53090098132E+03  0.12509000000E+03 0.  0.
<mgrwt>
<rscale>  2 0.46125696E+03</rscale>
<asrwt>0</asrwt>
<pdfrwt beam="1">  1       21 0.81995760E-02 0.46125696E+03</pdfrwt>
<pdfrwt beam="2">  1       21 0.14028675E+00 0.46125696E+03</pdfrwt>
<totfact> 0.36952553E+04</totfact>
</mgrwt>
</event>
<event>
 7    0  0.4709932E-002  0.4535595E+03  0.7546771E-02  0.1026666E+00
         21   -1    0    0  502  501  0.00000000000E+00  0.00000000000E+00  0.24799019601E+03  0.24799019601E+03  0.00000000000E+00 0. -1.
         21   -1    0    0  501  502 -0.00000000000E+00 -0.00000000000E+00 -0.20738342830E+03  0.20738342830E+03  0.00000000000E+00 0. -1.
      99926    2    1    2    0    0  0.00000000000E+00  0.14210854715E-13  0.40606767709E+02  0.45537362430E+03  0.45355950892E+03 0.  0.
      99925    2    3    3    0    0 -0.25095024195E+02  0.10812083986E+03  0.40087822629E+02  0.28813830012E+03  0.26286264516E+03 0.  0.
         25    1    3    3    0    0  0.25095024195E+02 -0.10812083986E+03  0.51894508026E+00  0.16723532419E+03  0.12509000000E+03 0.  0.
         25    1    4    4    0    0 -0.33836120904E+02  0.91767999781E+02  0.18703736453E+02  0.15988616800E+03  0.12509000000E+03 0.  0.
         25    1    4    4    0    0  0.87410967092E+01  0.16352840080E+02  0.21384086176E+02  0.12825213211E+03  0.12509000000E+03 0.  0.
<mgrwt>
<rscale>  2 0.45355951E+03</rscale>
<asrwt>0</asrwt>
<pdfrwt beam="1">  1       21 0.36469146E-01 0.45355951E+03</pdfrwt>
<pdfrwt beam="2">  1       21 0.30497563E-01 0.45355951E+03</pdfrwt>
<totfact> 0.69311639E+04</totfact>
</mgrwt>
</event>
<event>
 7    0  0.4709932E-002  0.4544341E+03  0.7546771E-02  0.1026408E+00
         21   -1    0    0  502  501  0.00000000000E+00  0.00000000000E+00  0.35173167285E+03  0.35173167285E+03  0.00000000000E+00 0. -1.
         21   -1    0    0  501  502 -0.00000000000E+00 -0.00000000000E+00 -0.14678120242E+03  0.14678120242E+03  0.00000000000E+00 0. -1.
      99926    2    1    2    0    0  0.35527136788E-14 -0.17763568394E-14  0.20495047043E+03  0.49851287527E+03  0.45443414427E+03 0.  0.
      99925    2    3    3    0    0 -0.18589284373E+02 -0.16938606011E+01  0.25077300665E+03  0.36399282627E+03  0.26316391481E+03 0.  0.
         25    1    3    3    0    0  0.18589284373E+02  0.16938606011E+01 -0.45822536216E+02  0.13452004900E+03  0.12509000000E+03 0.  0.
         25    1    4    4    0    0 -0.39275293171E+02  0.24646060697E+02  0.11203931838E+03  0.17421335748E+03  0.12509000000E+03 0.  0.
         25    1    4    4    0    0  0.20686008798E+02 -0.26339921298E+02  0.13873368826E+03  0.18977946879E+03  0.12509000000E+03 0.  0.
<mgrwt>
<rscale>  2 0.45443414E+03</rscale>
<asrwt>0</asrwt>
<pdfrwt beam="1">  1       21 0.51725246E-01 0.45443414E+03</pdfrwt>
<pdfrwt beam="2">  1       21 0.21585471E-01 0.45443414E+03</pdfrwt>
<totfact> 0.65669746E+04</totfact>
</mgrwt>
</event>
<event>
 7    0  0.4709932E-002  0.4530651E+03  0.7546771E-02  0.1026812E+00
         21   -1    0    0  502  501  0.00000000000E+00  0.00000000000E+00  0.62493948404E+03  0.62493948404E+03  0.00000000000E+00 0. -1.
         21   -1    0    0  501  502 -0.00000000000E+00 -0.00000000000E+00 -0.82115147819E+02  0.82115147819E+02  0.00000000000E+00 0. -1.
      99926    2    1    2    0    0  0.00000000000E+00  0.71054273576E-14  0.54282433622E+03  0.70705463186E+03  0.45306510839E+03 0.  0.
      99925    2    3    3    0    0  0.10063214319E+03  0.39646366472E+02  0.30275194350E+03  0.41553975322E+03  0.26327910019E+03 0.  0.
         25    1    4    4    0    0  0.11775465074E+02  0.30348879832E+02  0.11614923855E+03  0.17377534290E+03  0.12509000000E+03 0.  0.
         25    1    3    3    0    0 -0.10063214319E+03 -0.39646366472E+02  0.24007239272E+03  0.29151487863E+03  0.12509000000E+03 0.  0.
         25    1    4    4    0    0  0.88856678119E+02  0.92974866400E+01  0.18660270495E+03  0.24176441032E+03  0.12509000000E+03 0.  0.
<mgrwt>
<rscale>  2 0.45306511E+03</rscale>
<asrwt>0</asrwt>
<pdfrwt beam="1">  1       21 0.91902863E-01 0.45306511E+03</pdfrwt>
<pdfrwt beam="2">  1       21 0.12075757E-01 0.45306511E+03</pdfrwt>
<totfact> 0.53328877E+04</totfact>
</mgrwt>
</event>
<event>
 7    0  0.4709932E-002  0.4426225E+03  0.7546771E-02  0.1029945E+00
         21   -1    0    0  502  501  0.00000000000E+00  0.00000000000E+00  0.13937433369E+04  0.13937433369E+04  0.00000000000E+00 0. -1.
         21   -1    0    0  501  502 -0.00000000000E+00 -0.00000000000E+00 -0.35141821294E+02  0.35141821294E+02  0.00000000000E+00 0. -1.
      99926    2    1    2    0    0  0.00000000000E+00  0.00000000000E+00  0.13586015156E+04  0.14288851582E+04  0.44262254473E+03 0.  0.
      99925    2    3    3    0    0 -0.24197896360E+02  0.17191157131E+02  0.11768822819E+04  0.12062858274E+04  0.26304470700E+03 0.  0.
         25    1    4    4    0    0 -0.29037385989E+02  0.43303329091E+02  0.54531519164E+03  0.56190258446E+03  0.12509000000E+03 0.  0.
         25    1    3    3    0    0  0.24197896360E+02 -0.17191157131E+02  0.18171923375E+03  0.22259933083E+03  0.12509000000E+03 0.  0.
         25    1    4    4    0    0  0.48394896289E+01 -0.26112171960E+02  0.63156709025E+03  0.64438324293E+03  0.12509000000E+03 0.  0.
<mgrwt>
<rscale>  2 0.44262254E+03</rscale>
<asrwt>0</asrwt>
<pdfrwt beam="1">  1       21 0.20496222E+00 0.44262254E+03</pdfrwt>
<pdfrwt beam="2">  1       21 0.51679158E-02 0.44262254E+03</pdfrwt>
<totfact> 0.28187449E+04</totfact>
</mgrwt>
</event>
<event>
 6    0  0.4709932E-002  0.4550785E+03  0.7546771E-02  0.1026218E+00
         21   -1    0    0  502  501  0.00000000000E+00  0.00000000000E+00  0.26683165728E+02  0.26683165728E+02  0.00000000000E+00 0. -1.
         21   -1    0    0  501  502 -0.00000000000E+00 -0.00000000000E+00 -0.19403284214E+04  0.19403284214E+04  0.00000000000E+00 0. -1.
      99926    2    1    2    0    0  0.00000000000E+00  0.00000000000E+00 -0.19136452557E+04  0.19670115871E+04  0.45507847602E+03 0.  0.
         25    1    3    3    0    0 -0.35213385667E+02  0.85719884852E+02 -0.41839753277E+03  0.44642119653E+03  0.12509000000E+03 0.  0.
         25    1    3    3    0    0  0.16955679352E+02 -0.13251252596E+02 -0.82313695206E+03  0.83286555980E+03  0.12509000000E+03 0.  0.
         25    1    3    3    0    0  0.18257706314E+02 -0.72468632257E+02 -0.67211077084E+03  0.68772483079E+03  0.12509000000E+03 0.  0.
<mgrwt>
<rscale>  2 0.45507848E+03</rscale>
<asrwt>0</asrwt>
<pdfrwt beam="1">  1       21 0.39239952E-02 0.45507848E+03</pdfrwt>
<pdfrwt beam="2">  1       21 0.28534239E+00 0.45507848E+03</pdfrwt>
<totfact> 0.14247334E+04</totfact>
</mgrwt>
</event>
<event>
 7    0  0.4709932E-002  0.4550482E+03  0.7546771E-02  0.1026227E+00
         21   -1    0    0  502  501  0.00000000000E+00  0.00000000000E+00  0.72323321206E+02  0.72323321206E+02  0.00000000000E+00 0. -1.
         21   -1    0    0  501  502 -0.00000000000E+00 -0.00000000000E+00 -0.71577493314E+03  0.71577493314E+03  0.00000000000E+00 0. -1.
      99926    2    1    2    0    0  0.00000000000E+00  0.14210854715E-13 -0.64345161193E+03  0.78809825435E+03  0.45504821899E+03 0.  0.
      99925    2    3    3    0    0 -0.20468350331E+02  0.10912329238E+03 -0.44338444378E+03  0.52732780706E+03  0.26297909576E+03 0.  0.
         25    1    4    4    0    0  0.20188921334E+02  0.33336317395E+02 -0.17007531490E+03  0.21469052946E+03  0.12509000000E+03 0.  0.
         25    1    3    3    0    0  0.20468350331E+02 -0.10912329238E+03 -0.20006716816E+03  0.26077044729E+03  0.12509000000E+03 0.  0.
         25    1    4    4    0    0 -0.40657271665E+02  0.75786974981E+02 -0.27330912887E+03  0.31263727759E+03  0.12509000000E+03 0.  0.
<mgrwt>
<rscale>  2 0.45504822E+03</rscale>
<asrwt>0</asrwt>
<pdfrwt beam="1">  1       21 0.10635782E-01 0.45504822E+03</pdfrwt>
<pdfrwt beam="2">  1       21 0.10526102E+00 0.45504822E+03</pdfrwt>
<totfact> 0.48327604E+04</totfact>
</mgrwt>
</event>
<event>
 7    0  0.4709932E-002  0.4533903E+03  0.7546771E-02  0.1026716E+00
         21   -1    0    0  502  501  0.00000000000E+00  0.00000000000E+00  0.63040370080E+03  0.63040370080E+03  0.00000000000E+00 0.  1.
         21   -1    0    0  501  502 -0.00000000000E+00 -0.00000000000E+00 -0.81520274371E+02  0.81520274371E+02  0.00000000000E+00 0.  1.
      99926    2    1    2    0    0  0.00000000000E+00  0.00000000000E+00  0.54888342643E+03  0.71192397518E+03  0.45339026304E+03 0.  0.
      99925    2    3    3    0    0 -0.65101351605E+02  0.83575818574E+02  0.40117502192E+03  0.49126952973E+03  0.26302328642E+03 0.  0.
         25    1    4    4    0    0 -0.19110402931E+02  0.52447954467E+01  0.21215763624E+03  0.24708517984E+03  0.12509000000E+03 0.  0.
         25    1    4    4    0    0 -0.45990948675E+02  0.78331023127E+02  0.18901738568E+03  0.24418434989E+03  0.12509000000E+03 0.  0.
         25    1    3    3    0    0  0.65101351605E+02 -0.83575818574E+02  0.14770840451E+03  0.22065444545E+03  0.12509000000E+03 0.  0.
<mgrwt>
<rscale>  2 0.45339026E+03</rscale>
<asrwt>0</asrwt>
<pdfrwt beam="1">  1       21 0.92706424E-01 0.45339026E+03</pdfrwt>
<pdfrwt beam="2">  1       21 0.11988276E-01 0.45339026E+03</pdfrwt>
<totfact> 0.52927463E+04</totfact>
</mgrwt>
</event>
<event>
 7    0  0.4709932E-002  0.4507917E+03  0.7546771E-02  0.1027486E+00
         21   -1    0    0  502  501  0.00000000000E+00  0.00000000000E+00  0.13966651356E+04  0.13966651356E+04  0.00000000000E+00 0. -1.
         21   -1    0    0  501  502 -0.00000000000E+00 -0.00000000000E+00 -0.36374705055E+02  0.36374705055E+02  0.00000000000E+00 0. -1.
      99926    2    1    2    0    0  0.35527136788E-14  0.00000000000E+00  0.13602904305E+04  0.14330398406E+04  0.45079166970E+03 0.  0.
      99925    2    3    3    0    0 -0.30378794433E+02 -0.59875876389E+02  0.11327425599E+04  0.11648355654E+04  0.26311251526E+03 0.  0.
         25    1    3    3    0    0  0.30378794433E+02  0.59875876389E+02  0.22754787057E+03  0.26820427518E+03  0.12509000000E+03 0.  0.
         25    1    4    4    0    0 -0.45539572088E+02 -0.12104654907E+02  0.47614952533E+03  0.49455662352E+03  0.12509000000E+03 0.  0.
         25    1    4    4    0    0  0.15160777654E+02 -0.47771221482E+02  0.65659303461E+03  0.67027894192E+03  0.12509000000E+03 0.  0.
<mgrwt>
<rscale>  2 0.45079167E+03</rscale>
<asrwt>0</asrwt>
<pdfrwt beam="1">  1       21 0.20539190E+00 0.45079167E+03</pdfrwt>
<pdfrwt beam="2">  1       21 0.53492223E-02 0.45079167E+03</pdfrwt>
<totfact> 0.26314738E+04</totfact>
</mgrwt>
</event>
<event>
 7    0  0.4709932E-002  0.4434699E+03  0.7546771E-02  0.1029687E+00
         21   -1    0    0  502  501  0.00000000000E+00  0.00000000000E+00  0.74286594726E+02  0.74286594726E+02  0.00000000000E+00 0.  1.
         21   -1    0    0  501  502 -0.00000000000E+00 -0.00000000000E+00 -0.66184734580E+03  0.66184734580E+03  0.00000000000E+00 0.  1.
      99926    2    1    2    0    0  0.00000000000E+00  0.00000000000E+00 -0.58756075107E+03  0.73613394052E+03  0.44346988871E+03 0.  0.
      99925    2    3    3    0    0 -0.78635906293E+02 -0.63405260344E+02 -0.34866200344E+03  0.44816874728E+03  0.26284253956E+03 0.  0.
         25    1    4    4    0    0 -0.14084146103E+02  0.23377559912E+01 -0.14543951670E+03  0.19236421027E+03  0.12509000000E+03 0.  0.
         25    1    4    4    0    0 -0.64551760191E+02 -0.65743016336E+02 -0.20322248674E+03  0.25580453701E+03  0.12509000000E+03 0.  0.
         25    1    3    3    0    0  0.78635906293E+02  0.63405260344E+02 -0.23889874763E+03  0.28796519324E+03  0.12509000000E+03 0.  0.
<mgrwt>
<rscale>  2 0.44346989E+03</rscale>
<asrwt>0</asrwt>
<pdfrwt beam="1">  1       21 0.10924499E-01 0.44346989E+03</pdfrwt>
<pdfrwt beam="2">  1       21 0.97330496E-01 0.44346989E+03</pdfrwt>
<totfact> 0.55880652E+04</totfact>
</mgrwt>
</event>
<event>
 7    0  0.4709932E-002  0.4622400E+03  0.7546771E-02  0.1024134E+00
         21   -1    0    0  502  501  0.00000000000E+00  0.00000000000E+00  0.73792953655E+03  0.73792953655E+03  0.00000000000E+00 0.  1.
         21   -1    0    0  501  502 -0.00000000000E+00 -0.00000000000E+00 -0.72386923660E+02  0.72386923660E+02  0.00000000000E+00 0.  1.
      99926    2    1    2    0    0  0.14210854715E-13  0.00000000000E+00  0.66554261289E+03  0.81031646021E+03  0.46223997676E+03 0.  0.
      99925    2    3    3    0    0 -0.68438799075E+02  0.59986386518E+02  0.55301065899E+03  0.61902300885E+03  0.26284303442E+03 0.  0.
         25    1    3    3    0    0  0.68438799075E+02 -0.59986386518E+02  0.11253195390E+03  0.19129345137E+03  0.12509000000E+03 0.  0.
         25    1    4    4    0    0 -0.66616537587E+02  0.49284881166E+02  0.34223274030E+03  0.37368103942E+03  0.12509000000E+03 0.  0.
         25    1    4    4    0    0 -0.18222614883E+01  0.10701505352E+02  0.21077791869E+03  0.24534196942E+03  0.12509000000E+03 0.  0.
<mgrwt>
<rscale>  2 0.46223998E+03</rscale>
<asrwt>0</asrwt>
<pdfrwt beam="1">  1       21 0.10851905E+00 0.46223998E+03</pdfrwt>
<pdfrwt beam="2">  1       21 0.10645136E-01 0.46223998E+03</pdfrwt>
<totfact> 0.44677004E+04</totfact>
</mgrwt>
</event>
<event>
 7    0  0.4709932E-002  0.4529929E+03  0.7546771E-02  0.1026833E+00
         21   -1    0    0  502  501  0.00000000000E+00  0.00000000000E+00  0.28331303454E+03  0.28331303454E+03  0.00000000000E+00 0. -1.
         21   -1    0    0  501  502 -0.00000000000E+00 -0.00000000000E+00 -0.18107402371E+03  0.18107402371E+03  0.00000000000E+00 0. -1.
      99926    2    1    2    0    0  0.00000000000E+00  0.00000000000E+00  0.10223901083E+03  0.46438705825E+03  0.45299285263E+03 0.  0.
      99925    2    3    3    0    0 -0.77120421769E+02 -0.60675007495E+02  0.11821465105E+03  0.30460049696E+03  0.26301662122E+03 0.  0.
         25    1    4    4    0    0 -0.15099416617E+02 -0.53607706681E+02  0.84119736977E+02  0.16070288375E+03  0.12509000000E+03 0.  0.
         25    1    4    4    0    0 -0.62021005152E+02 -0.70673008132E+01  0.34094914073E+02  0.14389761321E+03  0.12509000000E+03 0.  0.
         25    1    3    3    0    0  0.77120421769E+02  0.60675007495E+02 -0.15975640216E+02  0.15978656129E+03  0.12509000000E+03 0.  0.
<mgrwt>
<rscale>  2 0.45299285E+03</rscale>
<asrwt>0</asrwt>
<pdfrwt beam="1">  1       21 0.41663681E-01 0.45299285E+03</pdfrwt>
<pdfrwt beam="2">  1       21 0.26628533E-01 0.45299285E+03</pdfrwt>
<totfact> 0.68947014E+04</totfact>
</mgrwt>
</event>
<event>
 7    0  0.4709932E-002  0.4628366E+03  0.7546771E-02  0.1023962E+00
         21   -1    0    0  502  501  0.00000000000E+00  0.00000000000E+00  0.62563108956E+03  0.62563108956E+03  0.00000000000E+00 0.  1.
         21   -1    0    0  501  502 -0.00000000000E+00 -0.00000000000E+00 -0.85600635492E+02  0.85600635492E+02  0.00000000000E+00 0.  1.
      99926    2    1    2    0    0  0.00000000000E+00  0.14210854715E-13  0.54003045406E+03  0.71123172505E+03  0.46283655365E+03 0.  0.
      99925    2    3    3    0    0  0.10000091666E+03 -0.66950793519E+02  0.34345003171E+03  0.44898382203E+03  0.26295618661E+03 0.  0.
         25    1    4    4    0    0  0.45736004806E+02 -0.29427354862E+02  0.23116186830E+03  0.26840467359E+03  0.12509000000E+03 0.  0.
         25    1    4    4    0    0  0.54264911857E+02 -0.37523438657E+02  0.11228816341E+03  0.18057914843E+03  0.12509000000E+03 0.  0.
         25    1    3    3    0    0 -0.10000091666E+03  0.66950793519E+02  0.19658042235E+03  0.26224790302E+03  0.12509000000E+03 0.  0.
<mgrwt>
<rscale>  2 0.46283655E+03</rscale>
<asrwt>0</asrwt>
<pdfrwt beam="1">  1       21 0.92004569E-01 0.46283655E+03</pdfrwt>
<pdfrwt beam="2">  1       21 0.12588329E-01 0.46283655E+03</pdfrwt>
<totfact> 0.49193494E+04</totfact>
</mgrwt>
</event>
<event>
 7    0  0.4709932E-002  0.4533432E+03  0.7546771E-02  0.1026730E+00
         21   -1    0    0  502  501  0.00000000000E+00  0.00000000000E+00  0.98998263638E+02  0.98998263638E+02  0.00000000000E+00 0. -1.
         21   -1    0    0  501  502 -0.00000000000E+00 -0.00000000000E+00 -0.51899916215E+03  0.51899916215E+03  0.00000000000E+00 0. -1.
      99926    2    1    2    0    0  0.00000000000E+00  0.00000000000E+00 -0.42000089851E+03  0.61799742578E+03  0.45334320721E+03 0.  0.
      99925    2    3    3    0    0 -0.17493581718E+02  0.83721688321E+01 -0.11465880870E+03  0.28745632619E+03  0.26288472463E+03 0.  0.
         25    1    4    4    0    0 -0.43784005565E+02 -0.15622325066E+02 -0.54214150121E+02  0.14404089127E+03  0.12509000000E+03 0.  0.
         25    1    3    3    0    0  0.17493581718E+02 -0.83721688321E+01 -0.30534208981E+03  0.33054109959E+03  0.12509000000E+03 0.  0.
         25    1    4    4    0    0  0.26290423847E+02  0.23994493898E+02 -0.60444658581E+02  0.14341543492E+03  0.12509000000E+03 0.  0.
<mgrwt>
<rscale>  2 0.45334321E+03</rscale>
<asrwt>0</asrwt>
<pdfrwt beam="1">  1       21 0.14558568E-01 0.45334321E+03</pdfrwt>
<pdfrwt beam="2">  1       21 0.76323409E-01 0.45334321E+03</pdfrwt>
<totfact> 0.58343537E+04</totfact>
</mgrwt>
</event>
<event>
 7    0  0.4709932E-002  0.4535917E+03  0.7546771E-02  0.1026656E+00
         21   -1    0    0  502  501  0.00000000000E+00  0.00000000000E+00  0.67669899918E+02  0.67669899918E+02  0.00000000000E+00 0.  1.
         21   -1    0    0  501  502 -0.00000000000E+00 -0.00000000000E+00 -0.76010688085E+03  0.76010688085E+03  0.00000000000E+00 0.  1.
      99926    2    1    2    0    0  0.00000000000E+00  0.00000000000E+00 -0.69243698093E+03  0.82777678076E+03  0.45359169549E+03 0.  0.
      99925    2    3    3    0    0  0.44787480635E+01 -0.66054275566E+02 -0.27193562597E+03  0.38409657597E+03  0.26305506742E+03 0.  0.
         25    1    3    3    0    0 -0.44787480635E+01  0.66054275566E+02 -0.42050135496E+03  0.44368020480E+03  0.12509000000E+03 0.  0.
         25    1    4    4    0    0 -0.14226357992E+02 -0.60672562206E+02 -0.10611298256E+03  0.17547370810E+03  0.12509000000E+03 0.  0.
         25    1    4    4    0    0  0.18705106055E+02 -0.53817133608E+01 -0.16582264340E+03  0.20862286787E+03  0.12509000000E+03 0.  0.
<mgrwt>
<rscale>  2 0.45359170E+03</rscale>
<asrwt>0</asrwt>
<pdfrwt beam="1">  1       21 0.99514570E-02 0.45359170E+03</pdfrwt>
<pdfrwt beam="2">  1       21 0.11178041E+00 0.45359170E+03</pdfrwt>
<totfact> 0.46967285E+04</totfact>
</mgrwt>
</event>
<event>
 7    0  0.4709932E-002  0.4572502E+03  0.7546771E-02  0.1025582E+00
         21   -1    0    0  502  501  0.00000000000E+00  0.00000000000E+00  0.22190298568E+03  0.22190298568E+03  0.00000000000E+00 0.  1.
         21   -1    0    0  501  502 -0.00000000000E+00 -0.00000000000E+00 -0.23555089368E+03  0.23555089368E+03  0.00000000000E+00 0.  1.
      99926    2    1    2    0    0  0.00000000000E+00  0.00000000000E+00 -0.13647907991E+02  0.45745387936E+03  0.45725024478E+03 0.  0.
      99925    2    3    3    0    0  0.93885726770E+02 -0.65818423010E+02  0.34805732757E+01  0.28690333709E+03  0.26297303273E+03 0.  0.
         25    1    3    3    0    0 -0.93885726770E+02  0.65818423010E+02 -0.17128481267E+02  0.17055054227E+03  0.12509000000E+03 0.  0.
         25    1    4    4    0    0  0.39462351558E+02 -0.84625376900E+01  0.34087337982E+02  0.13578787297E+03  0.12509000000E+03 0.  0.
         25    1    4    4    0    0  0.54423375212E+02 -0.57355885320E+02 -0.30606764706E+02  0.15111546412E+03  0.12509000000E+03 0.  0.
<mgrwt>
<rscale>  2 0.45725024E+03</rscale>
<asrwt>0</asrwt>
<pdfrwt beam="1">  1       21 0.32632792E-01 0.45725024E+03</pdfrwt>
<pdfrwt beam="2">  1       21 0.34639837E-01 0.45725024E+03</pdfrwt>
<totfact> 0.67152589E+04</totfact>
</mgrwt>
</event>
<event>
 7    0  0.4709932E-002  0.4508572E+03  0.7546771E-02  0.1027467E+00
         21   -1    0    0  502  501  0.00000000000E+00  0.00000000000E+00  0.47523217419E+03  0.47523217419E+03  0.00000000000E+00 0. -1.
         21   -1    0    0  501  502 -0.00000000000E+00 -0.00000000000E+00 -0.10693312497E+03  0.10693312497E+03  0.00000000000E+00 0. -1.
      99926    2    1    2    0    0  0.00000000000E+00  0.00000000000E+00  0.36829904922E+03  0.58216529917E+03  0.45085723450E+03 0.  0.
      99925    2    3    3    0    0 -0.82109280905E+02 -0.71055585856E+02  0.21883990377E+03  0.35905910349E+03  0.26313818807E+03 0.  0.
         25    1    4    4    0    0 -0.73857065929E+02 -0.11219900066E+02  0.11549865446E+03  0.18592525280E+03  0.12509000000E+03 0.  0.
         25    1    3    3    0    0  0.82109280905E+02  0.71055585856E+02  0.14945914545E+03  0.22310619568E+03  0.12509000000E+03 0.  0.
         25    1    4    4    0    0 -0.82522149761E+01 -0.59835685790E+02  0.10334124931E+03  0.17313385069E+03  0.12509000000E+03 0.  0.
<mgrwt>
<rscale>  2 0.45085723E+03</rscale>
<asrwt>0</asrwt>
<pdfrwt beam="1">  1       21 0.69887084E-01 0.45085723E+03</pdfrwt>
<pdfrwt beam="2">  1       21 0.15725460E-01 0.45085723E+03</pdfrwt>
<totfact> 0.61788480E+04</totfact>
</mgrwt>
</event>
<event>
 7    0  0.4709932E-002  0.5024903E+03  0.7546771E-02  0.1013131E+00
         21   -1    0    0  502  501  0.00000000000E+00  0.00000000000E+00  0.49619798333E+03  0.49619798333E+03  0.00000000000E+00 0. -1.
         21   -1    0    0  501  502 -0.00000000000E+00 -0.00000000000E+00 -0.12721560390E+03  0.12721560390E+03  0.00000000000E+00 0. -1.
      99926    2    1    2    0    0  0.00000000000E+00  0.00000000000E+00  0.36898237943E+03  0.62341358723E+03  0.50249030281E+03 0.  0.
      99925    2    3    3    0    0  0.12505306799E+03  0.87961284088E+02  0.20714107681E+03  0.36804018876E+03  0.26300322723E+03 0.  0.
         25    1    4    4    0    0  0.57866577196E+02  0.29135847831E+02  0.53408824578E+02  0.15065672580E+03  0.12509000000E+03 0.  0.
         25    1    3    3    0    0 -0.12505306799E+03 -0.87961284088E+02  0.16184130262E+03  0.25537339847E+03  0.12509000000E+03 0.  0.
         25    1    4    4    0    0  0.67186490790E+02  0.58825436256E+02  0.15373225223E+03  0.21738346296E+03  0.12509000000E+03 0.  0.
<mgrwt>
<rscale>  2 0.50249030E+03</rscale>
<asrwt>0</asrwt>
<pdfrwt beam="1">  1       21 0.72970291E-01 0.50249030E+03</pdfrwt>
<pdfrwt beam="2">  1       21 0.18708177E-01 0.50249030E+03</pdfrwt>
<totfact> 0.40006853E+04</totfact>
</mgrwt>
</event>
<event>
 7    0  0.4709932E-002  0.4399947E+03  0.7546771E-02  0.1030748E+00
         21   -1    0    0  502  501  0.00000000000E+00  0.00000000000E+00  0.23811938413E+03  0.23811938413E+03  0.00000000000E+00 0.  1.
         21   -1    0    0  501  502 -0.00000000000E+00 -0.00000000000E+00 -0.20325452909E+03  0.20325452909E+03  0.00000000000E+00 0.  1.
      99926    2    1    2    0    0  0.00000000000E+00 -0.71054273576E-14  0.34864855043E+02  0.44137391322E+03  0.43999474219E+03 0.  0.
      99925    2    3    3    0    0  0.80576347730E+02  0.42483004877E+02 -0.15044993626E+02  0.27878284763E+03  0.26305165041E+03 0.  0.
         25    1    4    4    0    0  0.34359070670E+02 -0.13633874642E+02  0.14093305966E+02  0.13119663734E+03  0.12509000000E+03 0.  0.
         25    1    4    4    0    0  0.46217277060E+02  0.56116879519E+02 -0.29138299592E+02  0.14758621029E+03  0.12509000000E+03 0.  0.
         25    1    3    3    0    0 -0.80576347730E+02 -0.42483004877E+02  0.49909848669E+02  0.16259106559E+03  0.12509000000E+03 0.  0.
<mgrwt>
<rscale>  2 0.43999474E+03</rscale>
<asrwt>0</asrwt>
<pdfrwt beam="1">  1       21 0.35017557E-01 0.43999474E+03</pdfrwt>
<pdfrwt beam="2">  1       21 0.29890372E-01 0.43999474E+03</pdfrwt>
<totfact> 0.78546749E+04</totfact>
</mgrwt>
</event>
<event>
 7    0  0.4709932E-002  0.4543473E+03  0.7546771E-02  0.1026434E+00
         21   -1    0    0  502  501  0.00000000000E+00  0.00000000000E+00  0.25675406763E+04  0.25675406763E+04  0.00000000000E+00 0. -1.
         21   -1    0    0  501  502 -0.00000000000E+00 -0.00000000000E+00 -0.20100117059E+02  0.20100117059E+02  0.00000000000E+00 0. -1.
      99926    2    1    2    0    0  0.00000000000E+00  0.00000000000E+00  0.25474405593E+04  0.25876407934E+04  0.45434730394E+03 0.  0.
      99925    2    3    3    0    0  0.43826508373E+02 -0.28906548780E+02  0.10368349324E+04  0.10709558494E+04  0.26298935881E+03 0.  0.
         25    1    4    4    0    0  0.40905877891E+02  0.21218748717E+02  0.52860189103E+03  0.54515226629E+03  0.12509000000E+03 0.  0.
         25    1    3    3    0    0 -0.43826508373E+02  0.28906548780E+02  0.15106056269E+04  0.15166849440E+04  0.12509000000E+03 0.  0.
         25    1    4    4    0    0  0.29206304820E+01 -0.50125297497E+02  0.50823304137E+03  0.52580358307E+03  0.12509000000E+03 0.  0.
<mgrwt>
<rscale>  2 0.45434730E+03</rscale>
<asrwt>0</asrwt>
<pdfrwt beam="1">  1       21 0.37757929E+00 0.45434730E+03</pdfrwt>
<pdfrwt beam="2">  1       21 0.29559013E-02 0.45434730E+03</pdfrwt>
<totfact> 0.63080811E+03</totfact>
</mgrwt>
</event>
<event>
 7    0  0.4709932E-002  0.4494568E+03  0.7546771E-02  0.1027884E+00
         21   -1    0    0  502  501  0.00000000000E+00  0.00000000000E+00  0.38852107695E+03  0.38852107695E+03  0.00000000000E+00 0. -1.
         21   -1    0    0  501  502 -0.00000000000E+00 -0.00000000000E+00 -0.12998741470E+03  0.12998741470E+03  0.00000000000E+00 0. -1.
      99926    2    1    2    0    0  0.00000000000E+00  0.88817841970E-15  0.25853366225E+03  0.51850849165E+03  0.44945678479E+03 0.  0.
      99925    2    3    3    0    0 -0.23159368548E+02 -0.52904286518E+01  0.42403009413E+02  0.26766130274E+03  0.26321134624E+03 0.  0.
         25    1    3    3    0    0  0.23159368548E+02  0.52904286518E+01  0.21613065284E+03  0.25084718891E+03  0.12509000000E+03 0.  0.
         25    1    4    4    0    0 -0.31490344328E+02 -0.20072513427E+02 -0.10115833272E+02  0.13093657153E+03  0.12509000000E+03 0.  0.
         25    1    4    4    0    0  0.83309757799E+01  0.14782084775E+02  0.52518842685E+02  0.13672473121E+03  0.12509000000E+03 0.  0.
<mgrwt>
<rscale>  2 0.44945678E+03</rscale>
<asrwt>0</asrwt>
<pdfrwt beam="1">  1       21 0.57135452E-01 0.44945678E+03</pdfrwt>
<pdfrwt beam="2">  1       21 0.19115796E-01 0.44945678E+03</pdfrwt>
<totfact> 0.66882139E+04</totfact>
</mgrwt>
</event>
<event>
 7    0  0.4709932E-002  0.4611012E+03  0.7546771E-02  0.1024462E+00
         21   -1    0    0  502  501  0.00000000000E+00  0.00000000000E+00  0.12355420234E+03  0.12355420234E+03  0.00000000000E+00 0.  1.
         21   -1    0    0  501  502 -0.00000000000E+00 -0.00000000000E+00 -0.43020446171E+03  0.43020446171E+03  0.00000000000E+00 0.  1.
      99926    2    1    2    0    0 -0.14210854715E-13  0.71054273576E-14 -0.30665025937E+03  0.55375866405E+03  0.46110115641E+03 0.  0.
      99925    2    3    3    0    0  0.10188344665E+03 -0.32805101048E+02 -0.25291135132E+03  0.38057728603E+03  0.26347392215E+03 0.  0.
         25    1    4    4    0    0  0.18819300119E+02 -0.36561700349E+02 -0.14343971587E+03  0.19471359526E+03  0.12509000000E+03 0.  0.
         25    1    3    3    0    0 -0.10188344665E+03  0.32805101048E+02 -0.53738908047E+02  0.17318137802E+03  0.12509000000E+03 0.  0.
         25    1    4    4    0    0  0.83064146531E+02  0.37565993015E+01 -0.10947163545E+03  0.18586369077E+03  0.12509000000E+03 0.  0.
<mgrwt>
<rscale>  2 0.46110116E+03</rscale>
<asrwt>0</asrwt>
<pdfrwt beam="1">  1       21 0.18169736E-01 0.46110116E+03</pdfrwt>
<pdfrwt beam="2">  1       21 0.63265361E-01 0.46110116E+03</pdfrwt>
<totfact> 0.58732185E+04</totfact>
</mgrwt>
</event>
<event>
 7    0  0.4709932E-002  0.4598034E+03  0.7546771E-02  0.1024838E+00
         21   -1    0    0  502  501  0.00000000000E+00  0.00000000000E+00  0.90212065325E+02  0.90212065325E+02  0.00000000000E+00 0. -1.
         21   -1    0    0  501  502 -0.00000000000E+00 -0.00000000000E+00 -0.58589496988E+03  0.58589496988E+03  0.00000000000E+00 0. -1.
      99926    2    1    2    0    0  0.88817841970E-15  0.71054273576E-14 -0.49568290455E+03  0.67610703520E+03  0.45980341580E+03 0.  0.
      99925    2    3    3    0    0  0.52858046069E+01 -0.45951010421E+02 -0.46973589242E+03  0.54023875109E+03  0.26280537373E+03 0.  0.
         25    1    4    4    0    0  0.16002982243E+02  0.22005782229E+01 -0.16960789898E+03  0.21136528921E+03  0.12509000000E+03 0.  0.
         25    1    4    4    0    0 -0.10717177636E+02 -0.48151588644E+02 -0.30012799344E+03  0.32887346188E+03  0.12509000000E+03 0.  0.
         25    1    3    3    0    0 -0.52858046069E+01  0.45951010421E+02 -0.25947012136E+02  0.13586828411E+03  0.12509000000E+03 0.  0.
<mgrwt>
<rscale>  2 0.45980342E+03</rscale>
<asrwt>0</asrwt>
<pdfrwt beam="1">  1       21 0.13266480E-01 0.45980342E+03</pdfrwt>
<pdfrwt beam="2">  1       21 0.86161026E-01 0.45980342E+03</pdfrwt>
<totfact> 0.52214880E+04</totfact>
</mgrwt>
</event>
<event>
 7    0  0.4709932E-002  0.4537307E+03  0.7546771E-02  0.1026615E+00
         21   -1    0    0  502  501  0.00000000000E+00  0.00000000000E+00  0.36829858156E+03  0.36829858156E+03  0.00000000000E+00 0. -1.
         21   -1    0    0  501  502 -0.00000000000E+00 -0.00000000000E+00 -0.13974500702E+03  0.13974500702E+03  0.00000000000E+00 0. -1.
      99926    2    1    2    0    0  0.00000000000E+00  0.71054273576E-14  0.22855357454E+03  0.50804358859E+03  0.45373070369E+03 0.  0.
      99925    2    3    3    0    0 -0.56153610515E+02 -0.47641857345E+02  0.49551096281E+02  0.27758237739E+03  0.26300891724E+03 0.  0.
         25    1    3    3    0    0  0.56153610515E+02  0.47641857345E+02  0.17900247826E+03  0.23046121120E+03  0.12509000000E+03 0.  0.
         25    1    4    4    0    0 -0.33433497367E+02  0.85728164301E+01 -0.70608967160E+00  0.12976632302E+03  0.12509000000E+03 0.  0.
         25    1    4    4    0    0 -0.22720113149E+02 -0.56214673775E+02  0.50257185953E+02  0.14781605437E+03  0.12509000000E+03 0.  0.
<mgrwt>
<rscale>  2 0.45373070E+03</rscale>
<asrwt>0</asrwt>
<pdfrwt beam="1">  1       21 0.54161556E-01 0.45373070E+03</pdfrwt>
<pdfrwt beam="2">  1       21 0.20550736E-01 0.45373070E+03</pdfrwt>
<totfact> 0.65365189E+04</totfact>
</mgrwt>
</event>
<event>
 7    0  0.4709932E-002  0.4602909E+03  0.7546771E-02  0.1024697E+00
         21   -1    0    0  502  501  0.00000000000E+00  0.00000000000E+00  0.11186343699E+03  0.11186343699E+03  0.00000000000E+00 0.  1.
         21   -1    0    0  501  502 -0.00000000000E+00 -0.00000000000E+00 -0.47349638916E+03  0.47349638916E+03  0.00000000000E+00 0.  1.
      99926    2    1    2    0    0  0.00000000000E+00  0.00000000000E+00 -0.36163295217E+03  0.58535982615E+03  0.46029092320E+03 0.  0.
      99925    2    3    3    0    0 -0.10607984924E+03 -0.17216007487E+02 -0.16432284908E+03  0.32820596130E+03  0.26299777370E+03 0.  0.
         25    1    4    4    0    0 -0.84362170095E+02 -0.18605837446E+02 -0.58392159570E+02  0.16285056134E+03  0.12509000000E+03 0.  0.
         25    1    3    3    0    0  0.10607984924E+03  0.17216007487E+02 -0.19731010309E+03  0.25715386486E+03  0.12509000000E+03 0.  0.
         25    1    4    4    0    0 -0.21717679145E+02  0.13898299588E+01 -0.10593068951E+03  0.16535539996E+03  0.12509000000E+03 0.  0.
<mgrwt>
<rscale>  2 0.46029092E+03</rscale>
<asrwt>0</asrwt>
<pdfrwt beam="1">  1       21 0.16450505E-01 0.46029092E+03</pdfrwt>
<pdfrwt beam="2">  1       21 0.69631823E-01 0.46029092E+03</pdfrwt>
<totfact> 0.57160183E+04</totfact>
</mgrwt>
</event>
<event>
 7    0  0.4709932E-002  0.4587395E+03  0.7546771E-02  0.1025147E+00
         21   -1    0    0  502  501  0.00000000000E+00  0.00000000000E+00  0.82096037781E+03  0.82096037781E+03  0.00000000000E+00 0. -1.
         21   -1    0    0  501  502 -0.00000000000E+00 -0.00000000000E+00 -0.64084080078E+02  0.64084080078E+02  0.00000000000E+00 0. -1.
      99926    2    1    2    0    0  0.00000000000E+00  0.35527136788E-14  0.75687629774E+03  0.88504445789E+03  0.45873953652E+03 0.  0.
      99925    2    3    3    0    0 -0.15017902879E+02  0.26640893685E+02  0.69171475314E+03  0.74072256206E+03  0.26318309141E+03 0.  0.
         25    1    4    4    0    0 -0.19645755277E+02  0.51647579844E+02  0.38163037895E+03  0.40539201083E+03  0.12509000000E+03 0.  0.
         25    1    4    4    0    0  0.46278523973E+01 -0.25006686158E+02  0.31008437419E+03  0.33533055123E+03  0.12509000000E+03 0.  0.
         25    1    3    3    0    0  0.15017902879E+02 -0.26640893685E+02  0.65161544593E+02  0.14432189583E+03  0.12509000000E+03 0.  0.
<mgrwt>
<rscale>  2 0.45873954E+03</rscale>
<asrwt>0</asrwt>
<pdfrwt beam="1">  1       21 0.12072946E+00 0.45873954E+03</pdfrwt>
<pdfrwt beam="2">  1       21 0.94241299E-02 0.45873954E+03</pdfrwt>
<totfact> 0.42624595E+04</totfact>
</mgrwt>
</event>
<event>
 7    0  0.4709932E-002  0.4526009E+03  0.7546771E-02  0.1026949E+00
         21   -1    0    0  502  501  0.00000000000E+00  0.00000000000E+00  0.15068771894E+03  0.15068771894E+03  0.00000000000E+00 0. -1.
         21   -1    0    0  501  502 -0.00000000000E+00 -0.00000000000E+00 -0.33985439365E+03  0.33985439365E+03  0.00000000000E+00 0. -1.
      99926    2    1    2    0    0  0.00000000000E+00  0.00000000000E+00 -0.18916667471E+03  0.49054211258E+03  0.45260085439E+03 0.  0.
      99925    2    3    3    0    0 -0.27118484236E+02 -0.46397808631E+02 -0.22442111804E+03  0.34990587007E+03  0.26302302343E+03 0.  0.
         25    1    4    4    0    0 -0.25842434186E+02  0.52174854679E+00 -0.69808387992E+02  0.14556380993E+03  0.12509000000E+03 0.  0.
         25    1    3    3    0    0  0.27118484236E+02  0.46397808631E+02  0.35254443333E+02  0.14063624251E+03  0.12509000000E+03 0.  0.
         25    1    4    4    0    0 -0.12760500504E+01 -0.46919557178E+02 -0.15461273005E+03  0.20434206014E+03  0.12509000000E+03 0.  0.
<mgrwt>
<rscale>  2 0.45260085E+03</rscale>
<asrwt>0</asrwt>
<pdfrwt beam="1">  1       21 0.22159959E-01 0.45260085E+03</pdfrwt>
<pdfrwt beam="2">  1       21 0.49978586E-01 0.45260085E+03</pdfrwt>
<totfact> 0.67211363E+04</totfact>
</mgrwt>
</event>
<event>
 7    0  0.4709932E-002  0.4631476E+03  0.7546771E-02  0.1023872E+00
         21   -1    0    0  502  501  0.00000000000E+00  0.00000000000E+00  0.82540118093E+02  0.82540118093E+02  0.00000000000E+00 0.  1.
         21   -1    0    0  501  502 -0.00000000000E+00 -0.00000000000E+00 -0.64970141207E+03  0.64970141207E+03  0.00000000000E+00 0.  1.
      99926    2    1    2    0    0  0.00000000000E+00  0.00000000000E+00 -0.56716129398E+03  0.73224153017E+03  0.46314762777E+03 0.  0.
      99925    2    3    3    0    0  0.60378043689E+02  0.10416329092E+03 -0.36586929993E+03  0.46641926943E+03  0.26304199461E+03 0.  0.
         25    1    4    4    0    0  0.46902505749E+02  0.15099965788E+02 -0.18661730547E+03  0.23000300175E+03  0.12509000000E+03 0.  0.
         25    1    4    4    0    0  0.13475537940E+02  0.89063325130E+02 -0.17925199446E+03  0.23641626768E+03  0.12509000000E+03 0.  0.
         25    1    3    3    0    0 -0.60378043689E+02 -0.10416329092E+03 -0.20129199405E+03  0.26582226074E+03  0.12509000000E+03 0.  0.
<mgrwt>
<rscale>  2 0.46314763E+03</rscale>
<asrwt>0</asrwt>
<pdfrwt beam="1">  1       21 0.12138253E-01 0.46314763E+03</pdfrwt>
<pdfrwt beam="2">  1       21 0.95544321E-01 0.46314763E+03</pdfrwt>
<totfact> 0.48034990E+04</totfact>
</mgrwt>
</event>
<event>
 7    0  0.4709932E-002  0.4576610E+03  0.7546771E-02  0.1025462E+00
         21   -1    0    0  502  501  0.00000000000E+00  0.00000000000E+00  0.82453670604E+02  0.82453670604E+02  0.00000000000E+00 0.  1.
         21   -1    0    0  501  502 -0.00000000000E+00 -0.00000000000E+00 -0.63506445596E+03  0.63506445596E+03  0.00000000000E+00 0.  1.
      99926    2    1    2    0    0  0.00000000000E+00  0.11102230246E-15 -0.55261078535E+03  0.71751812656E+03  0.45766099010E+03 0.  0.
      99925    2    3    3    0    0 -0.10703169860E+03  0.94584056772E+00 -0.28489471070E+03  0.40323149967E+03  0.26452592882E+03 0.  0.
         25    1    4    4    0    0 -0.41422269923E+02  0.77932637654E+01 -0.19562797169E+03  0.23599650593E+03  0.12509000000E+03 0.  0.
         25    1    3    3    0    0  0.10703169860E+03 -0.94584056772E+00 -0.26771607465E+03  0.31428662689E+03  0.12509000000E+03 0.  0.
         25    1    4    4    0    0 -0.65609428672E+02 -0.68474231977E+01 -0.89266739016E+02  0.16723499374E+03  0.12509000000E+03 0.  0.
<mgrwt>
<rscale>  2 0.45766099E+03</rscale>
<asrwt>0</asrwt>
<pdfrwt beam="1">  1       21 0.12125539E-01 0.45766099E+03</pdfrwt>
<pdfrwt beam="2">  1       21 0.93391834E-01 0.45766099E+03</pdfrwt>
<totfact> 0.50888589E+04</totfact>
</mgrwt>
</event>
<event>
 7    0  0.4709932E-002  0.4565167E+03  0.7546771E-02  0.1025796E+00
         21   -1    0    0  502  501  0.00000000000E+00  0.00000000000E+00  0.58991359664E+02  0.58991359664E+02  0.00000000000E+00 0. -1.
         21   -1    0    0  501  502 -0.00000000000E+00 -0.00000000000E+00 -0.88321205275E+03  0.88321205275E+03  0.00000000000E+00 0. -1.
      99926    2    1    2    0    0  0.00000000000E+00  0.00000000000E+00 -0.82422069309E+03  0.94220341242E+03  0.45651672418E+03 0.  0.
      99925    2    3    3    0    0 -0.84271306048E+02  0.40125146137E+01 -0.67797264534E+03  0.73207546838E+03  0.26300157846E+03 0.  0.
         25    1    3    3    0    0  0.84271306048E+02 -0.40125146137E+01 -0.14624804775E+03  0.21012794404E+03  0.12509000000E+03 0.  0.
         25    1    4    4    0    0 -0.66792569809E+02  0.73534425502E+01 -0.44418796087E+03  0.46633225621E+03  0.12509000000E+03 0.  0.
         25    1    4    4    0    0 -0.17478736238E+02 -0.33409279365E+01 -0.23378468447E+03  0.26574321216E+03  0.12509000000E+03 0.  0.
<mgrwt>
<rscale>  2 0.45651672E+03</rscale>
<asrwt>0</asrwt>
<pdfrwt beam="1">  1       21 0.86752006E-02 0.45651672E+03</pdfrwt>
<pdfrwt beam="2">  1       21 0.12988412E+00 0.45651672E+03</pdfrwt>
<totfact> 0.40970000E+04</totfact>
</mgrwt>
</event>
<event>
 6    0  0.4801069E-002  0.4102945E+03  0.7546771E-02  0.1040272E+00
         21   -1    0    0  502  501  0.00000000000E+00  0.00000000000E+00  0.96459752379E+03  0.96459752379E+03  0.00000000000E+00 0. -1.
         21   -1    0    0  501  502 -0.00000000000E+00 -0.00000000000E+00 -0.43629998280E+02  0.43629998280E+02  0.00000000000E+00 0. -1.
      99926    2    1    2    0    0  0.35527136788E-14 -0.71054273576E-14  0.92096752551E+03  0.10082275221E+04  0.41029447134E+03 0.  0.
         25    1    3    3    0    0 -0.20075034860E+02 -0.93608942779E+01  0.29196817229E+03  0.31840784396E+03  0.12509000000E+03 0.  0.
         25    1    3    3    0    0  0.16435829508E+02 -0.35857571353E+02  0.18835733560E+03  0.22952537090E+03  0.12509000000E+03 0.  0.
         25    1    3    3    0    0  0.36392053519E+01  0.45218465631E+02  0.44064201762E+03  0.46029430720E+03  0.12509000000E+03 0.  0.
<mgrwt>
<rscale>  2 0.41029447E+03</rscale>
<asrwt>0</asrwt>
<pdfrwt beam="1">  1       21 0.14185256E+00 0.41029447E+03</pdfrwt>
<pdfrwt beam="2">  1       21 0.64161768E-02 0.41029447E+03</pdfrwt>
<totfact> 0.55985153E+04</totfact>
</mgrwt>
</event>
<event>
 7    0  0.4709932E-002  0.4433272E+03  0.7546771E-02  0.1029731E+00
         21   -1    0    0  502  501  0.00000000000E+00  0.00000000000E+00  0.27937521230E+03  0.27937521230E+03  0.00000000000E+00 0.  1.
         21   -1    0    0  501  502 -0.00000000000E+00 -0.00000000000E+00 -0.17587366083E+03  0.17587366083E+03  0.00000000000E+00 0.  1.
      99926    2    1    2    0    0  0.00000000000E+00  0.00000000000E+00  0.10350155147E+03  0.45524887313E+03  0.44332715384E+03 0.  0.
      99925    2    3    3    0    0  0.92866982004E+02  0.34795444721E+02  0.89744971791E+02  0.29502480844E+03  0.26296478531E+03 0.  0.
         25    1    4    4    0    0  0.21281542624E+02  0.47770636616E+02  0.32627527287E+02  0.13945250595E+03  0.12509000000E+03 0.  0.
         25    1    4    4    0    0  0.71585439380E+02 -0.12975191895E+02  0.57117444505E+02  0.15557230249E+03  0.12509000000E+03 0.  0.
         25    1    3    3    0    0 -0.92866982004E+02 -0.34795444721E+02  0.13756579675E+02  0.16022406468E+03  0.12509000000E+03 0.  0.
<mgrwt>
<rscale>  2 0.44332715E+03</rscale>
<asrwt>0</asrwt>
<pdfrwt beam="1">  1       21 0.41084590E-01 0.44332715E+03</pdfrwt>
<pdfrwt beam="2">  1       21 0.25863773E-01 0.44332715E+03</pdfrwt>
<totfact> 0.75281303E+04</totfact>
</mgrwt>
</event>
<event>
 7    0  0.4709932E-002  0.4614854E+03  0.7546771E-02  0.1024351E+00
         21   -1    0    0  502  501  0.00000000000E+00  0.00000000000E+00  0.13809685349E+03  0.13809685349E+03  0.00000000000E+00 0.  1.
         21   -1    0    0  501  502 -0.00000000000E+00 -0.00000000000E+00 -0.38554245800E+03  0.38554245800E+03  0.00000000000E+00 0.  1.
      99926    2    1    2    0    0  0.14210854715E-13 -0.71054273576E-14 -0.24744560451E+03  0.52363931149E+03  0.46148542918E+03 0.  0.
      99925    2    3    3    0    0 -0.11030618576E+03  0.43147312610E+02 -0.13991209803E+03  0.32056270447E+03  0.26297510741E+03 0.  0.
         25    1    4    4    0    0 -0.85076671579E+02 -0.51254339927E+01 -0.63101728004E+02  0.16399282392E+03  0.12509000000E+03 0.  0.
         25    1    3    3    0    0  0.11030618576E+03 -0.43147312610E+02 -0.10753350648E+03  0.20307660702E+03  0.12509000000E+03 0.  0.
         25    1    4    4    0    0 -0.25229514183E+02  0.48272746603E+02 -0.76810370030E+02  0.15656988055E+03  0.12509000000E+03 0.  0.
<mgrwt>
<rscale>  2 0.46148543E+03</rscale>
<asrwt>0</asrwt>
<pdfrwt beam="1">  1       21 0.20308361E-01 0.46148543E+03</pdfrwt>
<pdfrwt beam="2">  1       21 0.56697419E-01 0.46148543E+03</pdfrwt>
<totfact> 0.60468200E+04</totfact>
</mgrwt>
</event>
<event>
 7    0  0.4709932E-002  0.4574890E+03  0.7546771E-02  0.1025512E+00
         21   -1    0    0  502  501  0.00000000000E+00  0.00000000000E+00  0.41876667122E+03  0.41876667122E+03  0.00000000000E+00 0.  1.
         21   -1    0    0  501  502 -0.00000000000E+00 -0.00000000000E+00 -0.12494796646E+03  0.12494796646E+03  0.00000000000E+00 0.  1.
      99926    2    1    2    0    0  0.00000000000E+00  0.71054273576E-14  0.29381870476E+03  0.54371463768E+03  0.45748898999E+03 0.  0.
      99925    2    3    3    0    0 -0.61615925239E+02 -0.34042284680E+02  0.29344737618E+03  0.40017702807E+03  0.26282102621E+03 0.  0.
         25    1    4    4    0    0 -0.69334973031E+02 -0.22684375329E+02  0.13642264940E+03  0.19894865352E+03  0.12509000000E+03 0.  0.
         25    1    4    4    0    0  0.77190477913E+01 -0.11357909351E+02  0.15702472678E+03  0.20122837455E+03  0.12509000000E+03 0.  0.
         25    1    3    3    0    0  0.61615925239E+02  0.34042284680E+02  0.37132858938E+00  0.14353760962E+03  0.12509000000E+03 0.  0.
<mgrwt>
<rscale>  2 0.45748899E+03</rscale>
<asrwt>0</asrwt>
<pdfrwt beam="1">  1       21 0.61583334E-01 0.45748899E+03</pdfrwt>
<pdfrwt beam="2">  1       21 0.18374701E-01 0.45748899E+03</pdfrwt>
<totfact> 0.61071988E+04</totfact>
</mgrwt>
</event>
<event>
 7    0  0.4709932E-002  0.4555809E+03  0.7546771E-02  0.1026071E+00
         21   -1    0    0  502  501  0.00000000000E+00  0.00000000000E+00  0.21978893895E+03  0.21978893895E+03  0.00000000000E+00 0. -1.
         21   -1    0    0  501  502 -0.00000000000E+00 -0.00000000000E+00 -0.23608328618E+03  0.23608328618E+03  0.00000000000E+00 0. -1.
      99926    2    1    2    0    0  0.00000000000E+00  0.00000000000E+00 -0.16294347227E+02  0.45587222513E+03  0.45558092573E+03 0.  0.
      99925    2    3    3    0    0  0.18318001989E+02 -0.11051707281E+03 -0.32106975006E+02  0.28720948509E+03  0.26250496739E+03 0.  0.
         25    1    4    4    0    0  0.23006104796E+01 -0.92319986798E+02 -0.36515278701E+02  0.15971583030E+03  0.12509000000E+03 0.  0.
         25    1    3    3    0    0 -0.18318001989E+02  0.11051707281E+03  0.15812627779E+02  0.16866274003E+03  0.12509000000E+03 0.  0.
         25    1    4    4    0    0  0.16017391509E+02 -0.18197086007E+02  0.44083036955E+01  0.12749365479E+03  0.12509000000E+03 0.  0.
<mgrwt>
<rscale>  2 0.45558093E+03</rscale>
<asrwt>0</asrwt>
<pdfrwt beam="1">  1       21 0.32321903E-01 0.45558093E+03</pdfrwt>
<pdfrwt beam="2">  1       21 0.34718130E-01 0.45558093E+03</pdfrwt>
<totfact> 0.68165451E+04</totfact>
</mgrwt>
</event>
<event>
 7    0  0.4709932E-002  0.4525679E+03  0.7546771E-02  0.1026959E+00
         21   -1    0    0  502  501  0.00000000000E+00  0.00000000000E+00  0.41649427984E+03  0.41649427984E+03  0.00000000000E+00 0. -1.
         21   -1    0    0  501  502 -0.00000000000E+00 -0.00000000000E+00 -0.12294150347E+03  0.12294150347E+03  0.00000000000E+00 0. -1.
      99926    2    1    2    0    0  0.00000000000E+00  0.00000000000E+00  0.29355277637E+03  0.53943578331E+03  0.45256793060E+03 0.  0.
      99925    2    3    3    0    0 -0.10160844418E+03 -0.34103376243E+02  0.15159082450E+03  0.32197769521E+03  0.26306376023E+03 0.  0.
         25    1    3    3    0    0  0.10160844418E+03  0.34103376243E+02  0.14196195187E+03  0.21745808810E+03  0.12509000000E+03 0.  0.
         25    1    4    4    0    0 -0.54310297045E+02 -0.20198613138E+02  0.30853334508E+02  0.14126934801E+03  0.12509000000E+03 0.  0.
         25    1    4    4    0    0 -0.47298147136E+02 -0.13904763105E+02  0.12073748999E+03  0.18070834720E+03  0.12509000000E+03 0.  0.
<mgrwt>
<rscale>  2 0.45256793E+03</rscale>
<asrwt>0</asrwt>
<pdfrwt beam="1">  1       21 0.61249158E-01 0.45256793E+03</pdfrwt>
<pdfrwt beam="2">  1       21 0.18079633E-01 0.45256793E+03</pdfrwt>
<totfact> 0.63788983E+04</totfact>
</mgrwt>
</event>
<event>
 7    0  0.4709932E-002  0.4483822E+03  0.7546771E-02  0.1028206E+00
         21   -1    0    0  502  501  0.00000000000E+00  0.00000000000E+00  0.14791167876E+03  0.14791167876E+03  0.00000000000E+00 0. -1.
         21   -1    0    0  501  502 -0.00000000000E+00 -0.00000000000E+00 -0.33980850337E+03  0.33980850337E+03  0.00000000000E+00 0. -1.
      99926    2    1    2    0    0  0.00000000000E+00 -0.71054273576E-14 -0.19189682461E+03  0.48772018213E+03  0.44838218604E+03 0.  0.
      99925    2    3    3    0    0 -0.86271375190E+02  0.54779313591E+02 -0.15533405616E+03  0.32210657305E+03  0.26302177101E+03 0.  0.
         25    1    4    4    0    0 -0.31372886364E+02  0.64507250619E+02 -0.93378274146E+02  0.17179189027E+03  0.12509000000E+03 0.  0.
         25    1    4    4    0    0 -0.54898488826E+02 -0.97279370284E+01 -0.61955782017E+02  0.15031468278E+03  0.12509000000E+03 0.  0.
         25    1    3    3    0    0  0.86271375190E+02 -0.54779313591E+02 -0.36562768450E+02  0.16561360908E+03  0.12509000000E+03 0.  0.
<mgrwt>
<rscale>  2 0.44838219E+03</rscale>
<asrwt>0</asrwt>
<pdfrwt beam="1">  1       21 0.21751718E-01 0.44838219E+03</pdfrwt>
<pdfrwt beam="2">  1       21 0.49971838E-01 0.44838219E+03</pdfrwt>
<totfact> 0.69734510E+04</totfact>
</mgrwt>
</event>
<event>
 7    0  0.4709932E-002  0.4543037E+03  0.7546771E-02  0.1026446E+00
         21   -1    0    0  502  501  0.00000000000E+00  0.00000000000E+00  0.38435154921E+03  0.38435154921E+03  0.00000000000E+00 0. -1.
         21   -1    0    0  501  502 -0.00000000000E+00 -0.00000000000E+00 -0.13424676702E+03  0.13424676702E+03  0.00000000000E+00 0. -1.
      99926    2    1    2    0    0  0.00000000000E+00 -0.14210854715E-13  0.25010478219E+03  0.51859831623E+03  0.45430365564E+03 0.  0.
      99925    2    3    3    0    0  0.30936047517E+02  0.68420529971E+02  0.25314273800E+03  0.37266975414E+03  0.26298876762E+03 0.  0.
         25    1    4    4    0    0 -0.13105241660E+02  0.34784774124E+01  0.11471962573E+03  0.17027021992E+03  0.12509000000E+03 0.  0.
         25    1    3    3    0    0 -0.30936047517E+02 -0.68420529971E+02 -0.30379558134E+01  0.14592856209E+03  0.12509000000E+03 0.  0.
         25    1    4    4    0    0  0.44041289177E+02  0.64942052558E+02  0.13842311227E+03  0.20239953422E+03  0.12509000000E+03 0.  0.
<mgrwt>
<rscale>  2 0.45430366E+03</rscale>
<asrwt>0</asrwt>
<pdfrwt beam="1">  1       21 0.56522286E-01 0.45430366E+03</pdfrwt>
<pdfrwt beam="2">  1       21 0.19742172E-01 0.45430366E+03</pdfrwt>
<totfact> 0.64337590E+04</totfact>
</mgrwt>
</event>
<event>
 7    0  0.4709932E-002  0.4489918E+03  0.7546771E-02  0.1028023E+00
         21   -1    0    0  502  501  0.00000000000E+00  0.00000000000E+00  0.66352810327E+03  0.66352810327E+03  0.00000000000E+00 0. -1.
         21   -1    0    0  501  502 -0.00000000000E+00 -0.00000000000E+00 -0.75955204148E+02  0.75955204148E+02  0.00000000000E+00 0. -1.
      99926    2    1    2    0    0  0.00000000000E+00  0.00000000000E+00  0.58757289912E+03  0.73948330742E+03  0.44899181526E+03 0.  0.
      99925    2    3    3    0    0  0.37082870687E+02 -0.70814546893E+02  0.25343483579E+03  0.37385290275E+03  0.26295805284E+03 0.  0.
         25    1    4    4    0    0 -0.12248210716E+01 -0.42773763257E+02  0.78988889896E+02  0.15400599935E+03  0.12509000000E+03 0.  0.
         25    1    3    3    0    0 -0.37082870687E+02  0.70814546893E+02  0.33413806333E+03  0.36563040466E+03  0.12509000000E+03 0.  0.
         25    1    4    4    0    0  0.38307691759E+02 -0.28040783636E+02  0.17444594590E+03  0.21984690340E+03  0.12509000000E+03 0.  0.
<mgrwt>
<rscale>  2 0.44899182E+03</rscale>
<asrwt>0</asrwt>
<pdfrwt beam="1">  1       21 0.97577659E-01 0.44899182E+03</pdfrwt>
<pdfrwt beam="2">  1       21 0.11169883E-01 0.44899182E+03</pdfrwt>
<totfact> 0.53283674E+04</totfact>
</mgrwt>
</event>
<event>
 7    0  0.4709932E-002  0.4536262E+03  0.7546771E-02  0.1026646E+00
         21   -1    0    0  502  501  0.00000000000E+00  0.00000000000E+00  0.33130571009E+03  0.33130571009E+03  0.00000000000E+00 0. -1.
         21   -1    0    0  501  502 -0.00000000000E+00 -0.00000000000E+00 -0.15527705736E+03  0.15527705736E+03  0.00000000000E+00 0. -1.
      99926    2    1    2    0    0  0.00000000000E+00  0.00000000000E+00  0.17602865273E+03  0.48658276745E+03  0.45362617098E+03 0.  0.
      99925    2    3    3    0    0 -0.26059364891E+02 -0.93282453971E+02  0.17106679605E+03  0.32830189419E+03  0.26294025614E+03 0.  0.
         25    1    4    4    0    0 -0.23393517963E+02 -0.57799815270E+02  0.13264614161E+03  0.19269297421E+03  0.12509000000E+03 0.  0.
         25    1    4    4    0    0 -0.26658469280E+01 -0.35482638700E+02  0.38420654445E+02  0.13560891998E+03  0.12509000000E+03 0.  0.
         25    1    3    3    0    0  0.26059364891E+02  0.93282453971E+02  0.49618566769E+01  0.15828087326E+03  0.12509000000E+03 0.  0.
<mgrwt>
<rscale>  2 0.45362617E+03</rscale>
<asrwt>0</asrwt>
<pdfrwt beam="1">  1       21 0.48721428E-01 0.45362617E+03</pdfrwt>
<pdfrwt beam="2">  1       21 0.22834861E-01 0.45362617E+03</pdfrwt>
<totfact> 0.66951170E+04</totfact>
</mgrwt>
</event>
<event>
 7    0  0.4709932E-002  0.4506905E+03  0.7546771E-02  0.1027516E+00
         21   -1    0    0  502  501  0.00000000000E+00  0.00000000000E+00  0.15240477488E+03  0.15240477488E+03  0.00000000000E+00 0. -1.
         21   -1    0    0  501  502 -0.00000000000E+00 -0.00000000000E+00 -0.33319476807E+03  0.33319476807E+03  0.00000000000E+00 0. -1.
      99926    2    1    2    0    0  0.00000000000E+00  0.00000000000E+00 -0.18078999319E+03  0.48559954295E+03  0.45069046415E+03 0.  0.
      99925    2    3    3    0    0 -0.27323656628E+02 -0.10421914792E+03 -0.95949181666E+02  0.29998250600E+03  0.26301149298E+03 0.  0.
         25    1    4    4    0    0  0.24949548442E+02 -0.43499882138E+02 -0.57618641656E+02  0.14656785350E+03  0.12509000000E+03 0.  0.
         25    1    3    3    0    0  0.27323656628E+02  0.10421914792E+03 -0.84840811520E+02  0.18561703694E+03  0.12509000000E+03 0.  0.
         25    1    4    4    0    0 -0.52273205070E+02 -0.60719265781E+02 -0.38330540010E+02  0.15341465250E+03  0.12509000000E+03 0.  0.
<mgrwt>
<rscale>  2 0.45069046E+03</rscale>
<asrwt>0</asrwt>
<pdfrwt beam="1">  1       21 0.22412467E-01 0.45069046E+03</pdfrwt>
<pdfrwt beam="2">  1       21 0.48999230E-01 0.45069046E+03</pdfrwt>
<totfact> 0.68612168E+04</totfact>
</mgrwt>
</event>
<event>
 7    0  0.4709932E-002  0.4532342E+03  0.7546771E-02  0.1026762E+00
         21   -1    0    0  502  501  0.00000000000E+00  0.00000000000E+00  0.69198122134E+03  0.69198122134E+03  0.00000000000E+00 0. -1.
         21   -1    0    0  501  502 -0.00000000000E+00 -0.00000000000E+00 -0.74214882152E+02  0.74214882152E+02  0.00000000000E+00 0. -1.
      99926    2    1    2    0    0  0.00000000000E+00  0.00000000000E+00  0.61776633918E+03  0.76619610349E+03  0.45323417697E+03 0.  0.
      99925    2    3    3    0    0 -0.33006305495E+02  0.10570560739E+03  0.36691902611E+03  0.46480769261E+03  0.26297058344E+03 0.  0.
         25    1    4    4    0    0  0.10404751805E+02  0.53300883081E+02  0.13011826544E+03  0.18848743751E+03  0.12509000000E+03 0.  0.
         25    1    4    4    0    0 -0.43411057300E+02  0.52404724305E+02  0.23680076068E+03  0.27632025511E+03  0.12509000000E+03 0.  0.
         25    1    3    3    0    0  0.33006305495E+02 -0.10570560739E+03  0.25084731307E+03  0.30138841087E+03  0.12509000000E+03 0.  0.
<mgrwt>
<rscale>  2 0.45323418E+03</rscale>
<asrwt>0</asrwt>
<pdfrwt beam="1">  1       21 0.10176194E+00 0.45323418E+03</pdfrwt>
<pdfrwt beam="2">  1       21 0.10913954E-01 0.45323418E+03</pdfrwt>
<totfact> 0.50134566E+04</totfact>
</mgrwt>
</event>
<event>
 7    0  0.4709932E-002  0.4267056E+03  0.7546771E-02  0.1034906E+00
         21   -1    0    0  502  501  0.00000000000E+00  0.00000000000E+00  0.37913099810E+02  0.37913099810E+02  0.00000000000E+00 0. -1.
         21   -1    0    0  501  502 -0.00000000000E+00 -0.00000000000E+00 -0.12006251724E+04  0.12006251724E+04  0.00000000000E+00 0. -1.
      99926    2    1    2    0    0  0.00000000000E+00  0.00000000000E+00 -0.11627120726E+04  0.12385382723E+04  0.42670562217E+03 0.  0.
      99925    2    3    3    0    0 -0.34864612140E+01 -0.88632740422E+01 -0.99352097922E+03  0.10279110014E+04  0.26348885670E+03 0.  0.
         25    1    4    4    0    0 -0.18722248084E+02 -0.40158589189E+02 -0.54930629100E+03  0.56510896674E+03  0.12509000000E+03 0.  0.
         25    1    3    3    0    0  0.34864612140E+01  0.88632740422E+01 -0.16919109342E+03  0.21062727086E+03  0.12509000000E+03 0.  0.
         25    1    4    4    0    0  0.15235786870E+02  0.31295315147E+02 -0.44421468822E+03  0.46280203465E+03  0.12509000000E+03 0.  0.
<mgrwt>
<rscale>  2 0.42670562E+03</rscale>
<asrwt>0</asrwt>
<pdfrwt beam="1">  1       21 0.55754559E-02 0.42670562E+03</pdfrwt>
<pdfrwt beam="2">  1       21 0.17656253E+00 0.42670562E+03</pdfrwt>
<totfact> 0.38823341E+04</totfact>
</mgrwt>
</event>
<event>
 7    0  0.4709932E-002  0.4483362E+03  0.7546771E-02  0.1028219E+00
         21   -1    0    0  502  501  0.00000000000E+00  0.00000000000E+00  0.85930859182E+03  0.85930859182E+03  0.00000000000E+00 0.  1.
         21   -1    0    0  501  502 -0.00000000000E+00 -0.00000000000E+00 -0.58478795590E+02  0.58478795590E+02  0.00000000000E+00 0.  1.
      99926    2    1    2    0    0  0.14210854715E-13 -0.17763568394E-14  0.80082979623E+03  0.91778738741E+03  0.44833617516E+03 0.  0.
      99925    2    3    3    0    0  0.67833464730E+02  0.77364654052E+01  0.67520600346E+03  0.72781350172E+03  0.26296029043E+03 0.  0.
         25    1    4    4    0    0 -0.14170709078E+01 -0.17522057504E+02  0.30147023993E+03  0.32686517748E+03  0.12509000000E+03 0.  0.
         25    1    3    3    0    0 -0.67833464730E+02 -0.77364654052E+01  0.12562379278E+03  0.18997388569E+03  0.12509000000E+03 0.  0.
         25    1    4    4    0    0  0.69250535638E+02  0.25258522909E+02  0.37373576353E+03  0.40094832424E+03  0.12509000000E+03 0.  0.
<mgrwt>
<rscale>  2 0.44833618E+03</rscale>
<asrwt>0</asrwt>
<pdfrwt beam="1">  1       21 0.12636890E+00 0.44833618E+03</pdfrwt>
<pdfrwt beam="2">  1       21 0.85998234E-02 0.44833618E+03</pdfrwt>
<totfact> 0.44761729E+04</totfact>
</mgrwt>
</event>
<event>
 7    0  0.4709932E-002  0.4568726E+03  0.7546771E-02  0.1025692E+00
         21   -1    0    0  502  501  0.00000000000E+00  0.00000000000E+00  0.54745084133E+02  0.54745084133E+02  0.00000000000E+00 0.  1.
         21   -1    0    0  501  502 -0.00000000000E+00 -0.00000000000E+00 -0.95320248652E+03  0.95320248652E+03  0.00000000000E+00 0.  1.
      99926    2    1    2    0    0  0.00000000000E+00 -0.14210854715E-13 -0.89845740239E+03  0.10079475707E+04  0.45687263135E+03 0.  0.
      99925    2    3    3    0    0 -0.26482121862E+02 -0.92737027180E+02 -0.70237150754E+03  0.75615669463E+03  0.26295580094E+03 0.  0.
         25    1    3    3    0    0  0.26482121862E+02  0.92737027180E+02 -0.19608589486E+03  0.25179087603E+03  0.12509000000E+03 0.  0.
         25    1    4    4    0    0 -0.99157548316E+01 -0.81635325846E+02 -0.44084162872E+03  0.46556578303E+03  0.12509000000E+03 0.  0.
         25    1    4    4    0    0 -0.16566367030E+02 -0.11101701334E+02 -0.26152987882E+03  0.29059091160E+03  0.12509000000E+03 0.  0.
<mgrwt>
<rscale>  2 0.45687263E+03</rscale>
<asrwt>0</asrwt>
<pdfrwt beam="1">  1       21 0.80507482E-02 0.45687263E+03</pdfrwt>
<pdfrwt beam="2">  1       21 0.14017683E+00 0.45687263E+03</pdfrwt>
<totfact> 0.38295992E+04</totfact>
</mgrwt>
</event>
<event>
 7    0  0.4709932E-002  0.4597210E+03  0.7546771E-02  0.1024862E+00
         21   -1    0    0  502  501  0.00000000000E+00  0.00000000000E+00  0.34682927799E+03  0.34682927799E+03  0.00000000000E+00 0.  1.
         21   -1    0    0  501  502 -0.00000000000E+00 -0.00000000000E+00 -0.15233962228E+03  0.15233962228E+03  0.00000000000E+00 0.  1.
      99926    2    1    2    0    0  0.00000000000E+00  0.14210854715E-13  0.19448965571E+03  0.49916890028E+03  0.45972096409E+03 0.  0.
      99925    2    3    3    0    0  0.71289437007E+02  0.89638715491E+02  0.15064469942E+03  0.32399135766E+03  0.26298154162E+03 0.  0.
         25    1    4    4    0    0  0.42515434340E+02  0.52638229413E+02  0.12198910130E+03  0.18736913911E+03  0.12509000000E+03 0.  0.
         25    1    3    3    0    0 -0.71289437007E+02 -0.89638715491E+02  0.43844956290E+02  0.17517754261E+03  0.12509000000E+03 0.  0.
         25    1    4    4    0    0  0.28774002668E+02  0.37000486078E+02  0.28655598119E+02  0.13662221856E+03  0.12509000000E+03 0.  0.
<mgrwt>
<rscale>  2 0.45972096E+03</rscale>
<asrwt>0</asrwt>
<pdfrwt beam="1">  1       21 0.51004305E-01 0.45972096E+03</pdfrwt>
<pdfrwt beam="2">  1       21 0.22402886E-01 0.45972096E+03</pdfrwt>
<totfact> 0.62937117E+04</totfact>
</mgrwt>
</event>
<event>
 7    0  0.4709932E-002  0.4533931E+03  0.7546771E-02  0.1026715E+00
         21   -1    0    0  502  501  0.00000000000E+00  0.00000000000E+00  0.11864149182E+03  0.11864149182E+03  0.00000000000E+00 0.  1.
         21   -1    0    0  501  502 -0.00000000000E+00 -0.00000000000E+00 -0.43316477185E+03  0.43316477185E+03  0.00000000000E+00 0.  1.
      99926    2    1    2    0    0 -0.71054273576E-14  0.00000000000E+00 -0.31452328003E+03  0.55180626367E+03  0.45339305127E+03 0.  0.
      99925    2    3    3    0    0  0.58688340946E+02 -0.91111525862E+02 -0.23080032097E+03  0.36632668667E+03  0.26302247376E+03 0.  0.
         25    1    3    3    0    0 -0.58688340946E+02  0.91111525862E+02 -0.83722959064E+02  0.18547957699E+03  0.12509000000E+03 0.  0.
         25    1    4    4    0    0  0.69913982441E+01 -0.20849965024E+02 -0.13917568971E+03  0.18841704116E+03  0.12509000000E+03 0.  0.
         25    1    4    4    0    0  0.51696942702E+02 -0.70261560838E+02 -0.91624631255E+02  0.17790964552E+03  0.12509000000E+03 0.  0.
<mgrwt>
<rscale>  2 0.45339305E+03</rscale>
<asrwt>0</asrwt>
<pdfrwt beam="1">  1       21 0.17447279E-01 0.45339305E+03</pdfrwt>
<pdfrwt beam="2">  1       21 0.63700700E-01 0.45339305E+03</pdfrwt>
<totfact> 0.62538604E+04</totfact>
</mgrwt>
</event>
<event>
 7    0  0.4709932E-002  0.4642012E+03  0.7546771E-02  0.1023570E+00
         21   -1    0    0  502  501  0.00000000000E+00  0.00000000000E+00  0.38891177576E+03  0.38891177576E+03  0.00000000000E+00 0. -1.
         21   -1    0    0  501  502 -0.00000000000E+00 -0.00000000000E+00 -0.13851649366E+03  0.13851649366E+03  0.00000000000E+00 0. -1.
      99926    2    1    2    0    0 -0.14210854715E-13 -0.53290705182E-14  0.25039528210E+03  0.52742826942E+03  0.46420123017E+03 0.  0.
      99925    2    3    3    0    0  0.80092694183E+02  0.14595446934E+02  0.25889223055E+03  0.37793722298E+03  0.26302754750E+03 0.  0.
         25    1    4    4    0    0  0.59884688053E+02  0.43312659801E+02  0.14227813201E+03  0.20335372460E+03  0.12509000000E+03 0.  0.
         25    1    4    4    0    0  0.20208006130E+02 -0.28717212867E+02  0.11661409854E+03  0.17458349838E+03  0.12509000000E+03 0.  0.
         25    1    3    3    0    0 -0.80092694183E+02 -0.14595446934E+02 -0.84969484538E+01  0.14949104644E+03  0.12509000000E+03 0.  0.
<mgrwt>
<rscale>  2 0.46420123E+03</rscale>
<asrwt>0</asrwt>
<pdfrwt beam="1">  1       21 0.57192908E-01 0.46420123E+03</pdfrwt>
<pdfrwt beam="2">  1       21 0.20370073E-01 0.46420123E+03</pdfrwt>
<totfact> 0.58960991E+04</totfact>
</mgrwt>
</event>
<event>
 7    0  0.4709932E-002  0.4566884E+03  0.7546771E-02  0.1025746E+00
         21   -1    0    0  502  501  0.00000000000E+00  0.00000000000E+00  0.18921709089E+03  0.18921709089E+03  0.00000000000E+00 0.  1.
         21   -1    0    0  501  502 -0.00000000000E+00 -0.00000000000E+00 -0.27556215039E+03  0.27556215039E+03  0.00000000000E+00 0.  1.
      99926    2    1    2    0    0  0.00000000000E+00  0.00000000000E+00 -0.86345059498E+02  0.46477924129E+03  0.45668837716E+03 0.  0.
      99925    2    3    3    0    0 -0.17318185511E+02  0.11123333322E+03 -0.76548217193E+02  0.29620800949E+03  0.26307181788E+03 0.  0.
         25    1    3    3    0    0  0.17318185511E+02 -0.11123333322E+03 -0.97968423041E+01  0.16857123179E+03  0.12509000000E+03 0.  0.
         25    1    4    4    0    0  0.56837275819E+01  0.93410246019E+02 -0.57015917453E+02  0.16630123801E+03  0.12509000000E+03 0.  0.
         25    1    4    4    0    0 -0.23001913093E+02  0.17823087206E+02 -0.19532299740E+02  0.12990677148E+03  0.12509000000E+03 0.  0.
<mgrwt>
<rscale>  2 0.45668838E+03</rscale>
<asrwt>0</asrwt>
<pdfrwt beam="1">  1       21 0.27826043E-01 0.45668838E+03</pdfrwt>
<pdfrwt beam="2">  1       21 0.40523845E-01 0.45668838E+03</pdfrwt>
<totfact> 0.66923830E+04</totfact>
</mgrwt>
</event>
<event>
 7    0  0.4709932E-002  0.4464649E+03  0.7546771E-02  0.1028782E+00
         21   -1    0    0  502  501  0.00000000000E+00  0.00000000000E+00  0.25074218680E+03  0.25074218680E+03  0.00000000000E+00 0.  1.
         21   -1    0    0  501  502 -0.00000000000E+00 -0.00000000000E+00 -0.19874087505E+03  0.19874087505E+03  0.00000000000E+00 0.  1.
      99926    2    1    2    0    0  0.00000000000E+00  0.00000000000E+00  0.52001311752E+02  0.44948306185E+03  0.44646487708E+03 0.  0.
      99925    2    3    3    0    0  0.41119893146E+02  0.89525090877E+02 -0.36739037930E+01  0.28080340915E+03  0.26292863958E+03 0.  0.
         25    1    3    3    0    0 -0.41119893146E+02 -0.89525090877E+02  0.55675215545E+02  0.16867965270E+03  0.12509000000E+03 0.  0.
         25    1    4    4    0    0  0.20160480230E+02  0.86776390231E+02 -0.89346916409E+01  0.15383082812E+03  0.12509000000E+03 0.  0.
         25    1    4    4    0    0  0.20959412917E+02  0.27487006458E+01  0.52607878479E+01  0.12697258103E+03  0.12509000000E+03 0.  0.
<mgrwt>
<rscale>  2 0.44646488E+03</rscale>
<asrwt>0</asrwt>
<pdfrwt beam="1">  1       21 0.36873851E-01 0.44646488E+03</pdfrwt>
<pdfrwt beam="2">  1       21 0.29226599E-01 0.44646488E+03</pdfrwt>
<totfact> 0.73854320E+04</totfact>
</mgrwt>
</event>
<event>
 7    0  0.4709932E-002  0.4560159E+03  0.7546771E-02  0.1025943E+00
         21   -1    0    0  502  501  0.00000000000E+00  0.00000000000E+00  0.43087375836E+03  0.43087375836E+03  0.00000000000E+00 0.  1.
         21   -1    0    0  501  502 -0.00000000000E+00 -0.00000000000E+00 -0.12065628225E+03  0.12065628225E+03  0.00000000000E+00 0.  1.
      99926    2    1    2    0    0  0.00000000000E+00  0.00000000000E+00  0.31021747612E+03  0.55153004061E+03  0.45601590236E+03 0.  0.
      99925    2    3    3    0    0 -0.84188758480E+02  0.74973524505E+02  0.17114257055E+03  0.33313106192E+03  0.26263615237E+03 0.  0.
         25    1    4    4    0    0 -0.37039031870E+02 -0.56329094526E-02  0.58807333732E+02  0.14310031626E+03  0.12509000000E+03 0.  0.
         25    1    4    4    0    0 -0.47149726610E+02  0.74979157415E+02  0.11233523682E+03  0.19003074566E+03  0.12509000000E+03 0.  0.
         25    1    3    3    0    0  0.84188758480E+02 -0.74973524505E+02  0.13907490556E+03  0.21839897868E+03  0.12509000000E+03 0.  0.
<mgrwt>
<rscale>  2 0.45601590E+03</rscale>
<asrwt>0</asrwt>
<pdfrwt beam="1">  1       21 0.63363787E-01 0.45601590E+03</pdfrwt>
<pdfrwt beam="2">  1       21 0.17743571E-01 0.45601590E+03</pdfrwt>
<totfact> 0.61271566E+04</totfact>
</mgrwt>
</event>
<event>
 7    0  0.4709932E-002  0.4364236E+03  0.7546771E-02  0.1031850E+00
         21   -1    0    0  502  501  0.00000000000E+00  0.00000000000E+00  0.13165947645E+03  0.13165947645E+03  0.00000000000E+00 0.  1.
         21   -1    0    0  501  502 -0.00000000000E+00 -0.00000000000E+00 -0.36166325866E+03  0.36166325866E+03  0.00000000000E+00 0.  1.
      99926    2    1    2    0    0  0.00000000000E+00 -0.14210854715E-13 -0.23000378221E+03  0.49332273512E+03  0.43642362580E+03 0.  0.
      99925    2    3    3    0    0  0.66763368064E+02  0.63877100729E+02 -0.12384666463E+03  0.30502915311E+03  0.26299649540E+03 0.  0.
         25    1    3    3    0    0 -0.66763368064E+02 -0.63877100729E+02 -0.10615711758E+03  0.18829358201E+03  0.12509000000E+03 0.  0.
         25    1    4    4    0    0  0.43479709433E+02  0.71111217778E+02 -0.54147296493E+02  0.15977086169E+03  0.12509000000E+03 0.  0.
         25    1    4    4    0    0  0.23283658631E+02 -0.72341170494E+01 -0.69699368139E+02  0.14525829143E+03  0.12509000000E+03 0.  0.
<mgrwt>
<rscale>  2 0.43642363E+03</rscale>
<asrwt>0</asrwt>
<pdfrwt beam="1">  1       21 0.19361688E-01 0.43642363E+03</pdfrwt>
<pdfrwt beam="2">  1       21 0.53185773E-01 0.43642363E+03</pdfrwt>
<totfact> 0.76401119E+04</totfact>
</mgrwt>
</event>
<event>
 7    0  0.4709932E-002  0.3911827E+03  0.7546771E-02  0.1046876E+00
         21   -1    0    0  502  501  0.00000000000E+00  0.00000000000E+00  0.86777969364E+03  0.86777969364E+03  0.00000000000E+00 0.  1.
         21   -1    0    0  501  502 -0.00000000000E+00 -0.00000000000E+00 -0.44084894888E+02  0.44084894888E+02  0.00000000000E+00 0.  1.
      99926    2    1    2    0    0  0.00000000000E+00  0.00000000000E+00  0.82369479875E+03  0.91186458853E+03  0.39118270197E+03 0.  0.
      99925    2    3    3    0    0 -0.11714819021E+02 -0.17034607047E+02  0.57904464859E+03  0.63631310714E+03  0.26300998162E+03 0.  0.
         25    1    4    4    0    0 -0.90060539385E+01 -0.18590992724E+02  0.38576200751E+03  0.40606227177E+03  0.12509000000E+03 0.  0.
         25    1    3    3    0    0  0.11714819021E+02  0.17034607047E+02  0.24465015016E+03  0.27555148139E+03  0.12509000000E+03 0.  0.
         25    1    4    4    0    0 -0.27087650823E+01  0.15563856770E+01  0.19328264109E+03  0.23025083537E+03  0.12509000000E+03 0.  0.
<mgrwt>
<rscale>  2 0.39118270E+03</rscale>
<asrwt>0</asrwt>
<pdfrwt beam="1">  1       21 0.12761465E+00 0.39118270E+03</pdfrwt>
<pdfrwt beam="2">  1       21 0.64830733E-02 0.39118270E+03</pdfrwt>
<totfact> 0.72854165E+04</totfact>
</mgrwt>
</event>
<event>
 6    0  0.4709932E-002  0.4506839E+03  0.7546771E-02  0.1027518E+00
         21   -1    0    0  502  501  0.00000000000E+00  0.00000000000E+00  0.19201872515E+03  0.19201872515E+03  0.00000000000E+00 0.  1.
         21   -1    0    0  501  502 -0.00000000000E+00 -0.00000000000E+00 -0.26444818028E+03  0.26444818028E+03  0.00000000000E+00 0.  1.
      99926    2    1    2    0    0  0.71054273576E-14 -0.71054273576E-14 -0.72429455125E+02  0.45646690543E+03  0.45068393557E+03 0.  0.
         25    1    3    3    0    0  0.27321173043E+02  0.20480897362E+02  0.44580117736E+01  0.12974319104E+03  0.12509000000E+03 0.  0.
         25    1    3    3    0    0 -0.52432529977E+02  0.45195421694E+02 -0.10887707019E+03  0.17970398119E+03  0.12509000000E+03 0.  0.
         25    1    3    3    0    0  0.25111356934E+02 -0.65676319056E+02  0.31989603289E+02  0.14701973320E+03  0.12509000000E+03 0.  0.
<mgrwt>
<rscale>  2 0.45068394E+03</rscale>
<asrwt>0</asrwt>
<pdfrwt beam="1">  1       21 0.28238048E-01 0.45068394E+03</pdfrwt>
<pdfrwt beam="2">  1       21 0.38889438E-01 0.45068394E+03</pdfrwt>
<totfact> 0.70845976E+04</totfact>
</mgrwt>
</event>
<event>
 7    0  0.4709932E-002  0.4539135E+03  0.7546771E-02  0.1026561E+00
         21   -1    0    0  502  501  0.00000000000E+00  0.00000000000E+00  0.42230760703E+03  0.42230760703E+03  0.00000000000E+00 0. -1.
         21   -1    0    0  501  502 -0.00000000000E+00 -0.00000000000E+00 -0.12197120948E+03  0.12197120948E+03  0.00000000000E+00 0. -1.
      99926    2    1    2    0    0  0.00000000000E+00  0.00000000000E+00  0.30033639756E+03  0.54427881651E+03  0.45391351423E+03 0.  0.
      99925    2    3    3    0    0  0.71970451926E+02  0.22735124572E+02  0.28859443383E+03  0.39771137929E+03  0.26304174981E+03 0.  0.
         25    1    4    4    0    0  0.47531589287E+02  0.36391989584E+01  0.91235491980E+02  0.16199974952E+03  0.12509000000E+03 0.  0.
         25    1    3    3    0    0 -0.71970451926E+02 -0.22735124572E+02  0.11741963731E+02  0.14656743722E+03  0.12509000000E+03 0.  0.
         25    1    4    4    0    0  0.24438862639E+02  0.19095925614E+02  0.19735894185E+03  0.23571162977E+03  0.12509000000E+03 0.  0.
<mgrwt>
<rscale>  2 0.45391351E+03</rscale>
<asrwt>0</asrwt>
<pdfrwt beam="1">  1       21 0.62104059E-01 0.45391351E+03</pdfrwt>
<pdfrwt beam="2">  1       21 0.17936943E-01 0.45391351E+03</pdfrwt>
<totfact> 0.62784206E+04</totfact>
</mgrwt>
</event>
<event>
 7    0  0.4709932E-002  0.4450780E+03  0.7546771E-02  0.1029200E+00
         21   -1    0    0  502  501  0.00000000000E+00  0.00000000000E+00  0.58841831797E+03  0.58841831797E+03  0.00000000000E+00 0. -1.
         21   -1    0    0  501  502 -0.00000000000E+00 -0.00000000000E+00 -0.84163928139E+02  0.84163928139E+02  0.00000000000E+00 0. -1.
      99926    2    1    2    0    0 -0.35527136788E-14  0.00000000000E+00  0.50425438983E+03  0.67258224610E+03  0.44507795735E+03 0.  0.
      99925    2    3    3    0    0 -0.30361232968E+02  0.98284572604E+02  0.30138170549E+03  0.41299315576E+03  0.26296530687E+03 0.  0.
         25    1    3    3    0    0  0.30361232968E+02 -0.98284572604E+02  0.20287268433E+03  0.25958909035E+03  0.12509000000E+03 0.  0.
         25    1    4    4    0    0  0.23867501888E+02  0.58912012051E+02  0.15647965827E+03  0.21017534195E+03  0.12509000000E+03 0.  0.
         25    1    4    4    0    0 -0.54228734856E+02  0.39372560552E+02  0.14490204722E+03  0.20281781381E+03  0.12509000000E+03 0.  0.
<mgrwt>
<rscale>  2 0.44507796E+03</rscale>
<asrwt>0</asrwt>
<pdfrwt beam="1">  1       21 0.86532103E-01 0.44507796E+03</pdfrwt>
<pdfrwt beam="2">  1       21 0.12377049E-01 0.44507796E+03</pdfrwt>
<totfact> 0.58886178E+04</totfact>
</mgrwt>
</event>
<event>
 7    0  0.4709932E-002  0.4550735E+03  0.7546771E-02  0.1026220E+00
         21   -1    0    0  502  501  0.00000000000E+00  0.00000000000E+00  0.92834876137E+02  0.92834876137E+02  0.00000000000E+00 0.  1.
         21   -1    0    0  501  502 -0.00000000000E+00 -0.00000000000E+00 -0.55768885360E+03  0.55768885360E+03  0.00000000000E+00 0.  1.
      99926    2    1    2    0    0 -0.71054273576E-14  0.00000000000E+00 -0.46485397746E+03  0.65052372974E+03  0.45507351339E+03 0.  0.
      99925    2    3    3    0    0  0.43282423111E+02  0.55584191682E+02 -0.41917575764E+03  0.49986856593E+03  0.26305379088E+03 0.  0.
         25    1    4    4    0    0  0.23705532327E+02 -0.13058239358E+02 -0.20929007591E+03  0.24532083860E+03  0.12509000000E+03 0.  0.
         25    1    3    3    0    0 -0.43282423111E+02 -0.55584191682E+02 -0.45678219819E+02  0.15065516380E+03  0.12509000000E+03 0.  0.
         25    1    4    4    0    0  0.19576890783E+02  0.68642431039E+02 -0.20988568173E+03  0.25454772733E+03  0.12509000000E+03 0.  0.
<mgrwt>
<rscale>  2 0.45507351E+03</rscale>
<asrwt>0</asrwt>
<pdfrwt beam="1">  1       21 0.13652188E-01 0.45507351E+03</pdfrwt>
<pdfrwt beam="2">  1       21 0.82013066E-01 0.45507351E+03</pdfrwt>
<totfact> 0.55639055E+04</totfact>
</mgrwt>
</event>
<event>
 7    0  0.4709932E-002  0.4464573E+03  0.7546771E-02  0.1028784E+00
         21   -1    0    0  502  501  0.00000000000E+00  0.00000000000E+00  0.12484025613E+04  0.12484025613E+04  0.00000000000E+00 0. -1.
         21   -1    0    0  501  502 -0.00000000000E+00 -0.00000000000E+00 -0.39915841513E+02  0.39915841513E+02  0.00000000000E+00 0. -1.
      99926    2    1    2    0    0  0.00000000000E+00  0.00000000000E+00  0.12084867197E+04  0.12883184028E+04  0.44645733852E+03 0.  0.
      99925    2    3    3    0    0 -0.96802976460E+02  0.34332901464E+02  0.82884323674E+03  0.87561239765E+03  0.26299504834E+03 0.  0.
         25    1    3    3    0    0  0.96802976460E+02 -0.34332901464E+02  0.37964348300E+03  0.41270600512E+03  0.12509000000E+03 0.  0.
         25    1    4    4    0    0 -0.38920744448E+02  0.49388067998E+02  0.34590562951E+03  0.37316513534E+03  0.12509000000E+03 0.  0.
         25    1    4    4    0    0 -0.57882232012E+02 -0.15055166535E+02  0.48293760724E+03  0.50244726231E+03  0.12509000000E+03 0.  0.
<mgrwt>
<rscale>  2 0.44645734E+03</rscale>
<asrwt>0</asrwt>
<pdfrwt beam="1">  1       21 0.18358859E+00 0.44645734E+03</pdfrwt>
<pdfrwt beam="2">  1       21 0.58699775E-02 0.44645734E+03</pdfrwt>
<totfact> 0.31497239E+04</totfact>
</mgrwt>
</event>
<event>
 7    0  0.4709932E-002  0.4542497E+03  0.7546771E-02  0.1026462E+00
         21   -1    0    0  502  501  0.00000000000E+00  0.00000000000E+00  0.13453816295E+04  0.13453816295E+04  0.00000000000E+00 0.  1.
         21   -1    0    0  501  502 -0.00000000000E+00 -0.00000000000E+00 -0.38342805825E+02  0.38342805825E+02  0.00000000000E+00 0.  1.
      99926    2    1    2    0    0  0.00000000000E+00 -0.71054273576E-14  0.13070388237E+04  0.13837244353E+04  0.45424974004E+03 0.  0.
      99925    2    3    3    0    0 -0.87555760053E+02 -0.36751791866E+02  0.64308470079E+03  0.70144935098E+03  0.26354611414E+03 0.  0.
         25    1    3    3    0    0  0.87555760053E+02  0.36751791866E+02  0.66395412288E+03  0.68227508434E+03  0.12509000000E+03 0.  0.
         25    1    4    4    0    0 -0.42755924620E+01 -0.34189869966E+02  0.30650062478E+03  0.33283234366E+03  0.12509000000E+03 0.  0.
         25    1    4    4    0    0 -0.83280167591E+02 -0.25619218993E+01  0.33658407602E+03  0.36861700732E+03  0.12509000000E+03 0.  0.
<mgrwt>
<rscale>  2 0.45424974E+03</rscale>
<asrwt>0</asrwt>
<pdfrwt beam="1">  1       21 0.19785021E+00 0.45424974E+03</pdfrwt>
<pdfrwt beam="2">  1       21 0.56386488E-02 0.45424974E+03</pdfrwt>
<totfact> 0.26925628E+04</totfact>
</mgrwt>
</event>
<event>
 7    0  0.4709932E-002  0.4592967E+03  0.7546771E-02  0.1024985E+00
         21   -1    0    0  502  501  0.00000000000E+00  0.00000000000E+00  0.58588473722E+02  0.58588473722E+02  0.00000000000E+00 0. -1.
         21   -1    0    0  501  502 -0.00000000000E+00 -0.00000000000E+00 -0.90014900681E+03  0.90014900681E+03  0.00000000000E+00 0. -1.
      99926    2    1    2    0    0  0.14210854715E-13 -0.55511151231E-16 -0.84156053308E+03  0.95873748053E+03  0.45929666418E+03 0.  0.
      99925    2    3    3    0    0 -0.10006092208E+03  0.38464314604E+00 -0.40029186312E+03  0.48929325245E+03  0.26298664442E+03 0.  0.
         25    1    3    3    0    0  0.10006092208E+03 -0.38464314604E+00 -0.44126866997E+03  0.46944422807E+03  0.12509000000E+03 0.  0.
         25    1    4    4    0    0 -0.68585720020E+02  0.36477763981E+02 -0.21851283166E+03  0.26349571905E+03  0.12509000000E+03 0.  0.
         25    1    4    4    0    0 -0.31475202056E+02 -0.36093120835E+02 -0.18177903145E+03  0.22579753341E+03  0.12509000000E+03 0.  0.
<mgrwt>
<rscale>  2 0.45929666E+03</rscale>
<asrwt>0</asrwt>
<pdfrwt beam="1">  1       21 0.86159515E-02 0.45929666E+03</pdfrwt>
<pdfrwt beam="2">  1       21 0.13237486E+00 0.45929666E+03</pdfrwt>
<totfact> 0.39447004E+04</totfact>
</mgrwt>
</event>
<event>
 7    0  0.4709932E-002  0.4699965E+03  0.7546771E-02  0.1021921E+00
         21   -1    0    0  502  501  0.00000000000E+00  0.00000000000E+00  0.47493103827E+02  0.47493103827E+02  0.00000000000E+00 0.  1.
         21   -1    0    0  501  502 -0.00000000000E+00 -0.00000000000E+00 -0.11627829218E+04  0.11627829218E+04  0.00000000000E+00 0.  1.
      99926    2    1    2    0    0 -0.71054273576E-14  0.00000000000E+00 -0.11152898179E+04  0.12102760256E+04  0.46999646821E+03 0.  0.
      99925    2    3    3    0    0  0.43118892538E+02 -0.11895291769E+03 -0.71989250810E+03  0.77669145916E+03  0.26266968610E+03 0.  0.
         25    1    4    4    0    0  0.46955663429E+02 -0.78278878512E+02 -0.31601727923E+03  0.35191880601E+03  0.12509000000E+03 0.  0.
         25    1    4    4    0    0 -0.38367708915E+01 -0.40674039176E+02 -0.40387522887E+03  0.42477265316E+03  0.12509000000E+03 0.  0.
         25    1    3    3    0    0 -0.43118892538E+02  0.11895291769E+03 -0.39539730985E+03  0.43358456644E+03  0.12509000000E+03 0.  0.
<mgrwt>
<rscale>  2 0.46999647E+03</rscale>
<asrwt>0</asrwt>
<pdfrwt beam="1">  1       21 0.69842810E-02 0.46999647E+03</pdfrwt>
<pdfrwt beam="2">  1       21 0.17099746E+00 0.46999647E+03</pdfrwt>
<totfact> 0.28370234E+04</totfact>
</mgrwt>
</event>
<event>
 7    0  0.4709932E-002  0.4547480E+03  0.7546771E-02  0.1026316E+00
         21   -1    0    0  502  501  0.00000000000E+00  0.00000000000E+00  0.98519526790E+02  0.98519526790E+02  0.00000000000E+00 0.  1.
         21   -1    0    0  501  502 -0.00000000000E+00 -0.00000000000E+00 -0.52475819743E+03  0.52475819743E+03  0.00000000000E+00 0.  1.
      99926    2    1    2    0    0  0.00000000000E+00  0.00000000000E+00 -0.42623867064E+03  0.62327772422E+03  0.45474797104E+03 0.  0.
      99925    2    3    3    0    0  0.10084133586E+03  0.18299277112E+02 -0.20308237750E+03  0.34768730743E+03  0.26294519036E+03 0.  0.
         25    1    4    4    0    0  0.47616788569E+02  0.12421648297E+02 -0.51391930730E+02  0.14391071727E+03  0.12509000000E+03 0.  0.
         25    1    4    4    0    0  0.53224547294E+02  0.58776288156E+01 -0.15169044677E+03  0.20377659016E+03  0.12509000000E+03 0.  0.
         25    1    3    3    0    0 -0.10084133586E+03 -0.18299277112E+02 -0.22315629314E+03  0.27559041679E+03  0.12509000000E+03 0.  0.
<mgrwt>
<rscale>  2 0.45474797E+03</rscale>
<asrwt>0</asrwt>
<pdfrwt beam="1">  1       21 0.14488166E-01 0.45474797E+03</pdfrwt>
<pdfrwt beam="2">  1       21 0.77170322E-01 0.45474797E+03</pdfrwt>
<totfact> 0.57381964E+04</totfact>
</mgrwt>
</event>
<event>
 7    0  0.4709932E-002  0.4545721E+03  0.7546771E-02  0.1026367E+00
         21   -1    0    0  502  501  0.00000000000E+00  0.00000000000E+00  0.38819989188E+02  0.38819989188E+02  0.00000000000E+00 0.  1.
         21   -1    0    0  501  502 -0.00000000000E+00 -0.00000000000E+00 -0.13307306034E+04  0.13307306034E+04  0.00000000000E+00 0.  1.
      99926    2    1    2    0    0  0.71054273576E-14 -0.71054273576E-14 -0.12919106143E+04  0.13695505926E+04  0.45457209610E+03 0.  0.
      99925    2    3    3    0    0  0.48287120594E+02 -0.52220471807E+02 -0.54977346982E+03  0.61359181536E+03  0.26303122260E+03 0.  0.
         25    1    4    4    0    0  0.19820427407E+02 -0.55404313680E+02 -0.34818335260E+03  0.37462199942E+03  0.12509000000E+03 0.  0.
         25    1    4    4    0    0  0.28466693187E+02  0.31838418727E+01 -0.20159011722E+03  0.23896981594E+03  0.12509000000E+03 0.  0.
         25    1    3    3    0    0 -0.48287120594E+02  0.52220471807E+02 -0.74213714443E+03  0.75595877727E+03  0.12509000000E+03 0.  0.
<mgrwt>
<rscale>  2 0.45457210E+03</rscale>
<asrwt>0</asrwt>
<pdfrwt beam="1">  1       21 0.57088203E-02 0.45457210E+03</pdfrwt>
<pdfrwt beam="2">  1       21 0.19569573E+00 0.45457210E+03</pdfrwt>
<totfact> 0.27245346E+04</totfact>
</mgrwt>
</event>
<event>
 7    0  0.4709932E-002  0.4548099E+03  0.7546771E-02  0.1026297E+00
         21   -1    0    0  502  501  0.00000000000E+00  0.00000000000E+00  0.13501329406E+03  0.13501329406E+03  0.00000000000E+00 0. -1.
         21   -1    0    0  501  502 -0.00000000000E+00 -0.00000000000E+00 -0.38302169675E+03  0.38302169675E+03  0.00000000000E+00 0. -1.
      99926    2    1    2    0    0 -0.14210854715E-13  0.00000000000E+00 -0.24800840269E+03  0.51803499081E+03  0.45480994261E+03 0.  0.
      99925    2    3    3    0    0  0.89378467776E+02  0.58560087712E+02 -0.11437537598E+03  0.30608431659E+03  0.26303628620E+03 0.  0.
         25    1    3    3    0    0 -0.89378467776E+02 -0.58560087712E+02 -0.13363302671E+03  0.21195067422E+03  0.12509000000E+03 0.  0.
         25    1    4    4    0    0  0.20325497741E+02  0.61327060749E+02 -0.50852347681E+02  0.14969169517E+03  0.12509000000E+03 0.  0.
         25    1    4    4    0    0  0.69052970035E+02 -0.27669730366E+01 -0.63523028303E+02  0.15639262142E+03  0.12509000000E+03 0.  0.
<mgrwt>
<rscale>  2 0.45480994E+03</rscale>
<asrwt>0</asrwt>
<pdfrwt beam="1">  1       21 0.19854897E-01 0.45480994E+03</pdfrwt>
<pdfrwt beam="2">  1       21 0.56326719E-01 0.45480994E+03</pdfrwt>
<totfact> 0.64117983E+04</totfact>
</mgrwt>
</event>
<event>
 7    0  0.4709932E-002  0.4001258E+03  0.7546771E-02  0.1043736E+00
         21   -1    0    0  502  501  0.00000000000E+00  0.00000000000E+00  0.58520692018E+03  0.58520692018E+03  0.00000000000E+00 0. -1.
         21   -1    0    0  501  502 -0.00000000000E+00 -0.00000000000E+00 -0.68394883937E+02  0.68394883937E+02  0.00000000000E+00 0. -1.
      99926    2    1    2    0    0  0.00000000000E+00  0.22204460493E-15  0.51681203624E+03  0.65360180412E+03  0.40012577715E+03 0.  0.
      99925    2    3    3    0    0 -0.30450022152E+02 -0.74917858442E+00  0.40046505752E+03  0.48007401765E+03  0.26300386882E+03 0.  0.
         25    1    4    4    0    0 -0.24635516392E+02  0.14451439736E+02  0.13548141695E+03  0.18659709327E+03  0.12509000000E+03 0.  0.
         25    1    3    3    0    0  0.30450022152E+02  0.74917858442E+00  0.11634697872E+03  0.17352778646E+03  0.12509000000E+03 0.  0.
         25    1    4    4    0    0 -0.58145057593E+01 -0.15200618320E+02  0.26498364057E+03  0.29347692438E+03  0.12509000000E+03 0.  0.
<mgrwt>
<rscale>  2 0.40012578E+03</rscale>
<asrwt>0</asrwt>
<pdfrwt beam="1">  1       21 0.86059838E-01 0.40012578E+03</pdfrwt>
<pdfrwt beam="2">  1       21 0.10058071E-01 0.40012578E+03</pdfrwt>
<totfact> 0.87706016E+04</totfact>
</mgrwt>
</event>
<event>
 7    0  0.4709932E-002  0.4771870E+03  0.7546771E-02  0.1019911E+00
         21   -1    0    0  502  501  0.00000000000E+00  0.00000000000E+00  0.12286145916E+04  0.12286145916E+04  0.00000000000E+00 0.  1.
         21   -1    0    0  501  502 -0.00000000000E+00 -0.00000000000E+00 -0.46334188602E+02  0.46334188602E+02  0.00000000000E+00 0.  1.
      99926    2    1    2    0    0  0.00000000000E+00  0.00000000000E+00  0.11822804030E+04  0.12749487802E+04  0.47718700823E+03 0.  0.
      99925    2    3    3    0    0  0.33268604349E+02 -0.12813891154E+03  0.69783400219E+03  0.75739472115E+03  0.26296024096E+03 0.  0.
         25    1    3    3    0    0 -0.33268604349E+02  0.12813891154E+03  0.48444640078E+03  0.51755405903E+03  0.12509000000E+03 0.  0.
         25    1    4    4    0    0  0.68969947183E+01 -0.23250315404E+02  0.26480538045E+03  0.29386653998E+03  0.12509000000E+03 0.  0.
         25    1    4    4    0    0  0.26371609631E+02 -0.10488859614E+03  0.43302862174E+03  0.46352818117E+03  0.12509000000E+03 0.  0.
<mgrwt>
<rscale>  2 0.47718701E+03</rscale>
<asrwt>0</asrwt>
<pdfrwt beam="1">  1       21 0.18067860E+00 0.47718701E+03</pdfrwt>
<pdfrwt beam="2">  1       21 0.68138521E-02 0.47718701E+03</pdfrwt>
<totfact> 0.25208562E+04</totfact>
</mgrwt>
</event>
<event>
 7    0  0.4709932E-002  0.4527171E+03  0.7546771E-02  0.1026915E+00
         21   -1    0    0  502  501  0.00000000000E+00  0.00000000000E+00  0.13593892126E+03  0.13593892126E+03  0.00000000000E+00 0. -1.
         21   -1    0    0  501  502 -0.00000000000E+00 -0.00000000000E+00 -0.37692065525E+03  0.37692065525E+03  0.00000000000E+00 0. -1.
      99926    2    1    2    0    0 -0.14210854715E-13 -0.71054273576E-14 -0.24098173398E+03  0.51285957651E+03  0.45271707401E+03 0.  0.
      99925    2    3    3    0    0 -0.10370929837E+03 -0.37862839830E+02 -0.13780047370E+03  0.31668849357E+03  0.26289430994E+03 0.  0.
         25    1    4    4    0    0 -0.34198495415E+02  0.12196475724E+02 -0.39937386145E+02  0.13623800505E+03  0.12509000000E+03 0.  0.
         25    1    3    3    0    0  0.10370929837E+03  0.37862839830E+02 -0.10318126029E+03  0.19617108294E+03  0.12509000000E+03 0.  0.
         25    1    4    4    0    0 -0.69510802950E+02 -0.50059315555E+02 -0.97863087554E+02  0.18045048852E+03  0.12509000000E+03 0.  0.
<mgrwt>
<rscale>  2 0.45271707E+03</rscale>
<asrwt>0</asrwt>
<pdfrwt beam="1">  1       21 0.19991018E-01 0.45271707E+03</pdfrwt>
<pdfrwt beam="2">  1       21 0.55429508E-01 0.45271707E+03</pdfrwt>
<totfact> 0.65555920E+04</totfact>
</mgrwt>
</event>
<event>
 7    0  0.4709932E-002  0.4556997E+03  0.7546771E-02  0.1026036E+00
         21   -1    0    0  502  501  0.00000000000E+00  0.00000000000E+00  0.21168585440E+03  0.21168585440E+03  0.00000000000E+00 0.  1.
         21   -1    0    0  501  502 -0.00000000000E+00 -0.00000000000E+00 -0.24524809676E+03  0.24524809676E+03  0.00000000000E+00 0.  1.
      99926    2    1    2    0    0  0.00000000000E+00  0.00000000000E+00 -0.33562242359E+02  0.45693395116E+03  0.45569969455E+03 0.  0.
      99925    2    3    3    0    0  0.38873043739E+02  0.73074379042E+02 -0.99360669712E+02  0.29314164504E+03  0.26307508999E+03 0.  0.
         25    1    4    4    0    0  0.49558941953E+02  0.16689463880E+02 -0.69323989811E+02  0.15227590287E+03  0.12509000000E+03 0.  0.
         25    1    3    3    0    0 -0.38873043739E+02 -0.73074379042E+02  0.65798427352E+02  0.16379230612E+03  0.12509000000E+03 0.  0.
         25    1    4    4    0    0 -0.10685898214E+02  0.56384915163E+02 -0.30036679901E+02  0.14086574217E+03  0.12509000000E+03 0.  0.
<mgrwt>
<rscale>  2 0.45569969E+03</rscale>
<asrwt>0</asrwt>
<pdfrwt beam="1">  1       21 0.31130273E-01 0.45569969E+03</pdfrwt>
<pdfrwt beam="2">  1       21 0.36065897E-01 0.45569969E+03</pdfrwt>
<totfact> 0.68023831E+04</totfact>
</mgrwt>
</event>
<event>
 7    0  0.4709932E-002  0.4438317E+03  0.7546771E-02  0.1029578E+00
         21   -1    0    0  502  501  0.00000000000E+00  0.00000000000E+00  0.15610307265E+03  0.15610307265E+03  0.00000000000E+00 0. -1.
         21   -1    0    0  501  502 -0.00000000000E+00 -0.00000000000E+00 -0.31547517157E+03  0.31547517157E+03  0.00000000000E+00 0. -1.
      99926    2    1    2    0    0  0.71054273576E-14  0.00000000000E+00 -0.15937209892E+03  0.47157824423E+03  0.44383169615E+03 0.  0.
      99925    2    3    3    0    0 -0.39967753978E+02 -0.66826945192E+02 -0.17187818121E+03  0.32370271496E+03  0.26301725520E+03 0.  0.
         25    1    4    4    0    0 -0.50463520255E+02 -0.44168165520E+02 -0.12050126398E+03  0.18618661725E+03  0.12509000000E+03 0.  0.
         25    1    4    4    0    0  0.10495766277E+02 -0.22658779672E+02 -0.51376917231E+02  0.13751609771E+03  0.12509000000E+03 0.  0.
         25    1    3    3    0    0  0.39967753978E+02  0.66826945192E+02  0.12506082283E+02  0.14787552927E+03  0.12509000000E+03 0.  0.
<mgrwt>
<rscale>  2 0.44383170E+03</rscale>
<asrwt>0</asrwt>
<pdfrwt beam="1">  1       21 0.22956334E-01 0.44383170E+03</pdfrwt>
<pdfrwt beam="2">  1       21 0.46393407E-01 0.44383170E+03</pdfrwt>
<totfact> 0.73631953E+04</totfact>
</mgrwt>
</event>
<event>
 7    0  0.4709932E-002  0.4567530E+03  0.7546771E-02  0.1025727E+00
         21   -1    0    0  502  501  0.00000000000E+00  0.00000000000E+00  0.15468805896E+03  0.15468805896E+03  0.00000000000E+00 0. -1.
         21   -1    0    0  501  502 -0.00000000000E+00 -0.00000000000E+00 -0.33716781163E+03  0.33716781163E+03  0.00000000000E+00 0. -1.
      99926    2    1    2    0    0  0.00000000000E+00  0.00000000000E+00 -0.18247975268E+03  0.49185587059E+03  0.45675303753E+03 0.  0.
      99925    2    3    3    0    0 -0.22090671378E+02  0.11268388997E+03 -0.11432734561E+03  0.30888615858E+03  0.26297197605E+03 0.  0.
         25    1    4    4    0    0 -0.98801042552E+01  0.84299318876E+02 -0.27861504292E+02  0.15371324974E+03  0.12509000000E+03 0.  0.
         25    1    3    3    0    0  0.22090671378E+02 -0.11268388997E+03 -0.68152407072E+02  0.18296971201E+03  0.12509000000E+03 0.  0.
         25    1    4    4    0    0 -0.12210567123E+02  0.28384571097E+02 -0.86465841314E+02  0.15517290885E+03  0.12509000000E+03 0.  0.
<mgrwt>
<rscale>  2 0.45675304E+03</rscale>
<asrwt>0</asrwt>
<pdfrwt beam="1">  1       21 0.22748244E-01 0.45675304E+03</pdfrwt>
<pdfrwt beam="2">  1       21 0.49583502E-01 0.45675304E+03</pdfrwt>
<totfact> 0.64938231E+04</totfact>
</mgrwt>
</event>
<event>
 7    0  0.4709932E-002  0.4596807E+03  0.7546771E-02  0.1024874E+00
         21   -1    0    0  502  501  0.00000000000E+00  0.00000000000E+00  0.19953670628E+04  0.19953670628E+04  0.00000000000E+00 0. -1.
         21   -1    0    0  501  502 -0.00000000000E+00 -0.00000000000E+00 -0.26474624236E+02  0.26474624236E+02  0.00000000000E+00 0. -1.
      99926    2    1    2    0    0  0.00000000000E+00  0.00000000000E+00  0.19688924385E+04  0.20218416870E+04  0.45968072920E+03 0.  0.
      99925    2    3    3    0    0 -0.59670179573E+02 -0.99591929700E+02  0.11546238830E+04  0.11898802267E+04  0.26302007513E+03 0.  0.
         25    1    4    4    0    0 -0.17564012246E+01 -0.78457718774E+02  0.62427553821E+03  0.64150304309E+03  0.12509000000E+03 0.  0.
         25    1    3    3    0    0  0.59670179573E+02  0.99591929700E+02  0.81426855559E+03  0.83196146035E+03  0.12509000000E+03 0.  0.
         25    1    4    4    0    0 -0.57913778349E+02 -0.21134210926E+02  0.53034834474E+03  0.54837718357E+03  0.12509000000E+03 0.  0.
<mgrwt>
<rscale>  2 0.45968073E+03</rscale>
<asrwt>0</asrwt>
<pdfrwt beam="1">  1       21 0.29343623E+00 0.45968073E+03</pdfrwt>
<pdfrwt beam="2">  1       21 0.38933284E-02 0.45968073E+03</pdfrwt>
<totfact> 0.12881890E+04</totfact>
</mgrwt>
</event>
<event>
 7    0  0.4709932E-002  0.4319103E+03  0.7546771E-02  0.1033258E+00
         21   -1    0    0  502  501  0.00000000000E+00  0.00000000000E+00  0.32914722886E+03  0.32914722886E+03  0.00000000000E+00 0. -1.
         21   -1    0    0  501  502 -0.00000000000E+00 -0.00000000000E+00 -0.14168924194E+03  0.14168924194E+03  0.00000000000E+00 0. -1.
      99926    2    1    2    0    0  0.00000000000E+00  0.00000000000E+00  0.18745798692E+03  0.47083647079E+03  0.43191027467E+03 0.  0.
      99925    2    3    3    0    0 -0.65222708186E+02  0.55593224652E+02  0.91411749619E+02  0.29134553484E+03  0.26302377157E+03 0.  0.
         25    1    4    4    0    0  0.30756819686E+01  0.16791664564E+02  0.22043427337E+02  0.12815943433E+03  0.12509000000E+03 0.  0.
         25    1    3    3    0    0  0.65222708186E+02 -0.55593224652E+02  0.96046237302E+02  0.17949093596E+03  0.12509000000E+03 0.  0.
         25    1    4    4    0    0 -0.68298390155E+02  0.38801560088E+02  0.69368322282E+02  0.16318610051E+03  0.12509000000E+03 0.  0.
<mgrwt>
<rscale>  2 0.43191027E+03</rscale>
<asrwt>0</asrwt>
<pdfrwt beam="1">  1       21 0.48404004E-01 0.43191027E+03</pdfrwt>
<pdfrwt beam="2">  1       21 0.20836653E-01 0.43191027E+03</pdfrwt>
<totfact> 0.81279920E+04</totfact>
</mgrwt>
</event>
<event>
 7    0  0.4709932E-002  0.4580084E+03  0.7546771E-02  0.1025360E+00
         21   -1    0    0  502  501  0.00000000000E+00  0.00000000000E+00  0.16441168478E+03  0.16441168478E+03  0.00000000000E+00 0. -1.
         21   -1    0    0  501  502 -0.00000000000E+00 -0.00000000000E+00 -0.31897325329E+03  0.31897325329E+03  0.00000000000E+00 0. -1.
      99926    2    1    2    0    0  0.00000000000E+00 -0.88817841970E-15 -0.15456156851E+03  0.48338493807E+03  0.45800842775E+03 0.  0.
      99925    2    3    3    0    0 -0.58780100588E+02 -0.21050258271E+01  0.85492833869E+01  0.26958084674E+03  0.26294716451E+03 0.  0.
         25    1    4    4    0    0 -0.63155860729E+02  0.20065529931E+02 -0.56778951478E+01  0.14167227968E+03  0.12509000000E+03 0.  0.
         25    1    3    3    0    0  0.58780100588E+02  0.21050258271E+01 -0.16311085190E+03  0.21380409132E+03  0.12509000000E+03 0.  0.
         25    1    4    4    0    0  0.43757601415E+01 -0.22170555758E+02  0.14227178535E+02  0.12790856706E+03  0.12509000000E+03 0.  0.
<mgrwt>
<rscale>  2 0.45800843E+03</rscale>
<asrwt>0</asrwt>
<pdfrwt beam="1">  1       21 0.24178189E-01 0.45800843E+03</pdfrwt>
<pdfrwt beam="2">  1       21 0.46907831E-01 0.45800843E+03</pdfrwt>
<totfact> 0.64890998E+04</totfact>
</mgrwt>
</event>
<event>
 7    0  0.4709932E-002  0.4563592E+03  0.7546771E-02  0.1025842E+00
         21   -1    0    0  502  501  0.00000000000E+00  0.00000000000E+00  0.42959027401E+03  0.42959027401E+03  0.00000000000E+00 0.  1.
         21   -1    0    0  501  502 -0.00000000000E+00 -0.00000000000E+00 -0.12119903019E+03  0.12119903019E+03  0.00000000000E+00 0.  1.
      99926    2    1    2    0    0 -0.14210854715E-13  0.35527136788E-14  0.30839124382E+03  0.55078930421E+03  0.45635917692E+03 0.  0.
      99925    2    3    3    0    0 -0.10042959454E+03  0.17119924108E+02  0.25648578628E+03  0.38131694692E+03  0.26313202045E+03 0.  0.
         25    1    4    4    0    0 -0.90493571676E+02 -0.37071972603E+01  0.12897395261E+03  0.20120789840E+03  0.12509000000E+03 0.  0.
         25    1    4    4    0    0 -0.99360228654E+01  0.20827121368E+02  0.12751183366E+03  0.18010904852E+03  0.12509000000E+03 0.  0.
         25    1    3    3    0    0  0.10042959454E+03 -0.17119924108E+02  0.51905457547E+02  0.16947235729E+03  0.12509000000E+03 0.  0.
<mgrwt>
<rscale>  2 0.45635918E+03</rscale>
<asrwt>0</asrwt>
<pdfrwt beam="1">  1       21 0.63175040E-01 0.45635918E+03</pdfrwt>
<pdfrwt beam="2">  1       21 0.17823387E-01 0.45635918E+03</pdfrwt>
<totfact> 0.61154106E+04</totfact>
</mgrwt>
</event>
<event>
 7    0  0.4709932E-002  0.4515493E+03  0.7546771E-02  0.1027261E+00
         21   -1    0    0  502  501  0.00000000000E+00  0.00000000000E+00  0.82936788860E+02  0.82936788860E+02  0.00000000000E+00 0. -1.
         21   -1    0    0  501  502 -0.00000000000E+00 -0.00000000000E+00 -0.61461509435E+03  0.61461509435E+03  0.00000000000E+00 0. -1.
      99926    2    1    2    0    0  0.00000000000E+00  0.00000000000E+00 -0.53167830549E+03  0.69755188321E+03  0.45154934309E+03 0.  0.
      99925    2    3    3    0    0  0.84548441546E+02  0.37220990787E+02 -0.24377238267E+03  0.37033457068E+03  0.26303778924E+03 0.  0.
         25    1    4    4    0    0  0.62978088441E+02  0.92193187572E+01 -0.17148619487E+03  0.22159931993E+03  0.12509000000E+03 0.  0.
         25    1    4    4    0    0  0.21570353105E+02  0.28001672030E+02 -0.72286187795E+02  0.14873525075E+03  0.12509000000E+03 0.  0.
         25    1    3    3    0    0 -0.84548441546E+02 -0.37220990787E+02 -0.28790592282E+03  0.32721731253E+03  0.12509000000E+03 0.  0.
<mgrwt>
<rscale>  2 0.45154934E+03</rscale>
<asrwt>0</asrwt>
<pdfrwt beam="1">  1       21 0.12196587E-01 0.45154934E+03</pdfrwt>
<pdfrwt beam="2">  1       21 0.90384573E-01 0.45154934E+03</pdfrwt>
<totfact> 0.54501190E+04</totfact>
</mgrwt>
</event>
<event>
 7    0  0.4709932E-002  0.4620959E+03  0.7546771E-02  0.1024175E+00
         21   -1    0    0  502  501  0.00000000000E+00  0.00000000000E+00  0.32237648104E+03  0.32237648104E+03  0.00000000000E+00 0. -1.
         21   -1    0    0  501  502 -0.00000000000E+00 -0.00000000000E+00 -0.16559260006E+03  0.16559260006E+03  0.00000000000E+00 0. -1.
      99926    2    1    2    0    0  0.00000000000E+00  0.00000000000E+00  0.15678388098E+03  0.48796908110E+03  0.46209591946E+03 0.  0.
      99925    2    3    3    0    0  0.97213646894E+02  0.99176902424E+01  0.17127354114E+03  0.32857550509E+03  0.26282766774E+03 0.  0.
         25    1    3    3    0    0 -0.97213646894E+02 -0.99176902424E+01 -0.14489660166E+02  0.15939357601E+03  0.12509000000E+03 0.  0.
         25    1    4    4    0    0  0.83811056584E+02  0.19890092456E+02  0.11443913586E+03  0.19016764420E+03  0.12509000000E+03 0.  0.
         25    1    4    4    0    0  0.13402590310E+02 -0.99724022131E+01  0.56834405289E+02  0.13840786089E+03  0.12509000000E+03 0.  0.
<mgrwt>
<rscale>  2 0.46209592E+03</rscale>
<asrwt>0</asrwt>
<pdfrwt beam="1">  1       21 0.47408306E-01 0.46209592E+03</pdfrwt>
<pdfrwt beam="2">  1       21 0.24351853E-01 0.46209592E+03</pdfrwt>
<totfact> 0.62527422E+04</totfact>
</mgrwt>
</event>
<event>
 7    0  0.4709932E-002  0.4553516E+03  0.7546771E-02  0.1026138E+00
         21   -1    0    0  502  501  0.00000000000E+00  0.00000000000E+00  0.10460647258E+03  0.10460647258E+03  0.00000000000E+00 0. -1.
         21   -1    0    0  501  502 -0.00000000000E+00 -0.00000000000E+00 -0.49553593723E+03  0.49553593723E+03  0.00000000000E+00 0. -1.
      99926    2    1    2    0    0  0.35527136788E-14  0.00000000000E+00 -0.39092946465E+03  0.60014240982E+03  0.45535158474E+03 0.  0.
      99925    2    3    3    0    0  0.29691172704E+02  0.76393919849E+02 -0.34945631379E+03  0.44494857273E+03  0.26294851284E+03 0.  0.
         25    1    4    4    0    0  0.36399865420E+02  0.31633611178E+01 -0.16399868897E+03  0.20947084556E+03  0.12509000000E+03 0.  0.
         25    1    4    4    0    0 -0.67086927164E+01  0.73230558732E+02 -0.18545762482E+03  0.23547772717E+03  0.12509000000E+03 0.  0.
         25    1    3    3    0    0 -0.29691172704E+02 -0.76393919849E+02 -0.41473150858E+02  0.15519383708E+03  0.12509000000E+03 0.  0.
<mgrwt>
<rscale>  2 0.45535158E+03</rscale>
<asrwt>0</asrwt>
<pdfrwt beam="1">  1       21 0.15383305E-01 0.45535158E+03</pdfrwt>
<pdfrwt beam="2">  1       21 0.72872932E-01 0.45535158E+03</pdfrwt>
<totfact> 0.58506804E+04</totfact>
</mgrwt>
</event>
<event>
 7    0  0.4709932E-002  0.4355567E+03  0.7546771E-02  0.1032119E+00
         21   -1    0    0  502  501  0.00000000000E+00  0.00000000000E+00  0.81589656712E+03  0.81589656712E+03  0.00000000000E+00 0. -1.
         21   -1    0    0  501  502 -0.00000000000E+00 -0.00000000000E+00 -0.58129186324E+02  0.58129186324E+02  0.00000000000E+00 0. -1.
      99926    2    1    2    0    0  0.35527136788E-14  0.14210854715E-13  0.75776738080E+03  0.87402575344E+03  0.43555667173E+03 0.  0.
      99925    2    3    3    0    0  0.23206926114E+02  0.89252258084E+02  0.45122649892E+03  0.53034079981E+03  0.26296669679E+03 0.  0.
         25    1    4    4    0    0  0.24509627976E+02  0.47240451993E+01  0.19844644507E+03  0.23590578231E+03  0.12509000000E+03 0.  0.
         25    1    4    4    0    0 -0.13027018614E+01  0.84528212885E+02  0.25278005386E+03  0.29443501751E+03  0.12509000000E+03 0.  0.
         25    1    3    3    0    0 -0.23206926114E+02 -0.89252258084E+02  0.30654088187E+03  0.34368495363E+03  0.12509000000E+03 0.  0.
<mgrwt>
<rscale>  2 0.43555667E+03</rscale>
<asrwt>0</asrwt>
<pdfrwt beam="1">  1       21 0.11998478E+00 0.43555667E+03</pdfrwt>
<pdfrwt beam="2">  1       21 0.85484103E-02 0.43555667E+03</pdfrwt>
<totfact> 0.51827515E+04</totfact>
</mgrwt>
</event>
<event>
 7    0  0.4709932E-002  0.4692145E+03  0.7546771E-02  0.1022142E+00
         21   -1    0    0  502  501  0.00000000000E+00  0.00000000000E+00  0.10722627017E+04  0.10722627017E+04  0.00000000000E+00 0. -1.
         21   -1    0    0  501  502 -0.00000000000E+00 -0.00000000000E+00 -0.51331221381E+02  0.51331221381E+02  0.00000000000E+00 0. -1.
      99926    2    1    2    0    0  0.00000000000E+00 -0.71054273576E-14  0.10209314803E+04  0.11235939231E+04  0.46921446746E+03 0.  0.
      99925    2    3    3    0    0 -0.11687212811E+03 -0.34498970108E+02  0.71198841418E+03  0.76870999912E+03  0.26294160484E+03 0.  0.
         25    1    4    4    0    0 -0.61958107716E+02 -0.37707555495E+02  0.45815230733E+03  0.48042867490E+03  0.12509000000E+03 0.  0.
         25    1    4    4    0    0 -0.54914020394E+02  0.32085853864E+01  0.25383610685E+03  0.28828132423E+03  0.12509000000E+03 0.  0.
         25    1    3    3    0    0  0.11687212811E+03  0.34498970108E+02  0.30894306613E+03  0.35488392395E+03  0.12509000000E+03 0.  0.
<mgrwt>
<rscale>  2 0.46921447E+03</rscale>
<asrwt>0</asrwt>
<pdfrwt beam="1">  1       21 0.15768568E+00 0.46921447E+03</pdfrwt>
<pdfrwt beam="2">  1       21 0.75487097E-02 0.46921447E+03</pdfrwt>
<totfact> 0.31086004E+04</totfact>
</mgrwt>
</event>
<event>
 7    0  0.4709932E-002  0.4545678E+03  0.7546771E-02  0.1026369E+00
         21   -1    0    0  502  501  0.00000000000E+00  0.00000000000E+00  0.18642719775E+03  0.18642719775E+03  0.00000000000E+00 0. -1.
         21   -1    0    0  501  502 -0.00000000000E+00 -0.00000000000E+00 -0.27709461722E+03  0.27709461722E+03  0.00000000000E+00 0. -1.
      99926    2    1    2    0    0  0.00000000000E+00  0.00000000000E+00 -0.90667419463E+02  0.46352181497E+03  0.45456780793E+03 0.  0.
      99925    2    3    3    0    0  0.43518991455E+02  0.16987571825E+02  0.47883543751E+02  0.27109947292E+03  0.26271583554E+03 0.  0.
         25    1    3    3    0    0 -0.43518991455E+02 -0.16987571825E+02 -0.13855096321E+03  0.19242234205E+03  0.12509000000E+03 0.  0.
         25    1    4    4    0    0 -0.37361827616E+01  0.39288800116E+02  0.27329993207E+02  0.13398509434E+03  0.12509000000E+03 0.  0.
         25    1    4    4    0    0  0.47255174217E+02 -0.22301228291E+02  0.20553550545E+02  0.13711437858E+03  0.12509000000E+03 0.  0.
<mgrwt>
<rscale>  2 0.45456781E+03</rscale>
<asrwt>0</asrwt>
<pdfrwt beam="1">  1       21 0.27415765E-01 0.45456781E+03</pdfrwt>
<pdfrwt beam="2">  1       21 0.40749208E-01 0.45456781E+03</pdfrwt>
<totfact> 0.68153949E+04</totfact>
</mgrwt>
</event>
<event>
 7    0  0.4709932E-002  0.4859460E+03  0.7546771E-02  0.1017514E+00
         21   -1    0    0  502  501  0.00000000000E+00  0.00000000000E+00  0.10055682868E+04  0.10055682868E+04  0.00000000000E+00 0. -1.
         21   -1    0    0  501  502 -0.00000000000E+00 -0.00000000000E+00 -0.58708965685E+02  0.58708965685E+02  0.00000000000E+00 0. -1.
      99926    2    1    2    0    0  0.00000000000E+00  0.00000000000E+00  0.94685932115E+03  0.10642772525E+04  0.48594598073E+03 0.  0.
      99925    2    3    3    0    0  0.11775235761E+03 -0.75967923249E+02  0.58825051877E+03  0.65945071642E+03  0.26305860843E+03 0.  0.
         25    1    4    4    0    0  0.81624307859E+02 -0.76448160051E+02  0.33768951586E+03  0.37707899177E+03  0.12509000000E+03 0.  0.
         25    1    3    3    0    0 -0.11775235761E+03  0.75967923249E+02  0.35860880239E+03  0.40482653611E+03  0.12509000000E+03 0.  0.
         25    1    4    4    0    0  0.36128049754E+02  0.48023680247E+00  0.25056100290E+03  0.28237172465E+03  0.12509000000E+03 0.  0.
<mgrwt>
<rscale>  2 0.48594598E+03</rscale>
<asrwt>0</asrwt>
<pdfrwt beam="1">  1       21 0.14787768E+00 0.48594598E+03</pdfrwt>
<pdfrwt beam="2">  1       21 0.86336721E-02 0.48594598E+03</pdfrwt>
<totfact> 0.29074785E+04</totfact>
</mgrwt>
</event>
<event>
 7    0  0.4709932E-002  0.4564157E+03  0.7546771E-02  0.1025826E+00
         21   -1    0    0  502  501  0.00000000000E+00  0.00000000000E+00  0.35027996791E+03  0.35027996791E+03  0.00000000000E+00 0.  1.
         21   -1    0    0  501  502 -0.00000000000E+00 -0.00000000000E+00 -0.14867769034E+03  0.14867769034E+03  0.00000000000E+00 0.  1.
      99926    2    1    2    0    0  0.00000000000E+00  0.00000000000E+00  0.20160227757E+03  0.49895765825E+03  0.45641567284E+03 0.  0.
      99925    2    3    3    0    0 -0.93523695505E+02 -0.46849060001E+02  0.17749384980E+03  0.33412367986E+03  0.26304571976E+03 0.  0.
         25    1    4    4    0    0 -0.21357958746E+02 -0.91916293825E+01  0.11777613717E+03  0.17337639701E+03  0.12509000000E+03 0.  0.
         25    1    3    3    0    0  0.93523695505E+02  0.46849060001E+02  0.24108427769E+02  0.16483397839E+03  0.12509000000E+03 0.  0.
         25    1    4    4    0    0 -0.72165736759E+02 -0.37657430618E+02  0.59717712629E+02  0.16074728285E+03  0.12509000000E+03 0.  0.
<mgrwt>
<rscale>  2 0.45641567E+03</rscale>
<asrwt>0</asrwt>
<pdfrwt beam="1">  1       21 0.51511760E-01 0.45641567E+03</pdfrwt>
<pdfrwt beam="2">  1       21 0.21864366E-01 0.45641567E+03</pdfrwt>
<totfact> 0.64614751E+04</totfact>
</mgrwt>
</event>
<event>
 7    0  0.4709932E-002  0.4576848E+03  0.7546771E-02  0.1025455E+00
         21   -1    0    0  502  501  0.00000000000E+00  0.00000000000E+00  0.38208050789E+03  0.38208050789E+03  0.00000000000E+00 0. -1.
         21   -1    0    0  501  502 -0.00000000000E+00 -0.00000000000E+00 -0.13706234920E+03  0.13706234920E+03  0.00000000000E+00 0. -1.
      99926    2    1    2    0    0  0.00000000000E+00 -0.12212453271E-14  0.24501815869E+03  0.51914285710E+03  0.45768483478E+03 0.  0.
      99925    2    3    3    0    0 -0.89778378466E+02 -0.70546247665E+00  0.23647162451E+03  0.36493129377E+03  0.26305011890E+03 0.  0.
         25    1    4    4    0    0 -0.44006676971E+02 -0.23286914700E+02  0.74012728371E+02  0.15363677970E+03  0.12509000000E+03 0.  0.
         25    1    3    3    0    0  0.89778378466E+02  0.70546247665E+00  0.85465341806E+01  0.15421156333E+03  0.12509000000E+03 0.  0.
         25    1    4    4    0    0 -0.45771701495E+02  0.22581452224E+02  0.16245889614E+03  0.21129451407E+03  0.12509000000E+03 0.  0.
<mgrwt>
<rscale>  2 0.45768483E+03</rscale>
<asrwt>0</asrwt>
<pdfrwt beam="1">  1       21 0.56188310E-01 0.45768483E+03</pdfrwt>
<pdfrwt beam="2">  1       21 0.20156228E-01 0.45768483E+03</pdfrwt>
<totfact> 0.62601466E+04</totfact>
</mgrwt>
</event>
<event>
 7    0  0.4709932E-002  0.4533428E+03  0.7546771E-02  0.1026730E+00
         21   -1    0    0  502  501  0.00000000000E+00  0.00000000000E+00  0.46178265585E+03  0.46178265585E+03  0.00000000000E+00 0.  1.
         21   -1    0    0  501  502 -0.00000000000E+00 -0.00000000000E+00 -0.11126430446E+03  0.11126430446E+03  0.00000000000E+00 0.  1.
      99926    2    1    2    0    0 -0.35527136788E-14  0.00000000000E+00  0.35051835139E+03  0.57304696031E+03  0.45334281075E+03 0.  0.
      99925    2    3    3    0    0  0.25640055509E+02 -0.95669408429E+02  0.15597302121E+03  0.32144123352E+03  0.26303390487E+03 0.  0.
         25    1    4    4    0    0  0.41913083027E+00 -0.37022853131E+02  0.11813381376E+03  0.17599424246E+03  0.12509000000E+03 0.  0.
         25    1    4    4    0    0  0.25220924679E+02 -0.58646555298E+02  0.37839207442E+02  0.14544699106E+03  0.12509000000E+03 0.  0.
         25    1    3    3    0    0 -0.25640055509E+02  0.95669408429E+02  0.19454533019E+03  0.25160572679E+03  0.12509000000E+03 0.  0.
<mgrwt>
<rscale>  2 0.45334281E+03</rscale>
<asrwt>0</asrwt>
<pdfrwt beam="1">  1       21 0.67909213E-01 0.45334281E+03</pdfrwt>
<pdfrwt beam="2">  1       21 0.16362398E-01 0.45334281E+03</pdfrwt>
<totfact> 0.61166317E+04</totfact>
</mgrwt>
</event>
<event>
 6    0  0.4709932E-002  0.4408523E+03  0.7546771E-02  0.1030486E+00
         21   -1    0    0  502  501  0.00000000000E+00  0.00000000000E+00  0.11638779123E+03  0.11638779123E+03  0.00000000000E+00 0. -1.
         21   -1    0    0  501  502 -0.00000000000E+00 -0.00000000000E+00 -0.41746383891E+03  0.41746383891E+03  0.00000000000E+00 0. -1.
      99926    2    1    2    0    0  0.00000000000E+00  0.00000000000E+00 -0.30107604768E+03  0.53385163013E+03  0.44085232960E+03 0.  0.
         25    1    3    3    0    0  0.66682382357E+02 -0.33584550469E+02 -0.60897217832E+02  0.15789376614E+03  0.12509000000E+03 0.  0.
         25    1    3    3    0    0 -0.71800687749E+02  0.64248590547E+02 -0.15630886419E+03  0.22217828263E+03  0.12509000000E+03 0.  0.
         25    1    3    3    0    0  0.51183053918E+01 -0.30664040078E+02 -0.83869965659E+02  0.15377958136E+03  0.12509000000E+03 0.  0.
<mgrwt>
<rscale>  2 0.44085233E+03</rscale>
<asrwt>0</asrwt>
<pdfrwt beam="1">  1       21 0.17115852E-01 0.44085233E+03</pdfrwt>
<pdfrwt beam="2">  1       21 0.61391741E-01 0.44085233E+03</pdfrwt>
<totfact> 0.70517292E+04</totfact>
</mgrwt>
</event>
<event>
 7    0  0.4709932E-002  0.4572918E+03  0.7546771E-02  0.1025570E+00
         21   -1    0    0  502  501  0.00000000000E+00  0.00000000000E+00  0.31411608015E+03  0.31411608015E+03  0.00000000000E+00 0.  1.
         21   -1    0    0  501  502 -0.00000000000E+00 -0.00000000000E+00 -0.16643196679E+03  0.16643196679E+03  0.00000000000E+00 0.  1.
      99926    2    1    2    0    0  0.00000000000E+00  0.00000000000E+00  0.14768411336E+03  0.48054804695E+03  0.45729184126E+03 0.  0.
      99925    2    3    3    0    0 -0.52365645396E+02 -0.82654731281E+02  0.28376233375E+02  0.28191309597E+03  0.26286083322E+03 0.  0.
         25    1    3    3    0    0  0.52365645396E+02  0.82654731281E+02  0.11930787999E+03  0.19863495097E+03  0.12509000000E+03 0.  0.
         25    1    4    4    0    0 -0.60218375085E+02 -0.39431120387E+02  0.37204753952E+02  0.14903948393E+03  0.12509000000E+03 0.  0.
         25    1    4    4    0    0  0.78527296883E+01 -0.43223610894E+02 -0.88285205768E+01  0.13287361204E+03  0.12509000000E+03 0.  0.
<mgrwt>
<rscale>  2 0.45729184E+03</rscale>
<asrwt>0</asrwt>
<pdfrwt beam="1">  1       21 0.46193541E-01 0.45729184E+03</pdfrwt>
<pdfrwt beam="2">  1       21 0.24475289E-01 0.45729184E+03</pdfrwt>
<totfact> 0.65461296E+04</totfact>
</mgrwt>
</event>
<event>
 7    0  0.4709932E-002  0.4541152E+03  0.7546771E-02  0.1026502E+00
         21   -1    0    0  502  501  0.00000000000E+00  0.00000000000E+00  0.53069112501E+03  0.53069112501E+03  0.00000000000E+00 0. -1.
         21   -1    0    0  501  502 -0.00000000000E+00 -0.00000000000E+00 -0.97147174571E+02  0.97147174571E+02  0.00000000000E+00 0. -1.
      99926    2    1    2    0    0  0.00000000000E+00  0.00000000000E+00  0.43354395044E+03  0.62783829958E+03  0.45411515440E+03 0.  0.
      99925    2    3    3    0    0  0.77999378494E+02  0.66674800649E+02  0.33612375005E+03  0.43897952793E+03  0.26304831971E+03 0.  0.
         25    1    4    4    0    0  0.57550576710E+02  0.56086744348E+02  0.22718861928E+03  0.27151421437E+03  0.12509000000E+03 0.  0.
         25    1    3    3    0    0 -0.77999378494E+02 -0.66674800649E+02  0.97420200389E+02  0.18885877165E+03  0.12509000000E+03 0.  0.
         25    1    4    4    0    0  0.20448801785E+02  0.10588056301E+02  0.10893513076E+03  0.16746531356E+03  0.12509000000E+03 0.  0.
<mgrwt>
<rscale>  2 0.45411515E+03</rscale>
<asrwt>0</asrwt>
<pdfrwt beam="1">  1       21 0.78042811E-01 0.45411515E+03</pdfrwt>
<pdfrwt beam="2">  1       21 0.14286349E-01 0.45411515E+03</pdfrwt>
<totfact> 0.57396539E+04</totfact>
</mgrwt>
</event>
<event>
 7    0  0.4709932E-002  0.4556442E+03  0.7546771E-02  0.1026052E+00
         21   -1    0    0  502  501  0.00000000000E+00  0.00000000000E+00  0.12704864518E+03  0.12704864518E+03  0.00000000000E+00 0.  1.
         21   -1    0    0  501  502 -0.00000000000E+00 -0.00000000000E+00 -0.40852781687E+03  0.40852781687E+03  0.00000000000E+00 0.  1.
      99926    2    1    2    0    0 -0.14210854715E-13  0.00000000000E+00 -0.28147917169E+03  0.53557646206E+03  0.45564418422E+03 0.  0.
      99925    2    3    3    0    0  0.95509094184E+02 -0.60476722695E+02 -0.16218782834E+03  0.32903989445E+03  0.26302649946E+03 0.  0.
         25    1    4    4    0    0  0.73795194458E+02 -0.49411574490E+02 -0.12009329678E+03  0.19482592859E+03  0.12509000000E+03 0.  0.
         25    1    3    3    0    0 -0.95509094184E+02  0.60476722695E+02 -0.11929134335E+03  0.20653656760E+03  0.12509000000E+03 0.  0.
         25    1    4    4    0    0  0.21713899726E+02 -0.11065148206E+02 -0.42094531562E+02  0.13421396587E+03  0.12509000000E+03 0.  0.
<mgrwt>
<rscale>  2 0.45564418E+03</rscale>
<asrwt>0</asrwt>
<pdfrwt beam="1">  1       21 0.18683624E-01 0.45564418E+03</pdfrwt>
<pdfrwt beam="2">  1       21 0.60077620E-01 0.45564418E+03</pdfrwt>
<totfact> 0.62510483E+04</totfact>
</mgrwt>
</event>
<event>
 7    0  0.4709932E-002  0.4505763E+03  0.7546771E-02  0.1027550E+00
         21   -1    0    0  502  501  0.00000000000E+00  0.00000000000E+00  0.21066400544E+03  0.21066400544E+03  0.00000000000E+00 0.  1.
         21   -1    0    0  501  502 -0.00000000000E+00 -0.00000000000E+00 -0.24092747109E+03  0.24092747109E+03  0.00000000000E+00 0.  1.
      99926    2    1    2    0    0  0.00000000000E+00  0.14210854715E-13 -0.30263465645E+02  0.45159147653E+03  0.45057628024E+03 0.  0.
      99925    2    3    3    0    0  0.38199731369E+02 -0.89793361975E+02 -0.67741520580E+02  0.28857558763E+03  0.26299218398E+03 0.  0.
         25    1    3    3    0    0 -0.38199731369E+02  0.89793361975E+02  0.37478054935E+02  0.16301588890E+03  0.12509000000E+03 0.  0.
         25    1    4    4    0    0  0.73797084830E+01 -0.33423900018E+01 -0.31548403032E+02  0.12926113686E+03  0.12509000000E+03 0.  0.
         25    1    4    4    0    0  0.30820022886E+02 -0.86450971974E+02 -0.36193117548E+02  0.15931445077E+03  0.12509000000E+03 0.  0.
<mgrwt>
<rscale>  2 0.45057628E+03</rscale>
<asrwt>0</asrwt>
<pdfrwt beam="1">  1       21 0.30980001E-01 0.45057628E+03</pdfrwt>
<pdfrwt beam="2">  1       21 0.35430510E-01 0.45057628E+03</pdfrwt>
<totfact> 0.71279089E+04</totfact>
</mgrwt>
</event>
<event>
 7    0  0.4709932E-002  0.4525829E+03  0.7546771E-02  0.1026955E+00
         21   -1    0    0  502  501  0.00000000000E+00  0.00000000000E+00  0.81480277823E+02  0.81480277823E+02  0.00000000000E+00 0. -1.
         21   -1    0    0  501  502 -0.00000000000E+00 -0.00000000000E+00 -0.62846887102E+03  0.62846887102E+03  0.00000000000E+00 0. -1.
      99926    2    1    2    0    0  0.00000000000E+00 -0.71054273576E-14 -0.54698859319E+03  0.70994914884E+03  0.45258289059E+03 0.  0.
      99925    2    3    3    0    0  0.85520247177E+02 -0.41642523620E+02 -0.25555294220E+03  0.37884484621E+03  0.26299866688E+03 0.  0.
         25    1    4    4    0    0  0.47648304812E+02  0.19620395267E+02 -0.12685631524E+03  0.18545984384E+03  0.12509000000E+03 0.  0.
         25    1    3    3    0    0 -0.85520247177E+02  0.41642523620E+02 -0.29143565099E+03  0.33110430263E+03  0.12509000000E+03 0.  0.
         25    1    4    4    0    0  0.37871942365E+02 -0.61262918887E+02 -0.12869662696E+03  0.19338500237E+03  0.12509000000E+03 0.  0.
<mgrwt>
<rscale>  2 0.45258289E+03</rscale>
<asrwt>0</asrwt>
<pdfrwt beam="1">  1       21 0.11982394E-01 0.45258289E+03</pdfrwt>
<pdfrwt beam="2">  1       21 0.92421890E-01 0.45258289E+03</pdfrwt>
<totfact> 0.53373910E+04</totfact>
</mgrwt>
</event>
<event>
 7    0  0.4709932E-002  0.4620420E+03  0.7546771E-02  0.1024191E+00
         21   -1    0    0  502  501  0.00000000000E+00  0.00000000000E+00  0.19781871195E+03  0.19781871195E+03  0.00000000000E+00 0. -1.
         21   -1    0    0  501  502 -0.00000000000E+00 -0.00000000000E+00 -0.26979602721E+03  0.26979602721E+03  0.00000000000E+00 0. -1.
      99926    2    1    2    0    0 -0.71054273576E-14  0.00000000000E+00 -0.71977315260E+02  0.46761473916E+03  0.46204200066E+03 0.  0.
      99925    2    3    3    0    0 -0.44535826026E+02 -0.49259554274E+02  0.55694955930E+02  0.27693789102E+03  0.26302608973E+03 0.  0.
         25    1    3    3    0    0  0.44535826026E+02  0.49259554274E+02 -0.12767227119E+03  0.19067684814E+03  0.12509000000E+03 0.  0.
         25    1    4    4    0    0  0.12466565673E+02 -0.36244517196E+02  0.88567054348E+01  0.13112981971E+03  0.12509000000E+03 0.  0.
         25    1    4    4    0    0 -0.57002391699E+02 -0.13015037078E+02  0.46838250495E+02  0.14580807131E+03  0.12509000000E+03 0.  0.
<mgrwt>
<rscale>  2 0.46204200E+03</rscale>
<asrwt>0</asrwt>
<pdfrwt beam="1">  1       21 0.29090987E-01 0.46204200E+03</pdfrwt>
<pdfrwt beam="2">  1       21 0.39675886E-01 0.46204200E+03</pdfrwt>
<totfact> 0.63960289E+04</totfact>
</mgrwt>
</event>
<event>
 7    0  0.4709932E-002  0.4539915E+03  0.7546771E-02  0.1026538E+00
         21   -1    0    0  502  501  0.00000000000E+00  0.00000000000E+00  0.28648604928E+03  0.28648604928E+03  0.00000000000E+00 0. -1.
         21   -1    0    0  501  502 -0.00000000000E+00 -0.00000000000E+00 -0.17985891534E+03  0.17985891534E+03  0.00000000000E+00 0. -1.
      99926    2    1    2    0    0  0.00000000000E+00  0.00000000000E+00  0.10662713394E+03  0.46634496463E+03  0.45399149809E+03 0.  0.
      99925    2    3    3    0    0 -0.70932345918E+02 -0.86934320415E+02  0.66095036802E+02  0.29348857116E+03  0.26301713585E+03 0.  0.
         25    1    3    3    0    0  0.70932345918E+02  0.86934320415E+02  0.40532097136E+02  0.17285639346E+03  0.12509000000E+03 0.  0.
         25    1    4    4    0    0 -0.23074210228E+02 -0.43912395301E+02  0.72144057997E+02  0.15268592222E+03  0.12509000000E+03 0.  0.
         25    1    4    4    0    0 -0.47858135690E+02 -0.43021925114E+02 -0.60490211957E+01  0.14080264894E+03  0.12509000000E+03 0.  0.
<mgrwt>
<rscale>  2 0.45399150E+03</rscale>
<asrwt>0</asrwt>
<pdfrwt beam="1">  1       21 0.42130301E-01 0.45399150E+03</pdfrwt>
<pdfrwt beam="2">  1       21 0.26449840E-01 0.45399150E+03</pdfrwt>
<totfact> 0.68253112E+04</totfact>
</mgrwt>
</event>
<event>
 7    0  0.4709932E-002  0.4577961E+03  0.7546771E-02  0.1025422E+00
         21   -1    0    0  502  501  0.00000000000E+00  0.00000000000E+00  0.18405576907E+04  0.18405576907E+04  0.00000000000E+00 0.  1.
         21   -1    0    0  501  502 -0.00000000000E+00 -0.00000000000E+00 -0.28466538857E+02  0.28466538857E+02  0.00000000000E+00 0.  1.
      99926    2    1    2    0    0 -0.14210854715E-13 -0.14210854715E-13  0.18120911519E+04  0.18690242296E+04  0.45779605513E+03 0.  0.
      99925    2    3    3    0    0  0.84699228761E+02  0.78186316489E+02  0.11866602947E+04  0.12208743050E+04  0.26283902743E+03 0.  0.
         25    1    3    3    0    0 -0.84699228761E+02 -0.78186316489E+02  0.62543085721E+03  0.64814992455E+03  0.12509000000E+03 0.  0.
         25    1    4    4    0    0  0.26296380486E+01  0.21157073306E+02  0.52541443726E+03  0.54052046744E+03  0.12509000000E+03 0.  0.
         25    1    4    4    0    0  0.82069590712E+02  0.57029243183E+02  0.66124585741E+03  0.68035383760E+03  0.12509000000E+03 0.  0.
<mgrwt>
<rscale>  2 0.45779606E+03</rscale>
<asrwt>0</asrwt>
<pdfrwt beam="1">  1       21 0.27067017E+00 0.45779606E+03</pdfrwt>
<pdfrwt beam="2">  1       21 0.41862570E-02 0.45779606E+03</pdfrwt>
<totfact> 0.15626593E+04</totfact>
</mgrwt>
</event>
<event>
 7    0  0.4709932E-002  0.4539158E+03  0.7546771E-02  0.1026561E+00
         21   -1    0    0  502  501  0.00000000000E+00  0.00000000000E+00  0.14241355631E+03  0.14241355631E+03  0.00000000000E+00 0.  1.
         21   -1    0    0  501  502 -0.00000000000E+00 -0.00000000000E+00 -0.36169238373E+03  0.36169238373E+03  0.00000000000E+00 0.  1.
      99926    2    1    2    0    0  0.00000000000E+00  0.14210854715E-13 -0.21927882742E+03  0.50410594005E+03  0.45391584532E+03 0.  0.
      99925    2    3    3    0    0  0.41291065808E+02  0.10239512818E+03 -0.16021214933E+03  0.32711414659E+03  0.26295630381E+03 0.  0.
         25    1    3    3    0    0 -0.41291065808E+02 -0.10239512818E+03 -0.59066678092E+02  0.17699179346E+03  0.12509000000E+03 0.  0.
         25    1    4    4    0    0  0.14471095004E+02  0.23208561634E+02 -0.10907293373E+03  0.16820363521E+03  0.12509000000E+03 0.  0.
         25    1    4    4    0    0  0.26819970804E+02  0.79186566548E+02 -0.51139215594E+02  0.15891051138E+03  0.12509000000E+03 0.  0.
<mgrwt>
<rscale>  2 0.45391585E+03</rscale>
<asrwt>0</asrwt>
<pdfrwt beam="1">  1       21 0.20943170E-01 0.45391585E+03</pdfrwt>
<pdfrwt beam="2">  1       21 0.53190056E-01 0.45391585E+03</pdfrwt>
<totfact> 0.65545384E+04</totfact>
</mgrwt>
</event>
<event>
 7    0  0.4709932E-002  0.4052815E+03  0.7546771E-02  0.1041966E+00
         21   -1    0    0  502  501  0.00000000000E+00  0.00000000000E+00  0.11131478561E+03  0.11131478561E+03  0.00000000000E+00 0. -1.
         21   -1    0    0  501  502 -0.00000000000E+00 -0.00000000000E+00 -0.36889328605E+03  0.36889328605E+03  0.00000000000E+00 0. -1.
      99926    2    1    2    0    0 -0.17763568394E-14  0.35527136788E-14 -0.25757850043E+03  0.48020807166E+03  0.40528151722E+03 0.  0.
      99925    2    3    3    0    0  0.14595806809E+02 -0.25854129465E+02 -0.22539262691E+03  0.34767538837E+03  0.26304916998E+03 0.  0.
         25    1    4    4    0    0  0.80240663447E+01 -0.52030967790E+02 -0.13132442145E+03  0.18885237361E+03  0.12509000000E+03 0.  0.
         25    1    4    4    0    0  0.65717404641E+01  0.26176838325E+02 -0.94068205455E+02  0.15882301475E+03  0.12509000000E+03 0.  0.
         25    1    3    3    0    0 -0.14595806809E+02  0.25854129465E+02 -0.32185873527E+02  0.13253268330E+03  0.12509000000E+03 0.  0.
<mgrwt>
<rscale>  2 0.40528152E+03</rscale>
<asrwt>0</asrwt>
<pdfrwt beam="1">  1       21 0.16369822E-01 0.40528152E+03</pdfrwt>
<pdfrwt beam="2">  1       21 0.54249011E-01 0.40528152E+03</pdfrwt>
<totfact> 0.10102808E+05</totfact>
</mgrwt>
</event>
<event>
 7    0  0.4709932E-002  0.4198249E+03  0.7546771E-02  0.1037123E+00
         21   -1    0    0  502  501  0.00000000000E+00  0.00000000000E+00  0.50010552170E+03  0.50010552170E+03  0.00000000000E+00 0. -1.
         21   -1    0    0  501  502 -0.00000000000E+00 -0.00000000000E+00 -0.88107869104E+02  0.88107869104E+02  0.00000000000E+00 0. -1.
      99926    2    1    2    0    0  0.00000000000E+00  0.00000000000E+00  0.41199765260E+03  0.58821339081E+03  0.41982487704E+03 0.  0.
      99925    2    3    3    0    0 -0.13275590194E+02 -0.32346349874E+02  0.36236692139E+03  0.44916935021E+03  0.26309844509E+03 0.  0.
         25    1    3    3    0    0  0.13275590194E+02  0.32346349874E+02  0.49630731214E+02  0.13904404060E+03  0.12509000000E+03 0.  0.
         25    1    4    4    0    0 -0.12426027710E+02 -0.50277261082E+02  0.22436427074E+03  0.26204778806E+03  0.12509000000E+03 0.  0.
         25    1    4    4    0    0 -0.84956248442E+00  0.17930911207E+02  0.13800265065E+03  0.18712156214E+03  0.12509000000E+03 0.  0.
<mgrwt>
<rscale>  2 0.41982488E+03</rscale>
<asrwt>0</asrwt>
<pdfrwt beam="1">  1       21 0.73544928E-01 0.41982488E+03</pdfrwt>
<pdfrwt beam="2">  1       21 0.12957040E-01 0.41982488E+03</pdfrwt>
<totfact> 0.79246475E+04</totfact>
</mgrwt>
</event>
<event>
 7    0  0.4709932E-002  0.4515116E+03  0.7546771E-02  0.1027272E+00
         21   -1    0    0  502  501  0.00000000000E+00  0.00000000000E+00  0.47872018568E+03  0.47872018568E+03  0.00000000000E+00 0. -1.
         21   -1    0    0  501  502 -0.00000000000E+00 -0.00000000000E+00 -0.10646235418E+03  0.10646235418E+03  0.00000000000E+00 0. -1.
      99926    2    1    2    0    0 -0.88817841970E-15  0.00000000000E+00  0.37225783149E+03  0.58518253986E+03  0.45151158550E+03 0.  0.
      99925    2    3    3    0    0  0.28183165334E+01  0.16230752622E+02  0.94151298333E+02  0.27979404609E+03  0.26296171016E+03 0.  0.
         25    1    4    4    0    0  0.28310090499E+02  0.26847564246E+02  0.22299287249E+02  0.13291733988E+03  0.12509000000E+03 0.  0.
         25    1    3    3    0    0 -0.28183165334E+01 -0.16230752622E+02  0.27810653316E+03  0.30538849377E+03  0.12509000000E+03 0.  0.
         25    1    4    4    0    0 -0.25491773966E+02 -0.10616811624E+02  0.71852011085E+02  0.14687670621E+03  0.12509000000E+03 0.  0.
<mgrwt>
<rscale>  2 0.45151159E+03</rscale>
<asrwt>0</asrwt>
<pdfrwt beam="1">  1       21 0.70400027E-01 0.45151159E+03</pdfrwt>
<pdfrwt beam="2">  1       21 0.15656229E-01 0.45151159E+03</pdfrwt>
<totfact> 0.61271834E+04</totfact>
</mgrwt>
</event>
<event>
 7    0  0.4709932E-002  0.4516195E+03  0.7546771E-02  0.1027240E+00
         21   -1    0    0  502  501  0.00000000000E+00  0.00000000000E+00  0.86906942055E+02  0.86906942055E+02  0.00000000000E+00 0.  1.
         21   -1    0    0  501  502 -0.00000000000E+00 -0.00000000000E+00 -0.58672003938E+03  0.58672003938E+03  0.00000000000E+00 0.  1.
      99926    2    1    2    0    0  0.44408920985E-15  0.00000000000E+00 -0.49981309732E+03  0.67362698143E+03  0.45161950562E+03 0.  0.
      99925    2    3    3    0    0 -0.33658396972E+01  0.88644433600E+02 -0.21855903563E+03  0.35328260455E+03  0.26300452873E+03 0.  0.
         25    1    3    3    0    0  0.33658396972E+01 -0.88644433600E+02 -0.28125406169E+03  0.32034437689E+03  0.12509000000E+03 0.  0.
         25    1    4    4    0    0 -0.15366403387E+02  0.11258751704E+02 -0.73415701992E+02  0.14628827445E+03  0.12509000000E+03 0.  0.
         25    1    4    4    0    0  0.12000563689E+02  0.77385681897E+02 -0.14514333364E+03  0.20699433010E+03  0.12509000000E+03 0.  0.
<mgrwt>
<rscale>  2 0.45161951E+03</rscale>
<asrwt>0</asrwt>
<pdfrwt beam="1">  1       21 0.12780432E-01 0.45161951E+03</pdfrwt>
<pdfrwt beam="2">  1       21 0.86282361E-01 0.45161951E+03</pdfrwt>
<totfact> 0.55830754E+04</totfact>
</mgrwt>
</event>
<event>
 7    0  0.4709932E-002  0.4554683E+03  0.7546771E-02  0.1026104E+00
         21   -1    0    0  502  501  0.00000000000E+00  0.00000000000E+00  0.22405718534E+03  0.22405718534E+03  0.00000000000E+00 0.  1.
         21   -1    0    0  501  502 -0.00000000000E+00 -0.00000000000E+00 -0.23147141015E+03  0.23147141015E+03  0.00000000000E+00 0.  1.
      99926    2    1    2    0    0  0.00000000000E+00 -0.71054273576E-14 -0.74142248089E+01  0.45552859548E+03  0.45546825419E+03 0.  0.
      99925    2    3    3    0    0  0.81962908148E+02  0.44326164392E+02  0.60360820110E+02  0.28545892748E+03  0.26298411266E+03 0.  0.
         25    1    3    3    0    0 -0.81962908148E+02 -0.44326164392E+02 -0.67775044919E+02  0.17006966801E+03  0.12509000000E+03 0.  0.
         25    1    4    4    0    0  0.59060009179E+02 -0.14085569507E+01  0.58774201058E+02  0.15030629903E+03  0.12509000000E+03 0.  0.
         25    1    4    4    0    0  0.22902898969E+02  0.45734721342E+02  0.15866190528E+01  0.13515262845E+03  0.12509000000E+03 0.  0.
<mgrwt>
<rscale>  2 0.45546825E+03</rscale>
<asrwt>0</asrwt>
<pdfrwt beam="1">  1       21 0.32949586E-01 0.45546825E+03</pdfrwt>
<pdfrwt beam="2">  1       21 0.34039913E-01 0.45546825E+03</pdfrwt>
<totfact> 0.68251729E+04</totfact>
</mgrwt>
</event>
<event>
 7    0  0.4709932E-002  0.4550117E+03  0.7546771E-02  0.1026238E+00
         21   -1    0    0  502  501  0.00000000000E+00  0.00000000000E+00  0.26776298080E+03  0.26776298080E+03  0.00000000000E+00 0.  1.
         21   -1    0    0  501  502 -0.00000000000E+00 -0.00000000000E+00 -0.19330126384E+03  0.19330126384E+03  0.00000000000E+00 0.  1.
      99926    2    1    2    0    0  0.00000000000E+00  0.00000000000E+00  0.74461716953E+02  0.46106424464E+03  0.45501174753E+03 0.  0.
      99925    2    3    3    0    0  0.10084107304E+03  0.19288008433E+02 -0.12348128007E+01  0.28240696939E+03  0.26308025832E+03 0.  0.
         25    1    3    3    0    0 -0.10084107304E+03 -0.19288008433E+02  0.75696529754E+02  0.17865727525E+03  0.12509000000E+03 0.  0.
         25    1    4    4    0    0  0.30138313938E+02  0.18809791790E+01  0.34688400990E+02  0.13327658952E+03  0.12509000000E+03 0.  0.
         25    1    4    4    0    0  0.70702759105E+02  0.17407029254E+02 -0.35923213791E+02  0.14913037987E+03  0.12509000000E+03 0.  0.
<mgrwt>
<rscale>  2 0.45501175E+03</rscale>
<asrwt>0</asrwt>
<pdfrwt beam="1">  1       21 0.39376909E-01 0.45501175E+03</pdfrwt>
<pdfrwt beam="2">  1       21 0.28426656E-01 0.45501175E+03</pdfrwt>
<totfact> 0.68096638E+04</totfact>
</mgrwt>
</event>
<event>
 7    0  0.4709932E-002  0.4519187E+03  0.7546771E-02  0.1027151E+00
         21   -1    0    0  502  501  0.00000000000E+00  0.00000000000E+00  0.17923022120E+03  0.17923022120E+03  0.00000000000E+00 0.  1.
         21   -1    0    0  501  502 -0.00000000000E+00 -0.00000000000E+00 -0.28487173391E+03  0.28487173391E+03  0.00000000000E+00 0.  1.
      99926    2    1    2    0    0  0.00000000000E+00  0.00000000000E+00 -0.10564151271E+03  0.46410195510E+03  0.45191868242E+03 0.  0.
      99925    2    3    3    0    0  0.69231006438E+02 -0.54890560068E+02  0.10452488291E+01  0.27745930450E+03  0.26301457616E+03 0.  0.
         25    1    4    4    0    0  0.41648079795E+01 -0.52509193864E+02  0.10421397523E+02  0.13612742079E+03  0.12509000000E+03 0.  0.
         25    1    4    4    0    0  0.65066198459E+02 -0.23813662040E+01 -0.93761486937E+01  0.14133188370E+03  0.12509000000E+03 0.  0.
         25    1    3    3    0    0 -0.69231006438E+02  0.54890560068E+02 -0.10668676154E+03  0.18664265060E+03  0.12509000000E+03 0.  0.
<mgrwt>
<rscale>  2 0.45191868E+03</rscale>
<asrwt>0</asrwt>
<pdfrwt beam="1">  1       21 0.26357386E-01 0.45191868E+03</pdfrwt>
<pdfrwt beam="2">  1       21 0.41892902E-01 0.45191868E+03</pdfrwt>
<totfact> 0.69561871E+04</totfact>
</mgrwt>
</event>
<event>
 7    0  0.4709932E-002  0.4507333E+03  0.7546771E-02  0.1027504E+00
         21   -1    0    0  502  501  0.00000000000E+00  0.00000000000E+00  0.48613874379E+02  0.48613874379E+02  0.00000000000E+00 0. -1.
         21   -1    0    0  501  502 -0.00000000000E+00 -0.00000000000E+00 -0.10447658702E+04  0.10447658702E+04  0.00000000000E+00 0. -1.
      99926    2    1    2    0    0  0.14210854715E-13  0.35527136788E-14 -0.99615199578E+03  0.10933797445E+04  0.45073325490E+03 0.  0.
      99925    2    3    3    0    0  0.10073406201E+03  0.30240602481E+02 -0.70037763274E+03  0.75545693202E+03  0.26291539021E+03 0.  0.
         25    1    3    3    0    0 -0.10073406201E+03 -0.30240602481E+02 -0.29577436304E+03  0.33792281252E+03  0.12509000000E+03 0.  0.
         25    1    4    4    0    0  0.26435127809E+02  0.49929049301E+01 -0.23999388974E+03  0.27197117548E+03  0.12509000000E+03 0.  0.
         25    1    4    4    0    0  0.74298934204E+02  0.25247697551E+02 -0.46038374300E+03  0.48348575654E+03  0.12509000000E+03 0.  0.
<mgrwt>
<rscale>  2 0.45073325E+03</rscale>
<asrwt>0</asrwt>
<pdfrwt beam="1">  1       21 0.71490997E-02 0.45073325E+03</pdfrwt>
<pdfrwt beam="2">  1       21 0.15364203E+00 0.45073325E+03</pdfrwt>
<totfact> 0.36939035E+04</totfact>
</mgrwt>
</event>
<event>
 7    0  0.4709932E-002  0.4542346E+03  0.7546771E-02  0.1026467E+00
         21   -1    0    0  502  501  0.00000000000E+00  0.00000000000E+00  0.16071668773E+04  0.16071668773E+04  0.00000000000E+00 0.  1.
         21   -1    0    0  501  502 -0.00000000000E+00 -0.00000000000E+00 -0.32095153960E+02  0.32095153960E+02  0.00000000000E+00 0.  1.
      99926    2    1    2    0    0  0.35527136788E-14 -0.14210854715E-13  0.15750717233E+04  0.16392620312E+04  0.45423460179E+03 0.  0.
      99925    2    3    3    0    0  0.11450034753E+02  0.10963426948E+03  0.10722079331E+04  0.11094787964E+04  0.26298777812E+03 0.  0.
         25    1    4    4    0    0 -0.22373286705E+02  0.37551028265E+02  0.60345382768E+03  0.61783061912E+03  0.12509000000E+03 0.  0.
         25    1    4    4    0    0  0.33823321459E+02  0.72083241215E+02  0.46875410546E+03  0.49164817728E+03  0.12509000000E+03 0.  0.
         25    1    3    3    0    0 -0.11450034753E+02 -0.10963426948E+03  0.50286379018E+03  0.52978323484E+03  0.12509000000E+03 0.  0.
<mgrwt>
<rscale>  2 0.45423460E+03</rscale>
<asrwt>0</asrwt>
<pdfrwt beam="1">  1       21 0.23634802E+00 0.45423460E+03</pdfrwt>
<pdfrwt beam="2">  1       21 0.47198766E-02 0.45423460E+03</pdfrwt>
<totfact> 0.20679543E+04</totfact>
</mgrwt>
</event>
<event>
 7    0  0.4709932E-002  0.4558898E+03  0.7546771E-02  0.1025980E+00
         21   -1    0    0  502  501  0.00000000000E+00  0.00000000000E+00  0.32008888903E+03  0.32008888903E+03  0.00000000000E+00 0.  1.
         21   -1    0    0  501  502 -0.00000000000E+00 -0.00000000000E+00 -0.16232640260E+03  0.16232640260E+03  0.00000000000E+00 0.  1.
      99926    2    1    2    0    0  0.00000000000E+00  0.00000000000E+00  0.15776248643E+03  0.48241529163E+03  0.45588980190E+03 0.  0.
      99925    2    3    3    0    0  0.64661217384E+02  0.93843992475E+02  0.10231886496E+03  0.30434431921E+03  0.26299913793E+03 0.  0.
         25    1    3    3    0    0 -0.64661217384E+02 -0.93843992475E+02  0.55443621468E+02  0.17807097242E+03  0.12509000000E+03 0.  0.
         25    1    4    4    0    0  0.57157073852E+02  0.37452700897E+02  0.84690347683E+02  0.16579987632E+03  0.12509000000E+03 0.  0.
         25    1    4    4    0    0  0.75041435322E+01  0.56391291578E+02  0.17628517277E+02  0.13854444290E+03  0.12509000000E+03 0.  0.
<mgrwt>
<rscale>  2 0.45588980E+03</rscale>
<asrwt>0</asrwt>
<pdfrwt beam="1">  1       21 0.47071895E-01 0.45588980E+03</pdfrwt>
<pdfrwt beam="2">  1       21 0.23871530E-01 0.45588980E+03</pdfrwt>
<totfact> 0.66056899E+04</totfact>
</mgrwt>
</event>
<event>
 7    0  0.4709932E-002  0.4560399E+03  0.7546771E-02  0.1025936E+00
         21   -1    0    0  502  501  0.00000000000E+00  0.00000000000E+00  0.19936392322E+03  0.19936392322E+03  0.00000000000E+00 0. -1.
         21   -1    0    0  501  502 -0.00000000000E+00 -0.00000000000E+00 -0.26079487836E+03  0.26079487836E+03  0.00000000000E+00 0. -1.
      99926    2    1    2    0    0 -0.71054273576E-14  0.00000000000E+00 -0.61430955140E+02  0.46015880158E+03  0.45603986715E+03 0.  0.
      99925    2    3    3    0    0  0.39045875468E+02  0.68255218685E+02  0.44836985644E+02  0.27815951970E+03  0.26301902564E+03 0.  0.
         25    1    3    3    0    0 -0.39045875468E+02 -0.68255218685E+02 -0.10626794078E+03  0.18199928189E+03  0.12509000000E+03 0.  0.
         25    1    4    4    0    0  0.32526670731E+02  0.64283426033E+00  0.11248665356E+01  0.12925622217E+03  0.12509000000E+03 0.  0.
         25    1    4    4    0    0  0.65192047369E+01  0.67612384424E+02  0.43712119108E+02  0.14890329753E+03  0.12509000000E+03 0.  0.
<mgrwt>
<rscale>  2 0.45603987E+03</rscale>
<asrwt>0</asrwt>
<pdfrwt beam="1">  1       21 0.29318224E-01 0.45603987E+03</pdfrwt>
<pdfrwt beam="2">  1       21 0.38352188E-01 0.45603987E+03</pdfrwt>
<totfact> 0.67606610E+04</totfact>
</mgrwt>
</event>
<event>
 7    0  0.4709932E-002  0.4548542E+03  0.7546771E-02  0.1026284E+00
         21   -1    0    0  502  501  0.00000000000E+00  0.00000000000E+00  0.21095769978E+02  0.21095769978E+02  0.00000000000E+00 0.  1.
         21   -1    0    0  501  502 -0.00000000000E+00 -0.00000000000E+00 -0.24518224241E+04  0.24518224241E+04  0.00000000000E+00 0.  1.
      99926    2    1    2    0    0 -0.14210854715E-13  0.00000000000E+00 -0.24307266541E+04  0.24729181941E+04  0.45485418272E+03 0.  0.
      99925    2    3    3    0    0  0.10009814998E+03  0.35097177089E+02 -0.17351222057E+04  0.17582402889E+04  0.26364444451E+03 0.  0.
         25    1    3    3    0    0 -0.10009814998E+03 -0.35097177089E+02 -0.69560444838E+03  0.71467790520E+03  0.12509000000E+03 0.  0.
         25    1    4    4    0    0  0.66305582653E+02  0.16526943628E+01 -0.11072398112E+04  0.11162556469E+04  0.12509000000E+03 0.  0.
         25    1    4    4    0    0  0.33792567325E+02  0.33444482726E+02 -0.62788239459E+03  0.64198464201E+03  0.12509000000E+03 0.  0.
<mgrwt>
<rscale>  2 0.45485418E+03</rscale>
<asrwt>0</asrwt>
<pdfrwt beam="1">  1       21 0.31023178E-02 0.45485418E+03</pdfrwt>
<pdfrwt beam="2">  1       21 0.36056227E+00 0.45485418E+03</pdfrwt>
<totfact> 0.74212899E+03</totfact>
</mgrwt>
</event>
<event>
 7    0  0.4709932E-002  0.4693158E+03  0.7546771E-02  0.1022113E+00
         21   -1    0    0  502  501  0.00000000000E+00  0.00000000000E+00  0.19900206031E+03  0.19900206031E+03  0.00000000000E+00 0. -1.
         21   -1    0    0  501  502 -0.00000000000E+00 -0.00000000000E+00 -0.27670235475E+03  0.27670235475E+03  0.00000000000E+00 0. -1.
      99926    2    1    2    0    0  0.71054273576E-14  0.00000000000E+00 -0.77700294443E+02  0.47570441506E+03  0.46931583689E+03 0.  0.
      99925    2    3    3    0    0 -0.63565370716E+02 -0.35052737489E+02 -0.15284666896E+03  0.31272056168E+03  0.26298820264E+03 0.  0.
         25    1    4    4    0    0 -0.70131206464E+02 -0.29995096922E+01 -0.84272993571E+02  0.16636354385E+03  0.12509000000E+03 0.  0.
         25    1    3    3    0    0  0.63565370716E+02  0.35052737489E+02  0.75146374518E+02  0.16298385338E+03  0.12509000000E+03 0.  0.
         25    1    4    4    0    0  0.65658357477E+01 -0.32053227797E+02 -0.68573675389E+02  0.14635701783E+03  0.12509000000E+03 0.  0.
<mgrwt>
<rscale>  2 0.46931584E+03</rscale>
<asrwt>0</asrwt>
<pdfrwt beam="1">  1       21 0.29265009E-01 0.46931584E+03</pdfrwt>
<pdfrwt beam="2">  1       21 0.40691522E-01 0.46931584E+03</pdfrwt>
<totfact> 0.59909243E+04</totfact>
</mgrwt>
</event>
<event>
 6    0  0.4709932E-002  0.4569467E+03  0.7546771E-02  0.1025670E+00
         21   -1    0    0  502  501  0.00000000000E+00  0.00000000000E+00  0.16200781489E+03  0.16200781489E+03  0.00000000000E+00 0. -1.
         21   -1    0    0  501  502 -0.00000000000E+00 -0.00000000000E+00 -0.32220719065E+03  0.32220719065E+03  0.00000000000E+00 0. -1.
      99926    2    1    2    0    0  0.00000000000E+00  0.88817841970E-15 -0.16019937577E+03  0.48421500554E+03  0.45694674919E+03 0.  0.
         25    1    3    3    0    0 -0.30252038869E+02  0.89935984447E+01 -0.29920729226E+02  0.13243424333E+03  0.12509000000E+03 0.  0.
         25    1    3    3    0    0 -0.87366685644E+02 -0.13480558199E+02 -0.80029924116E+02  0.17282060081E+03  0.12509000000E+03 0.  0.
         25    1    3    3    0    0  0.11761872451E+03  0.44869597543E+01 -0.50248722425E+02  0.17896016140E+03  0.12509000000E+03 0.  0.
<mgrwt>
<rscale>  2 0.45694675E+03</rscale>
<asrwt>0</asrwt>
<pdfrwt beam="1">  1       21 0.23824679E-01 0.45694675E+03</pdfrwt>
<pdfrwt beam="2">  1       21 0.47383410E-01 0.45694675E+03</pdfrwt>
<totfact> 0.65378361E+04</totfact>
</mgrwt>
</event>
<event>
 6    0  0.4709932E-002  0.4553936E+03  0.7546771E-02  0.1026126E+00
         21   -1    0    0  502  501  0.00000000000E+00  0.00000000000E+00  0.12229165712E+04  0.12229165712E+04  0.00000000000E+00 0. -1.
         21   -1    0    0  501  502 -0.00000000000E+00 -0.00000000000E+00 -0.42395228300E+02  0.42395228300E+02  0.00000000000E+00 0. -1.
      99926    2    1    2    0    0  0.00000000000E+00  0.00000000000E+00  0.11805213429E+04  0.12653117995E+04  0.45539357584E+03 0.  0.
         25    1    3    3    0    0 -0.29001043514E+02  0.69784365179E+02  0.22506975638E+03  0.26835577409E+03  0.12509000000E+03 0.  0.
         25    1    3    3    0    0  0.31026976558E+02 -0.45594846355E+02  0.67796741272E+03  0.69161324749E+03  0.12509000000E+03 0.  0.
         25    1    3    3    0    0 -0.20259330445E+01 -0.24189518823E+02  0.27748417383E+03  0.30534277796E+03  0.12509000000E+03 0.  0.
<mgrwt>
<rscale>  2 0.45539358E+03</rscale>
<asrwt>0</asrwt>
<pdfrwt beam="1">  1       21 0.17984065E+00 0.45539358E+03</pdfrwt>
<pdfrwt beam="2">  1       21 0.62345932E-02 0.45539358E+03</pdfrwt>
<totfact> 0.30046842E+04</totfact>
</mgrwt>
</event>
<event>
 7    0  0.4709932E-002  0.4538254E+03  0.7546771E-02  0.1026587E+00
         21   -1    0    0  502  501  0.00000000000E+00  0.00000000000E+00  0.20105802468E+03  0.20105802468E+03  0.00000000000E+00 0. -1.
         21   -1    0    0  501  502 -0.00000000000E+00 -0.00000000000E+00 -0.25609207117E+03  0.25609207117E+03  0.00000000000E+00 0. -1.
      99926    2    1    2    0    0  0.00000000000E+00  0.00000000000E+00 -0.55034046486E+02  0.45715009585E+03  0.45382536714E+03 0.  0.
      99925    2    3    3    0    0  0.63665230193E+02 -0.34533298751E+02  0.51502688900E+02  0.27758563849E+03  0.26297423728E+03 0.  0.
         25    1    4    4    0    0  0.16329746270E+02 -0.53512997602E+02  0.16379356231E+02  0.13800758289E+03  0.12509000000E+03 0.  0.
         25    1    4    4    0    0  0.47335483923E+02  0.18979698851E+02  0.35123332669E+02  0.13957805560E+03  0.12509000000E+03 0.  0.
         25    1    3    3    0    0 -0.63665230193E+02  0.34533298751E+02 -0.10653673539E+03  0.17956445735E+03  0.12509000000E+03 0.  0.
<mgrwt>
<rscale>  2 0.45382537E+03</rscale>
<asrwt>0</asrwt>
<pdfrwt beam="1">  1       21 0.29567357E-01 0.45382537E+03</pdfrwt>
<pdfrwt beam="2">  1       21 0.37660599E-01 0.45382537E+03</pdfrwt>
<totfact> 0.69033126E+04</totfact>
</mgrwt>
</event>
<event>
 7    0  0.4709932E-002  0.4567045E+03  0.7546771E-02  0.1025741E+00
         21   -1    0    0  502  501  0.00000000000E+00  0.00000000000E+00  0.13465356861E+03  0.13465356861E+03  0.00000000000E+00 0.  1.
         21   -1    0    0  501  502 -0.00000000000E+00 -0.00000000000E+00 -0.38725117674E+03  0.38725117674E+03  0.00000000000E+00 0.  1.
      99926    2    1    2    0    0  0.00000000000E+00  0.00000000000E+00 -0.25259760814E+03  0.52190474535E+03  0.45670451233E+03 0.  0.
      99925    2    3    3    0    0  0.57248929714E+02 -0.53276515636E+02 -0.62688020190E+02  0.28142816278E+03  0.26297565640E+03 0.  0.
         25    1    4    4    0    0  0.36838561587E+01 -0.57706978988E+02 -0.23931019772E+02  0.13987089771E+03  0.12509000000E+03 0.  0.
         25    1    4    4    0    0  0.53565073555E+02  0.44304633517E+01 -0.38757000418E+02  0.14155726506E+03  0.12509000000E+03 0.  0.
         25    1    3    3    0    0 -0.57248929714E+02  0.53276515636E+02 -0.18990958795E+03  0.24047658257E+03  0.12509000000E+03 0.  0.
<mgrwt>
<rscale>  2 0.45670451E+03</rscale>
<asrwt>0</asrwt>
<pdfrwt beam="1">  1       21 0.19801996E-01 0.45670451E+03</pdfrwt>
<pdfrwt beam="2">  1       21 0.56948701E-01 0.45670451E+03</pdfrwt>
<totfact> 0.62902731E+04</totfact>
</mgrwt>
</event>
<event>
 7    0  0.4709932E-002  0.4577854E+03  0.7546771E-02  0.1025425E+00
         21   -1    0    0  502  501  0.00000000000E+00  0.00000000000E+00  0.79580683814E+02  0.79580683814E+02  0.00000000000E+00 0.  1.
         21   -1    0    0  501  502 -0.00000000000E+00 -0.00000000000E+00 -0.65834909883E+03  0.65834909883E+03  0.00000000000E+00 0.  1.
      99926    2    1    2    0    0  0.44408920985E-15  0.00000000000E+00 -0.57876841502E+03  0.73792978265E+03  0.45778541468E+03 0.  0.
      99925    2    3    3    0    0  0.83160676016E+00  0.78977765822E+02 -0.49974781438E+03  0.57020994933E+03  0.26297020604E+03 0.  0.
         25    1    4    4    0    0 -0.46599181833E+01  0.60286526981E+02 -0.18825378690E+03  0.23397259788E+03  0.12509000000E+03 0.  0.
         25    1    3    3    0    0 -0.83160676016E+00 -0.78977765822E+02 -0.79020600636E+02  0.16771983332E+03  0.12509000000E+03 0.  0.
         25    1    4    4    0    0  0.54915249435E+01  0.18691238841E+02 -0.31149402748E+03  0.33623735145E+03  0.12509000000E+03 0.  0.
<mgrwt>
<rscale>  2 0.45778541E+03</rscale>
<asrwt>0</asrwt>
<pdfrwt beam="1">  1       21 0.11703042E-01 0.45778541E+03</pdfrwt>
<pdfrwt beam="2">  1       21 0.96816043E-01 0.45778541E+03</pdfrwt>
<totfact> 0.49792157E+04</totfact>
</mgrwt>
</event>
<event>
 7    0  0.4709932E-002  0.4463077E+03  0.7546771E-02  0.1028829E+00
         21   -1    0    0  502  501  0.00000000000E+00  0.00000000000E+00  0.72863408590E+02  0.72863408590E+02  0.00000000000E+00 0. -1.
         21   -1    0    0  501  502 -0.00000000000E+00 -0.00000000000E+00 -0.68343833618E+03  0.68343833618E+03  0.00000000000E+00 0. -1.
      99926    2    1    2    0    0  0.00000000000E+00  0.14210854715E-13 -0.61057492759E+03  0.75630174477E+03  0.44630772673E+03 0.  0.
      99925    2    3    3    0    0  0.98486772192E+01  0.10353445854E+03 -0.36551780345E+03  0.46216422125E+03  0.26301353999E+03 0.  0.
         25    1    4    4    0    0  0.20648485991E+02  0.74045080510E+02 -0.14288508422E+03  0.20487237324E+03  0.12509000000E+03 0.  0.
         25    1    4    4    0    0 -0.10799808772E+02  0.29489378033E+02 -0.22263271922E+03  0.25729184801E+03  0.12509000000E+03 0.  0.
         25    1    3    3    0    0 -0.98486772192E+01 -0.10353445854E+03 -0.24505712415E+03  0.29413752352E+03  0.12509000000E+03 0.  0.
<mgrwt>
<rscale>  2 0.44630773E+03</rscale>
<asrwt>0</asrwt>
<pdfrwt beam="1">  1       21 0.10715207E-01 0.44630773E+03</pdfrwt>
<pdfrwt beam="2">  1       21 0.10050564E+00 0.44630773E+03</pdfrwt>
<totfact> 0.53510050E+04</totfact>
</mgrwt>
</event>
<event>
 7    0  0.4709932E-002  0.4535914E+03  0.7546771E-02  0.1026656E+00
         21   -1    0    0  502  501  0.00000000000E+00  0.00000000000E+00  0.26253385908E+02  0.26253385908E+02  0.00000000000E+00 0.  1.
         21   -1    0    0  501  502 -0.00000000000E+00 -0.00000000000E+00 -0.19592251411E+04  0.19592251411E+04  0.00000000000E+00 0.  1.
      99926    2    1    2    0    0  0.00000000000E+00  0.00000000000E+00 -0.19329717552E+04  0.19854785270E+04  0.45359141839E+03 0.  0.
      99925    2    3    3    0    0  0.79114415001E+02 -0.32082690784E+02 -0.90347708898E+03  0.94490408682E+03  0.26321947738E+03 0.  0.
         25    1    4    4    0    0  0.70351217314E+01 -0.31706763809E+02 -0.49783014248E+03  0.51433177101E+03  0.12509000000E+03 0.  0.
         25    1    3    3    0    0 -0.79114415001E+02  0.32082690784E+02 -0.10294946662E+04  0.10405744401E+04  0.12509000000E+03 0.  0.
         25    1    4    4    0    0  0.72079293269E+02 -0.37592697493E+00 -0.40564694650E+03  0.43057231582E+03  0.12509000000E+03 0.  0.
<mgrwt>
<rscale>  2 0.45359142E+03</rscale>
<asrwt>0</asrwt>
<pdfrwt beam="1">  1       21 0.38607905E-02 0.45359142E+03</pdfrwt>
<pdfrwt beam="2">  1       21 0.28812146E+00 0.45359142E+03</pdfrwt>
<totfact> 0.14101808E+04</totfact>
</mgrwt>
</event>
<event>
 7    0  0.4709932E-002  0.4405317E+03  0.7546771E-02  0.1030584E+00
         21   -1    0    0  502  501  0.00000000000E+00  0.00000000000E+00  0.26925024781E+03  0.26925024781E+03  0.00000000000E+00 0.  1.
         21   -1    0    0  501  502 -0.00000000000E+00 -0.00000000000E+00 -0.18019312362E+03  0.18019312362E+03  0.00000000000E+00 0.  1.
      99926    2    1    2    0    0 -0.71054273576E-14  0.00000000000E+00  0.89057124186E+02  0.44944337143E+03  0.44053169325E+03 0.  0.
      99925    2    3    3    0    0  0.42087049413E+02  0.80772170831E+02  0.96372306776E+02  0.29453538808E+03  0.26299811788E+03 0.  0.
         25    1    4    4    0    0  0.18678086061E+01  0.58878459773E+01  0.26870819094E+02  0.12809256207E+03  0.12509000000E+03 0.  0.
         25    1    4    4    0    0  0.40219240807E+02  0.74884324853E+02  0.69501487681E+02  0.16644282601E+03  0.12509000000E+03 0.  0.
         25    1    3    3    0    0 -0.42087049413E+02 -0.80772170831E+02 -0.73151825903E+01  0.15490798335E+03  0.12509000000E+03 0.  0.
<mgrwt>
<rscale>  2 0.44053169E+03</rscale>
<asrwt>0</asrwt>
<pdfrwt beam="1">  1       21 0.39595625E-01 0.44053169E+03</pdfrwt>
<pdfrwt beam="2">  1       21 0.26498989E-01 0.44053169E+03</pdfrwt>
<totfact> 0.77517088E+04</totfact>
</mgrwt>
</event>
<event>
 7    0  0.4709932E-002  0.4532277E+03  0.7546771E-02  0.1026764E+00
         21   -1    0    0  502  501  0.00000000000E+00  0.00000000000E+00  0.13141978502E+04  0.13141978502E+04  0.00000000000E+00 0.  1.
         21   -1    0    0  501  502 -0.00000000000E+00 -0.00000000000E+00 -0.39076187377E+02  0.39076187377E+02  0.00000000000E+00 0.  1.
      99926    2    1    2    0    0 -0.14210854715E-13  0.14210854715E-13  0.12751216628E+04  0.13532740375E+04  0.45322771956E+03 0.  0.
      99925    2    3    3    0    0 -0.76966780736E+02 -0.72218915311E+02  0.91215364199E+03  0.95511232506E+03  0.26282281069E+03 0.  0.
         25    1    4    4    0    0 -0.58067044752E+02 -0.74261692894E+02  0.51458026306E+03  0.53789119341E+03  0.12509000000E+03 0.  0.
         25    1    3    3    0    0  0.76966780736E+02  0.72218915311E+02  0.36296802080E+03  0.39816171249E+03  0.12509000000E+03 0.  0.
         25    1    4    4    0    0 -0.18899735984E+02  0.20427775836E+01  0.39757337893E+03  0.41722113165E+03  0.12509000000E+03 0.  0.
<mgrwt>
<rscale>  2 0.45322772E+03</rscale>
<asrwt>0</asrwt>
<pdfrwt beam="1">  1       21 0.19326436E+00 0.45322772E+03</pdfrwt>
<pdfrwt beam="2">  1       21 0.57464990E-02 0.45322772E+03</pdfrwt>
<totfact> 0.27987791E+04</totfact>
</mgrwt>
</event>
<event>
 7    0  0.4709932E-002  0.4523237E+03  0.7546771E-02  0.1027031E+00
         21   -1    0    0  502  501  0.00000000000E+00  0.00000000000E+00  0.21821669240E+02  0.21821669240E+02  0.00000000000E+00 0. -1.
         21   -1    0    0  501  502 -0.00000000000E+00 -0.00000000000E+00 -0.23439627715E+04  0.23439627715E+04  0.00000000000E+00 0. -1.
      99926    2    1    2    0    0  0.17763568394E-14  0.00000000000E+00 -0.23221411022E+04  0.23657844407E+04  0.45232369078E+03 0.  0.
      99925    2    3    3    0    0  0.85447207925E+01 -0.96334861161E+02 -0.17464337803E+04  0.17687586068E+04  0.26291185299E+03 0.  0.
         25    1    3    3    0    0 -0.85447207925E+01  0.96334861161E+02 -0.57570732196E+03  0.59702583394E+03  0.12509000000E+03 0.  0.
         25    1    4    4    0    0 -0.28017548248E+02 -0.32017168654E+02 -0.71060214510E+03  0.72278143226E+03  0.12509000000E+03 0.  0.
         25    1    4    4    0    0  0.36562269041E+02 -0.64317692507E+02 -0.10358316352E+04  0.10459771745E+04  0.12509000000E+03 0.  0.
<mgrwt>
<rscale>  2 0.45232369E+03</rscale>
<asrwt>0</asrwt>
<pdfrwt beam="1">  1       21 0.32090717E-02 0.45232369E+03</pdfrwt>
<pdfrwt beam="2">  1       21 0.34470012E+00 0.45232369E+03</pdfrwt>
<totfact> 0.87856675E+03</totfact>
</mgrwt>
</event>
<event>
 7    0  0.4709932E-002  0.4546821E+03  0.7546771E-02  0.1026335E+00
         21   -1    0    0  502  501  0.00000000000E+00  0.00000000000E+00  0.62754057281E+02  0.62754057281E+02  0.00000000000E+00 0.  1.
         21   -1    0    0  501  502 -0.00000000000E+00 -0.00000000000E+00 -0.82359554281E+03  0.82359554281E+03  0.00000000000E+00 0.  1.
      99926    2    1    2    0    0  0.00000000000E+00 -0.35527136788E-14 -0.76084148553E+03  0.88634960009E+03  0.45468213895E+03 0.  0.
      99925    2    3    3    0    0  0.86679400080E+02 -0.16212193828E+02 -0.34180239985E+03  0.44023591833E+03  0.26306392686E+03 0.  0.
         25    1    4    4    0    0  0.17324643905E+02  0.21505534923E+02 -0.18101032149E+03  0.22175408881E+03  0.12509000000E+03 0.  0.
         25    1    3    3    0    0 -0.86679400080E+02  0.16212193828E+02 -0.41903908569E+03  0.44611368177E+03  0.12509000000E+03 0.  0.
         25    1    4    4    0    0  0.69354756175E+02 -0.37717728751E+02 -0.16079207836E+03  0.21848182952E+03  0.12509000000E+03 0.  0.
<mgrwt>
<rscale>  2 0.45468214E+03</rscale>
<asrwt>0</asrwt>
<pdfrwt beam="1">  1       21 0.92285385E-02 0.45468214E+03</pdfrwt>
<pdfrwt beam="2">  1       21 0.12111698E+00 0.45468214E+03</pdfrwt>
<totfact> 0.43938431E+04</totfact>
</mgrwt>
</event>
<event>
 7    0  0.4709932E-002  0.4701322E+03  0.7546771E-02  0.1021883E+00
         21   -1    0    0  502  501  0.00000000000E+00  0.00000000000E+00  0.27634088768E+04  0.27634088768E+04  0.00000000000E+00 0.  1.
         21   -1    0    0  501  502 -0.00000000000E+00 -0.00000000000E+00 -0.19995621798E+02  0.19995621798E+02  0.00000000000E+00 0.  1.
      99926    2    1    2    0    0  0.00000000000E+00  0.00000000000E+00  0.27434132550E+04  0.27834044986E+04  0.47013223150E+03 0.  0.
      99925    2    3    3    0    0 -0.11485791869E+03 -0.53037830144E+02  0.17512199623E+04  0.17753864476E+04  0.26309756579E+03 0.  0.
         25    1    4    4    0    0 -0.59109336345E+02 -0.25354565205E+02  0.63100783856E+03  0.64649452283E+03  0.12509000000E+03 0.  0.
         25    1    4    4    0    0 -0.55748582349E+02 -0.27683264938E+02  0.11202121238E+04  0.11288919248E+04  0.12509000000E+03 0.  0.
         25    1    3    3    0    0  0.11485791869E+03  0.53037830144E+02  0.99219329265E+03  0.10080180509E+04  0.12509000000E+03 0.  0.
<mgrwt>
<rscale>  2 0.47013223E+03</rscale>
<asrwt>0</asrwt>
<pdfrwt beam="1">  1       21 0.40638339E+00 0.47013223E+03</pdfrwt>
<pdfrwt beam="2">  1       21 0.29405345E-02 0.47013223E+03</pdfrwt>
<totfact> 0.41366259E+03</totfact>
</mgrwt>
</event>
<event>
 7    0  0.4709932E-002  0.4562695E+03  0.7546771E-02  0.1025869E+00
         21   -1    0    0  502  501  0.00000000000E+00  0.00000000000E+00  0.65157500248E+02  0.65157500248E+02  0.00000000000E+00 0. -1.
         21   -1    0    0  501  502 -0.00000000000E+00 -0.00000000000E+00 -0.79876395919E+03  0.79876395919E+03  0.00000000000E+00 0. -1.
      99926    2    1    2    0    0  0.00000000000E+00  0.71054273576E-14 -0.73360645894E+03  0.86392145944E+03  0.45626949435E+03 0.  0.
      99925    2    3    3    0    0  0.13286386653E+02  0.54124674769E+02 -0.65019006359E+03  0.70357242888E+03  0.26298485773E+03 0.  0.
         25    1    4    4    0    0  0.19133596721E+02 -0.66064407484E+01 -0.25843291117E+03  0.28782775623E+03  0.12509000000E+03 0.  0.
         25    1    3    3    0    0 -0.13286386653E+02 -0.54124674769E+02 -0.83416395354E+02  0.16034903056E+03  0.12509000000E+03 0.  0.
         25    1    4    4    0    0 -0.58472100680E+01  0.60731115518E+02 -0.39175715242E+03  0.41574467264E+03  0.12509000000E+03 0.  0.
<mgrwt>
<rscale>  2 0.45626949E+03</rscale>
<asrwt>0</asrwt>
<pdfrwt beam="1">  1       21 0.95819857E-02 0.45626949E+03</pdfrwt>
<pdfrwt beam="2">  1       21 0.11746528E+00 0.45626949E+03</pdfrwt>
<totfact> 0.44379304E+04</totfact>
</mgrwt>
</event>
<event>
 7    0  0.4709932E-002  0.4575098E+03  0.7546771E-02  0.1025506E+00
         21   -1    0    0  502  501  0.00000000000E+00  0.00000000000E+00  0.15861933733E+04  0.15861933733E+04  0.00000000000E+00 0.  1.
         21   -1    0    0  501  502 -0.00000000000E+00 -0.00000000000E+00 -0.32990182392E+02  0.32990182392E+02  0.00000000000E+00 0.  1.
      99926    2    1    2    0    0  0.14210854715E-13  0.35527136788E-14  0.15532031909E+04  0.16191835557E+04  0.45750981932E+03 0.  0.
      99925    2    3    3    0    0  0.10608326636E+03  0.50341591376E+01  0.81257171827E+03  0.86059177580E+03  0.26280488025E+03 0.  0.
         25    1    4    4    0    0  0.30288788864E+02  0.35524384400E+02  0.40981210597E+03  0.43101376186E+03  0.12509000000E+03 0.  0.
         25    1    4    4    0    0  0.75794477495E+02 -0.30490225262E+02  0.40275961230E+03  0.42957801394E+03  0.12509000000E+03 0.  0.
         25    1    3    3    0    0 -0.10608326636E+03 -0.50341591376E+01  0.74063147263E+03  0.75859177989E+03  0.12509000000E+03 0.  0.
<mgrwt>
<rscale>  2 0.45750982E+03</rscale>
<asrwt>0</asrwt>
<pdfrwt beam="1">  1       21 0.23326368E+00 0.45750982E+03</pdfrwt>
<pdfrwt beam="2">  1       21 0.48514985E-02 0.45750982E+03</pdfrwt>
<totfact> 0.20595444E+04</totfact>
</mgrwt>
</event>
<event>
 7    0  0.4709932E-002  0.4639218E+03  0.7546771E-02  0.1023650E+00
         21   -1    0    0  502  501  0.00000000000E+00  0.00000000000E+00  0.27638524356E+03  0.27638524356E+03  0.00000000000E+00 0.  1.
         21   -1    0    0  501  502 -0.00000000000E+00 -0.00000000000E+00 -0.19467706499E+03  0.19467706499E+03  0.00000000000E+00 0.  1.
      99926    2    1    2    0    0  0.00000000000E+00  0.00000000000E+00  0.81708178578E+02  0.47106230855E+03  0.46392183834E+03 0.  0.
      99925    2    3    3    0    0 -0.56883127951E+02  0.10002214833E+03  0.90230103103E+02  0.30088518993E+03  0.26296445694E+03 0.  0.
         25    1    3    3    0    0  0.56883127951E+02 -0.10002214833E+03 -0.85219245253E+01  0.17017711861E+03  0.12509000000E+03 0.  0.
         25    1    4    4    0    0 -0.39245720809E+02  0.58776233678E+02  0.86986381115E+02  0.16795538350E+03  0.12509000000E+03 0.  0.
         25    1    4    4    0    0 -0.17637407141E+02  0.41245914653E+02  0.32437219879E+01  0.13292980643E+03  0.12509000000E+03 0.  0.
<mgrwt>
<rscale>  2 0.46392184E+03</rscale>
<asrwt>0</asrwt>
<pdfrwt beam="1">  1       21 0.40644889E-01 0.46392184E+03</pdfrwt>
<pdfrwt beam="2">  1       21 0.28628980E-01 0.46392184E+03</pdfrwt>
<totfact> 0.62789703E+04</totfact>
</mgrwt>
</event>
<event>
 7    0  0.4709932E-002  0.4807143E+03  0.7546771E-02  0.1018939E+00
         21   -1    0    0  502  501  0.00000000000E+00  0.00000000000E+00  0.24088889855E+03  0.24088889855E+03  0.00000000000E+00 0. -1.
         21   -1    0    0  501  502 -0.00000000000E+00 -0.00000000000E+00 -0.23982657841E+03  0.23982657841E+03  0.00000000000E+00 0. -1.
      99926    2    1    2    0    0 -0.14210854715E-13  0.00000000000E+00  0.10623201363E+01  0.48071547696E+03  0.48071430316E+03 0.  0.
      99925    2    3    3    0    0  0.95207566174E+02  0.82626840781E+02 -0.50053971522E+02  0.29591272035E+03  0.26299669680E+03 0.  0.
         25    1    4    4    0    0  0.74920586075E+02  0.76220165565E+02 -0.34111230791E+02  0.16802884283E+03  0.12509000000E+03 0.  0.
         25    1    3    3    0    0 -0.95207566174E+02 -0.82626840781E+02  0.51116291659E+02  0.18480275660E+03  0.12509000000E+03 0.  0.
         25    1    4    4    0    0  0.20286980099E+02  0.64066752164E+01 -0.15942740732E+02  0.12788387753E+03  0.12509000000E+03 0.  0.
<mgrwt>
<rscale>  2 0.48071430E+03</rscale>
<asrwt>0</asrwt>
<pdfrwt beam="1">  1       21 0.35424838E-01 0.48071430E+03</pdfrwt>
<pdfrwt beam="2">  1       21 0.35268614E-01 0.48071430E+03</pdfrwt>
<totfact> 0.54607632E+04</totfact>
</mgrwt>
</event>
<event>
 7    0  0.4709932E-002  0.4617610E+03  0.7546771E-02  0.1024272E+00
         21   -1    0    0  502  501  0.00000000000E+00  0.00000000000E+00  0.12242090812E+03  0.12242090812E+03  0.00000000000E+00 0.  1.
         21   -1    0    0  501  502 -0.00000000000E+00 -0.00000000000E+00 -0.43543054084E+03  0.43543054084E+03  0.00000000000E+00 0.  1.
      99926    2    1    2    0    0  0.14210854715E-13  0.00000000000E+00 -0.31300963272E+03  0.55785144896E+03  0.46176098680E+03 0.  0.
      99925    2    3    3    0    0  0.90231573453E+02  0.68784482859E+02 -0.15103317581E+03  0.32384947755E+03  0.26304832633E+03 0.  0.
         25    1    3    3    0    0 -0.90231573453E+02 -0.68784482859E+02 -0.16197645691E+03  0.23400197141E+03  0.12509000000E+03 0.  0.
         25    1    4    4    0    0  0.11795103156E+02  0.57755395673E+02 -0.77850323227E+02  0.15869149667E+03  0.12509000000E+03 0.  0.
         25    1    4    4    0    0  0.78436470297E+02  0.11029087186E+02 -0.73182852580E+02  0.16515798088E+03  0.12509000000E+03 0.  0.
<mgrwt>
<rscale>  2 0.46176099E+03</rscale>
<asrwt>0</asrwt>
<pdfrwt beam="1">  1       21 0.18003075E-01 0.46176099E+03</pdfrwt>
<pdfrwt beam="2">  1       21 0.64033903E-01 0.46176099E+03</pdfrwt>
<totfact> 0.58176240E+04</totfact>
</mgrwt>
</event>
<event>
 7    0  0.4709932E-002  0.4548122E+03  0.7546771E-02  0.1026297E+00
         21   -1    0    0  502  501  0.00000000000E+00  0.00000000000E+00  0.12709270079E+03  0.12709270079E+03  0.00000000000E+00 0. -1.
         21   -1    0    0  501  502 -0.00000000000E+00 -0.00000000000E+00 -0.40689623036E+03  0.40689623036E+03  0.00000000000E+00 0. -1.
      99926    2    1    2    0    0 -0.14210854715E-13  0.00000000000E+00 -0.27980352957E+03  0.53398893115E+03  0.45481222876E+03 0.  0.
      99925    2    3    3    0    0 -0.87927537846E+02  0.63789003509E+02 -0.13911325408E+03  0.31663771629E+03  0.26288145054E+03 0.  0.
         25    1    4    4    0    0 -0.19627608355E+02  0.58984228486E+02 -0.88294411524E+02  0.16525069872E+03  0.12509000000E+03 0.  0.
         25    1    3    3    0    0  0.87927537846E+02 -0.63789003509E+02 -0.14069027550E+03  0.21735121486E+03  0.12509000000E+03 0.  0.
         25    1    4    4    0    0 -0.68299929491E+02  0.48047750229E+01 -0.50818842552E+02  0.15138701757E+03  0.12509000000E+03 0.  0.
<mgrwt>
<rscale>  2 0.45481223E+03</rscale>
<asrwt>0</asrwt>
<pdfrwt beam="1">  1       21 0.18690103E-01 0.45481223E+03</pdfrwt>
<pdfrwt beam="2">  1       21 0.59837681E-01 0.45481223E+03</pdfrwt>
<totfact> 0.63030721E+04</totfact>
</mgrwt>
</event>
<event>
 7    0  0.4709932E-002  0.4550720E+03  0.7546771E-02  0.1026220E+00
         21   -1    0    0  502  501  0.00000000000E+00  0.00000000000E+00  0.35580216010E+03  0.35580216010E+03  0.00000000000E+00 0.  1.
         21   -1    0    0  501  502 -0.00000000000E+00 -0.00000000000E+00 -0.14550961289E+03  0.14550961289E+03  0.00000000000E+00 0.  1.
      99926    2    1    2    0    0  0.00000000000E+00  0.00000000000E+00  0.21029254721E+03  0.50131177299E+03  0.45507201444E+03 0.  0.
      99925    2    3    3    0    0  0.64415538896E+02 -0.91191320730E+02  0.15276280950E+03  0.32404813473E+03  0.26306938064E+03 0.  0.
         25    1    4    4    0    0  0.70854462664E+02 -0.34202584838E+02  0.87599474483E+02  0.17178867168E+03  0.12509000000E+03 0.  0.
         25    1    3    3    0    0 -0.64415538896E+02  0.91191320730E+02  0.57529737708E+02  0.17726363826E+03  0.12509000000E+03 0.  0.
         25    1    4    4    0    0 -0.64389237679E+01 -0.56988735892E+02  0.65163335017E+02  0.15225946305E+03  0.12509000000E+03 0.  0.
<mgrwt>
<rscale>  2 0.45507201E+03</rscale>
<asrwt>0</asrwt>
<pdfrwt beam="1">  1       21 0.52323847E-01 0.45507201E+03</pdfrwt>
<pdfrwt beam="2">  1       21 0.21398473E-01 0.45507201E+03</pdfrwt>
<totfact> 0.65141359E+04</totfact>
</mgrwt>
</event>
<event>
 7    0  0.4709932E-002  0.4528169E+03  0.7546771E-02  0.1026885E+00
         21   -1    0    0  502  501  0.00000000000E+00  0.00000000000E+00  0.11057143520E+03  0.11057143520E+03  0.00000000000E+00 0.  1.
         21   -1    0    0  501  502 -0.00000000000E+00 -0.00000000000E+00 -0.46359888419E+03  0.46359888419E+03  0.00000000000E+00 0.  1.
      99926    2    1    2    0    0  0.00000000000E+00  0.00000000000E+00 -0.35302744899E+03  0.57417031938E+03  0.45281693422E+03 0.  0.
      99925    2    3    3    0    0  0.32196270438E+02 -0.23290541538E+02 -0.90958338957E+02  0.28107174264E+03  0.26296170050E+03 0.  0.
         25    1    3    3    0    0 -0.32196270438E+02  0.23290541538E+02 -0.26206911003E+03  0.29309857674E+03  0.12509000000E+03 0.  0.
         25    1    4    4    0    0  0.46708259043E+02  0.13669369691E+02 -0.37526022945E+02  0.13937081340E+03  0.12509000000E+03 0.  0.
         25    1    4    4    0    0 -0.14511988605E+02 -0.36959911230E+02 -0.53432316012E+02  0.14170092923E+03  0.12509000000E+03 0.  0.
<mgrwt>
<rscale>  2 0.45281693E+03</rscale>
<asrwt>0</asrwt>
<pdfrwt beam="1">  1       21 0.16260505E-01 0.45281693E+03</pdfrwt>
<pdfrwt beam="2">  1       21 0.68176308E-01 0.45281693E+03</pdfrwt>
<totfact> 0.61349129E+04</totfact>
</mgrwt>
</event>
<event>
 7    0  0.4709932E-002  0.4454547E+03  0.7546771E-02  0.1029086E+00
         21   -1    0    0  502  501  0.00000000000E+00  0.00000000000E+00  0.88087145972E+02  0.88087145972E+02  0.00000000000E+00 0. -1.
         21   -1    0    0  501  502 -0.00000000000E+00 -0.00000000000E+00 -0.56316353218E+03  0.56316353218E+03  0.00000000000E+00 0. -1.
      99926    2    1    2    0    0  0.00000000000E+00  0.00000000000E+00 -0.47507638621E+03  0.65125067815E+03  0.44545468127E+03 0.  0.
      99925    2    3    3    0    0  0.49934533083E+02 -0.67313779172E+02 -0.39166323772E+03  0.47911740449E+03  0.26292354981E+03 0.  0.
         25    1    3    3    0    0 -0.49934533083E+02  0.67313779172E+02 -0.83413148488E+02  0.17213327366E+03  0.12509000000E+03 0.  0.
         25    1    4    4    0    0  0.20146072017E+02 -0.18915131701E+02 -0.25477827980E+03  0.28517209959E+03  0.12509000000E+03 0.  0.
         25    1    4    4    0    0  0.29788461066E+02 -0.48398647470E+02 -0.13688495792E+03  0.19394530491E+03  0.12509000000E+03 0.  0.
<mgrwt>
<rscale>  2 0.44545468E+03</rscale>
<asrwt>0</asrwt>
<pdfrwt beam="1">  1       21 0.12953992E-01 0.44545468E+03</pdfrwt>
<pdfrwt beam="2">  1       21 0.82818168E-01 0.44545468E+03</pdfrwt>
<totfact> 0.60022737E+04</totfact>
</mgrwt>
</event>
<event>
 7    0  0.4709932E-002  0.4568200E+03  0.7546771E-02  0.1025708E+00
         21   -1    0    0  502  501  0.00000000000E+00  0.00000000000E+00  0.31430487356E+03  0.31430487356E+03  0.00000000000E+00 0.  1.
         21   -1    0    0  501  502 -0.00000000000E+00 -0.00000000000E+00 -0.16598894075E+03  0.16598894075E+03  0.00000000000E+00 0.  1.
      99926    2    1    2    0    0  0.00000000000E+00  0.00000000000E+00  0.14831593281E+03  0.48029381431E+03  0.45682002160E+03 0.  0.
      99925    2    3    3    0    0  0.61148861717E+02  0.86950385684E+02  0.13897706088E+03  0.31587278315E+03  0.26298562475E+03 0.  0.
         25    1    4    4    0    0  0.69144112520E+02  0.62169106008E+02  0.74431780413E+02  0.17272377970E+03  0.12509000000E+03 0.  0.
         25    1    4    4    0    0 -0.79952508031E+01  0.24781279676E+02  0.64545280462E+02  0.14314900345E+03  0.12509000000E+03 0.  0.
         25    1    3    3    0    0 -0.61148861717E+02 -0.86950385684E+02  0.93388719394E+01  0.16442103116E+03  0.12509000000E+03 0.  0.
<mgrwt>
<rscale>  2 0.45682002E+03</rscale>
<asrwt>0</asrwt>
<pdfrwt beam="1">  1       21 0.46221305E-01 0.45682002E+03</pdfrwt>
<pdfrwt beam="2">  1       21 0.24410138E-01 0.45682002E+03</pdfrwt>
<totfact> 0.65724123E+04</totfact>
</mgrwt>
</event>
<event>
 7    0  0.4709932E-002  0.4506385E+03  0.7546771E-02  0.1027532E+00
         21   -1    0    0  502  501  0.00000000000E+00  0.00000000000E+00  0.52228027813E+02  0.52228027813E+02  0.00000000000E+00 0.  1.
         21   -1    0    0  501  502 -0.00000000000E+00 -0.00000000000E+00 -0.97205991251E+03  0.97205991251E+03  0.00000000000E+00 0.  1.
      99926    2    1    2    0    0  0.00000000000E+00  0.00000000000E+00 -0.91983188470E+03  0.10242879403E+04  0.45063853429E+03 0.  0.
      99925    2    3    3    0    0 -0.44343991125E+02  0.13814986574E+02 -0.80509406801E+03  0.84830635583E+03  0.26322988355E+03 0.  0.
         25    1    4    4    0    0 -0.11705656974E+02  0.42632659056E+02 -0.34891099122E+03  0.37328401241E+03  0.12509000000E+03 0.  0.
         25    1    4    4    0    0 -0.32638334151E+02 -0.28817672482E+02 -0.45618307678E+03  0.47502234342E+03  0.12509000000E+03 0.  0.
         25    1    3    3    0    0  0.44343991125E+02 -0.13814986574E+02 -0.11473781669E+03  0.17598158450E+03  0.12509000000E+03 0.  0.
<mgrwt>
<rscale>  2 0.45063853E+03</rscale>
<asrwt>0</asrwt>
<pdfrwt beam="1">  1       21 0.76805933E-02 0.45063853E+03</pdfrwt>
<pdfrwt beam="2">  1       21 0.14294997E+00 0.45063853E+03</pdfrwt>
<totfact> 0.39565414E+04</totfact>
</mgrwt>
</event>
<event>
 7    0  0.4709932E-002  0.4560676E+03  0.7546771E-02  0.1025928E+00
         21   -1    0    0  502  501  0.00000000000E+00  0.00000000000E+00  0.23805850882E+04  0.23805850882E+04  0.00000000000E+00 0.  1.
         21   -1    0    0  501  502 -0.00000000000E+00 -0.00000000000E+00 -0.21843123204E+02  0.21843123204E+02  0.00000000000E+00 0.  1.
      99926    2    1    2    0    0  0.00000000000E+00  0.00000000000E+00  0.23587419650E+04  0.24024282114E+04  0.45606759752E+03 0.  0.
      99925    2    3    3    0    0 -0.20478999661E+02 -0.11056116058E+03  0.15862259613E+04  0.16118134862E+04  0.26303375126E+03 0.  0.
         25    1    4    4    0    0 -0.50039821889E+01 -0.90941208886E+02  0.73776118179E+03  0.75381324794E+03  0.12509000000E+03 0.  0.
         25    1    4    4    0    0 -0.15475017472E+02 -0.19619951696E+02  0.84846477948E+03  0.85800023822E+03  0.12509000000E+03 0.  0.
         25    1    3    3    0    0  0.20478999661E+02  0.11056116058E+03  0.77251600368E+03  0.79061472520E+03  0.12509000000E+03 0.  0.
<mgrwt>
<rscale>  2 0.45606760E+03</rscale>
<asrwt>0</asrwt>
<pdfrwt beam="1">  1       21 0.35008586E+00 0.45606760E+03</pdfrwt>
<pdfrwt beam="2">  1       21 0.32122256E-02 0.45606760E+03</pdfrwt>
<totfact> 0.81147136E+03</totfact>
</mgrwt>
</event>
<event>
 7    0  0.4709932E-002  0.4549371E+03  0.7546771E-02  0.1026260E+00
         21   -1    0    0  502  501  0.00000000000E+00  0.00000000000E+00  0.64843384810E+02  0.64843384810E+02  0.00000000000E+00 0.  1.
         21   -1    0    0  501  502 -0.00000000000E+00 -0.00000000000E+00 -0.79795257607E+03  0.79795257607E+03  0.00000000000E+00 0.  1.
      99926    2    1    2    0    0  0.00000000000E+00  0.00000000000E+00 -0.73310919126E+03  0.86279596088E+03  0.45493712071E+03 0.  0.
      99925    2    3    3    0    0  0.75841491841E+02  0.79047509193E+02 -0.40751399138E+03  0.49720030599E+03  0.26294495718E+03 0.  0.
         25    1    3    3    0    0 -0.75841491841E+02 -0.79047509193E+02 -0.32559519988E+03  0.36559565489E+03  0.12509000000E+03 0.  0.
         25    1    4    4    0    0  0.19303812179E+02  0.27481295977E+02 -0.13104931112E+03  0.18425332789E+03  0.12509000000E+03 0.  0.
         25    1    4    4    0    0  0.56537679662E+02  0.51566213215E+02 -0.27646468026E+03  0.31294697809E+03  0.12509000000E+03 0.  0.
<mgrwt>
<rscale>  2 0.45493712E+03</rscale>
<asrwt>0</asrwt>
<pdfrwt beam="1">  1       21 0.95357925E-02 0.45493712E+03</pdfrwt>
<pdfrwt beam="2">  1       21 0.11734596E+00 0.45493712E+03</pdfrwt>
<totfact> 0.44894367E+04</totfact>
</mgrwt>
</event>
<event>
 7    0  0.4709932E-002  0.4513698E+03  0.7546771E-02  0.1027314E+00
         21   -1    0    0  502  501  0.00000000000E+00  0.00000000000E+00  0.29398705122E+03  0.29398705122E+03  0.00000000000E+00 0. -1.
         21   -1    0    0  501  502 -0.00000000000E+00 -0.00000000000E+00 -0.17325141638E+03  0.17325141638E+03  0.00000000000E+00 0. -1.
      99926    2    1    2    0    0  0.00000000000E+00  0.00000000000E+00  0.12073563484E+03  0.46723846760E+03  0.45136979528E+03 0.  0.
      99925    2    3    3    0    0 -0.62925898510E+02 -0.85831647553E+02  0.48634686899E+02  0.28787070233E+03  0.26301609849E+03 0.  0.
         25    1    4    4    0    0 -0.16471312133E+02 -0.24478877939E+02  0.57368321796E+02  0.14074498938E+03  0.12509000000E+03 0.  0.
         25    1    4    4    0    0 -0.46454586377E+02 -0.61352769613E+02 -0.87336348973E+01  0.14712571296E+03  0.12509000000E+03 0.  0.
         25    1    3    3    0    0  0.62925898510E+02  0.85831647553E+02  0.72100947939E+02  0.17936776527E+03  0.12509000000E+03 0.  0.
<mgrwt>
<rscale>  2 0.45136980E+03</rscale>
<asrwt>0</asrwt>
<pdfrwt beam="1">  1       21 0.43233390E-01 0.45136980E+03</pdfrwt>
<pdfrwt beam="2">  1       21 0.25478149E-01 0.45136980E+03</pdfrwt>
<totfact> 0.69625253E+04</totfact>
</mgrwt>
</event>
<event>
 7    0  0.4709932E-002  0.4561783E+03  0.7546771E-02  0.1025895E+00
         21   -1    0    0  502  501  0.00000000000E+00  0.00000000000E+00  0.10882752860E+03  0.10882752860E+03  0.00000000000E+00 0.  1.
         21   -1    0    0  501  502 -0.00000000000E+00 -0.00000000000E+00 -0.47804692112E+03  0.47804692112E+03  0.00000000000E+00 0.  1.
      99926    2    1    2    0    0  0.35527136788E-14  0.00000000000E+00 -0.36921939252E+03  0.58687444972E+03  0.45617832031E+03 0.  0.
      99925    2    3    3    0    0 -0.11408748167E+02  0.30869853752E+02 -0.91276110674E+02  0.28030784451E+03  0.26297918531E+03 0.  0.
         25    1    3    3    0    0  0.11408748167E+02 -0.30869853752E+02 -0.27794328184E+03  0.30656660521E+03  0.12509000000E+03 0.  0.
         25    1    4    4    0    0 -0.35659683561E+02  0.42023021384E+02 -0.55133599857E+02  0.14739324710E+03  0.12509000000E+03 0.  0.
         25    1    4    4    0    0  0.24250935394E+02 -0.11153167632E+02 -0.36142510818E+02  0.13291459741E+03  0.12509000000E+03 0.  0.
<mgrwt>
<rscale>  2 0.45617832E+03</rscale>
<asrwt>0</asrwt>
<pdfrwt beam="1">  1       21 0.16004048E-01 0.45617832E+03</pdfrwt>
<pdfrwt beam="2">  1       21 0.70301019E-01 0.45617832E+03</pdfrwt>
<totfact> 0.58942641E+04</totfact>
</mgrwt>
</event>
<event>
 7    0  0.4709932E-002  0.4534441E+03  0.7546771E-02  0.1026700E+00
         21   -1    0    0  502  501  0.00000000000E+00  0.00000000000E+00  0.47356952585E+03  0.47356952585E+03  0.00000000000E+00 0. -1.
         21   -1    0    0  501  502 -0.00000000000E+00 -0.00000000000E+00 -0.10854346442E+03  0.10854346442E+03  0.00000000000E+00 0. -1.
      99926    2    1    2    0    0  0.00000000000E+00  0.00000000000E+00  0.36502606142E+03  0.58211299027E+03  0.45344405159E+03 0.  0.
      99925    2    3    3    0    0 -0.57063614843E+02 -0.32080488984E+02  0.11350119442E+03  0.29367290857E+03  0.26282283420E+03 0.  0.
         25    1    4    4    0    0 -0.22303633993E+02 -0.30233300129E+02  0.16607208842E+02  0.13166173328E+03  0.12509000000E+03 0.  0.
         25    1    3    3    0    0  0.57063614843E+02  0.32080488984E+02  0.25152486700E+03  0.28844008170E+03  0.12509000000E+03 0.  0.
         25    1    4    4    0    0 -0.34759980850E+02 -0.18471888545E+01  0.96893985579E+02  0.16201117528E+03  0.12509000000E+03 0.  0.
<mgrwt>
<rscale>  2 0.45344405E+03</rscale>
<asrwt>0</asrwt>
<pdfrwt beam="1">  1       21 0.69642577E-01 0.45344405E+03</pdfrwt>
<pdfrwt beam="2">  1       21 0.15962274E-01 0.45344405E+03</pdfrwt>
<totfact> 0.60534138E+04</totfact>
</mgrwt>
</event>
<event>
 7    0  0.4709932E-002  0.4679481E+03  0.7546771E-02  0.1022501E+00
         21   -1    0    0  502  501  0.00000000000E+00  0.00000000000E+00  0.80704893891E+03  0.80704893891E+03  0.00000000000E+00 0.  1.
         21   -1    0    0  501  502 -0.00000000000E+00 -0.00000000000E+00 -0.67832144376E+02  0.67832144376E+02  0.00000000000E+00 0.  1.
      99926    2    1    2    0    0  0.00000000000E+00 -0.17763568394E-14  0.73921679453E+03  0.87488108328E+03  0.46794811739E+03 0.  0.
      99925    2    3    3    0    0  0.75039662256E+02  0.77667985777E+01  0.27766699299E+03  0.39076642592E+03  0.26440152526E+03 0.  0.
         25    1    4    4    0    0  0.51523937960E+02 -0.14283933453E+02  0.19369870098E+03  0.23669694083E+03  0.12509000000E+03 0.  0.
         25    1    3    3    0    0 -0.75039662256E+02 -0.77667985777E+01  0.46154980154E+03  0.48411465736E+03  0.12509000000E+03 0.  0.
         25    1    4    4    0    0  0.23515724296E+02  0.22050732031E+02  0.83968292013E+02  0.15406948509E+03  0.12509000000E+03 0.  0.
<mgrwt>
<rscale>  2 0.46794812E+03</rscale>
<asrwt>0</asrwt>
<pdfrwt beam="1">  1       21 0.11868366E+00 0.46794812E+03</pdfrwt>
<pdfrwt beam="2">  1       21 0.99753158E-02 0.46794812E+03</pdfrwt>
<totfact> 0.40112093E+04</totfact>
</mgrwt>
</event>
<event>
 7    0  0.4709932E-002  0.4555172E+03  0.7546771E-02  0.1026089E+00
         21   -1    0    0  502  501  0.00000000000E+00  0.00000000000E+00  0.39212922293E+03  0.39212922293E+03  0.00000000000E+00 0. -1.
         21   -1    0    0  501  502 -0.00000000000E+00 -0.00000000000E+00 -0.13228795827E+03  0.13228795827E+03  0.00000000000E+00 0. -1.
      99926    2    1    2    0    0  0.00000000000E+00  0.14210854715E-13  0.25984126466E+03  0.52441718120E+03  0.45551717544E+03 0.  0.
      99925    2    3    3    0    0  0.85774957718E+02 -0.74781649294E+02  0.16531525869E+03  0.33068460173E+03  0.26281844042E+03 0.  0.
         25    1    3    3    0    0 -0.85774957718E+02  0.74781649294E+02  0.94526005972E+02  0.19373257947E+03  0.12509000000E+03 0.  0.
         25    1    4    4    0    0  0.63824624425E+02 -0.69093678700E+02  0.11383143298E+03  0.19352680009E+03  0.12509000000E+03 0.  0.
         25    1    4    4    0    0  0.21950333293E+02 -0.56879705944E+01  0.51483825705E+02  0.13715780164E+03  0.12509000000E+03 0.  0.
<mgrwt>
<rscale>  2 0.45551718E+03</rscale>
<asrwt>0</asrwt>
<pdfrwt beam="1">  1       21 0.57666062E-01 0.45551718E+03</pdfrwt>
<pdfrwt beam="2">  1       21 0.19454112E-01 0.45551718E+03</pdfrwt>
<totfact> 0.63325980E+04</totfact>
</mgrwt>
</event>
<event>
 7    0  0.4709932E-002  0.4550349E+03  0.7546771E-02  0.1026231E+00
         21   -1    0    0  502  501  0.00000000000E+00  0.00000000000E+00  0.10864779708E+04  0.10864779708E+04  0.00000000000E+00 0.  1.
         21   -1    0    0  501  502 -0.00000000000E+00 -0.00000000000E+00 -0.47644030550E+02  0.47644030550E+02  0.00000000000E+00 0.  1.
      99926    2    1    2    0    0 -0.14210854715E-13  0.00000000000E+00  0.10388339402E+04  0.11341220013E+04  0.45503489814E+03 0.  0.
      99925    2    3    3    0    0  0.54173047933E+02 -0.90401327777E+02  0.55141672666E+03  0.61999150489E+03  0.26310062810E+03 0.  0.
         25    1    4    4    0    0  0.19929830085E+02 -0.36890439252E+02  0.35411908995E+03  0.37789673272E+03  0.12509000000E+03 0.  0.
         25    1    3    3    0    0 -0.54173047933E+02  0.90401327777E+02  0.48741721358E+03  0.51413049645E+03  0.12509000000E+03 0.  0.
         25    1    4    4    0    0  0.34243217848E+02 -0.53510888525E+02  0.19729763671E+03  0.24209477217E+03  0.12509000000E+03 0.  0.
<mgrwt>
<rscale>  2 0.45503490E+03</rscale>
<asrwt>0</asrwt>
<pdfrwt beam="1">  1       21 0.15977616E+00 0.45503490E+03</pdfrwt>
<pdfrwt beam="2">  1       21 0.70064758E-02 0.45503490E+03</pdfrwt>
<totfact> 0.34307616E+04</totfact>
</mgrwt>
</event>
<event>
 7    0  0.4709932E-002  0.4619234E+03  0.7546771E-02  0.1024225E+00
         21   -1    0    0  502  501  0.00000000000E+00  0.00000000000E+00  0.63736568351E+03  0.63736568351E+03  0.00000000000E+00 0. -1.
         21   -1    0    0  501  502 -0.00000000000E+00 -0.00000000000E+00 -0.83693395429E+02  0.83693395429E+02  0.00000000000E+00 0. -1.
      99926    2    1    2    0    0  0.00000000000E+00  0.00000000000E+00  0.55367228808E+03  0.72105907894E+03  0.46192336240E+03 0.  0.
      99925    2    3    3    0    0  0.42021227689E+02  0.96412640677E+02  0.25748326735E+03  0.38277425078E+03  0.26297778088E+03 0.  0.
         25    1    3    3    0    0 -0.42021227689E+02 -0.96412640677E+02  0.29618902074E+03  0.33828482816E+03  0.12509000000E+03 0.  0.
         25    1    4    4    0    0  0.37680247010E+02  0.51658293219E+02  0.82120925940E+02  0.16272595014E+03  0.12509000000E+03 0.  0.
         25    1    4    4    0    0  0.43409806798E+01  0.44754347459E+02  0.17536234141E+03  0.22004830064E+03  0.12509000000E+03 0.  0.
<mgrwt>
<rscale>  2 0.46192336E+03</rscale>
<asrwt>0</asrwt>
<pdfrwt beam="1">  1       21 0.93730245E-01 0.46192336E+03</pdfrwt>
<pdfrwt beam="2">  1       21 0.12307853E-01 0.46192336E+03</pdfrwt>
<totfact> 0.49048458E+04</totfact>
</mgrwt>
</event>
<event>
 7    0  0.4709932E-002  0.4394992E+03  0.7546771E-02  0.1030901E+00
         21   -1    0    0  502  501  0.00000000000E+00  0.00000000000E+00  0.12000162529E+03  0.12000162529E+03  0.00000000000E+00 0.  1.
         21   -1    0    0  501  502 -0.00000000000E+00 -0.00000000000E+00 -0.40241024637E+03  0.40241024637E+03  0.00000000000E+00 0.  1.
      99926    2    1    2    0    0  0.35527136788E-14  0.71054273576E-14 -0.28240862107E+03  0.52241187166E+03  0.43949918588E+03 0.  0.
      99925    2    3    3    0    0 -0.27143695521E+02 -0.45788210255E+02 -0.27801634014E+03  0.38639664958E+03  0.26301320313E+03 0.  0.
         25    1    4    4    0    0 -0.50122719061E+02 -0.40954522704E+02 -0.13810700933E+03  0.19725773501E+03  0.12509000000E+03 0.  0.
         25    1    3    3    0    0  0.27143695521E+02  0.45788210255E+02 -0.43922809377E+01  0.13601522208E+03  0.12509000000E+03 0.  0.
         25    1    4    4    0    0  0.22979023540E+02 -0.48336875503E+01 -0.13990933080E+03  0.18913891457E+03  0.12509000000E+03 0.  0.
<mgrwt>
<rscale>  2 0.43949919E+03</rscale>
<asrwt>0</asrwt>
<pdfrwt beam="1">  1       21 0.17647298E-01 0.43949919E+03</pdfrwt>
<pdfrwt beam="2">  1       21 0.59177977E-01 0.43949919E+03</pdfrwt>
<totfact> 0.72186735E+04</totfact>
</mgrwt>
</event>
<event>
 7    0  0.4709932E-002  0.4584306E+03  0.7546771E-02  0.1025237E+00
         21   -1    0    0  502  501  0.00000000000E+00  0.00000000000E+00  0.50311224439E+02  0.50311224439E+02  0.00000000000E+00 0.  1.
         21   -1    0    0  501  502 -0.00000000000E+00 -0.00000000000E+00 -0.10442931023E+04  0.10442931023E+04  0.00000000000E+00 0.  1.
      99926    2    1    2    0    0 -0.17763568394E-14 -0.71054273576E-14 -0.99398187787E+03  0.10946043268E+04  0.45843064754E+03 0.  0.
      99925    2    3    3    0    0 -0.91979658939E+01  0.57819838284E+02 -0.86351114739E+03  0.90460996923E+03  0.26313486750E+03 0.  0.
         25    1    4    4    0    0 -0.19296854986E+02  0.44337396200E+02 -0.56131591275E+03  0.57711457729E+03  0.12509000000E+03 0.  0.
         25    1    3    3    0    0  0.91979658939E+01 -0.57819838284E+02 -0.13047073048E+03  0.18999435752E+03  0.12509000000E+03 0.  0.
         25    1    4    4    0    0  0.10098889092E+02  0.13482442084E+02 -0.30219523464E+03  0.32749539195E+03  0.12509000000E+03 0.  0.
<mgrwt>
<rscale>  2 0.45843065E+03</rscale>
<asrwt>0</asrwt>
<pdfrwt beam="1">  1       21 0.73987094E-02 0.45843065E+03</pdfrwt>
<pdfrwt beam="2">  1       21 0.15357252E+00 0.45843065E+03</pdfrwt>
<totfact> 0.34742702E+04</totfact>
</mgrwt>
</event>
<event>
 7    0  0.4709932E-002  0.4516319E+03  0.7546771E-02  0.1027236E+00
         21   -1    0    0  502  501  0.00000000000E+00  0.00000000000E+00  0.29127853073E+02  0.29127853073E+02  0.00000000000E+00 0. -1.
         21   -1    0    0  501  502 -0.00000000000E+00 -0.00000000000E+00 -0.17506561064E+04  0.17506561064E+04  0.00000000000E+00 0. -1.
      99926    2    1    2    0    0 -0.14210854715E-13  0.00000000000E+00 -0.17215282534E+04  0.17797839595E+04  0.45163194683E+03 0.  0.
      99925    2    3    3    0    0  0.86968554205E+02 -0.59537271208E+02 -0.12097899223E+04  0.12425392819E+04  0.26306652159E+03 0.  0.
         25    1    4    4    0    0  0.81551509745E+02 -0.44454096314E+02 -0.73098550238E+03  0.74740492922E+03  0.12509000000E+03 0.  0.
         25    1    4    4    0    0  0.54170444600E+01 -0.15083174895E+02 -0.47880441994E+03  0.49513435266E+03  0.12509000000E+03 0.  0.
         25    1    3    3    0    0 -0.86968554205E+02  0.59537271208E+02 -0.51173833104E+03  0.53724467763E+03  0.12509000000E+03 0.  0.
<mgrwt>
<rscale>  2 0.45163195E+03</rscale>
<asrwt>0</asrwt>
<pdfrwt beam="1">  1       21 0.42835069E-02 0.45163195E+03</pdfrwt>
<pdfrwt beam="2">  1       21 0.25744948E+00 0.45163195E+03</pdfrwt>
<totfact> 0.18120333E+04</totfact>
</mgrwt>
</event>
<event>
 7    0  0.4709932E-002  0.4558019E+03  0.7546771E-02  0.1026006E+00
         21   -1    0    0  502  501  0.00000000000E+00  0.00000000000E+00  0.34358037553E+03  0.34358037553E+03  0.00000000000E+00 0.  1.
         21   -1    0    0  501  502 -0.00000000000E+00 -0.00000000000E+00 -0.15116940476E+03  0.15116940476E+03  0.00000000000E+00 0.  1.
      99926    2    1    2    0    0  0.71054273576E-14 -0.14210854715E-13  0.19241097077E+03  0.49474978029E+03  0.45580189054E+03 0.  0.
      99925    2    3    3    0    0 -0.51051567918E+02 -0.10179768234E+03  0.12050022037E+03  0.31093548585E+03  0.26304285304E+03 0.  0.
         25    1    3    3    0    0  0.51051567918E+02  0.10179768234E+03  0.71910750402E+02  0.18381429444E+03  0.12509000000E+03 0.  0.
         25    1    4    4    0    0  0.13734166291E+02 -0.34646625132E+02  0.51849232776E+02  0.14044524555E+03  0.12509000000E+03 0.  0.
         25    1    4    4    0    0 -0.64785734208E+02 -0.67151057206E+02  0.68650987595E+02  0.17049024030E+03  0.12509000000E+03 0.  0.
<mgrwt>
<rscale>  2 0.45580189E+03</rscale>
<asrwt>0</asrwt>
<pdfrwt beam="1">  1       21 0.50526526E-01 0.45580189E+03</pdfrwt>
<pdfrwt beam="2">  1       21 0.22230795E-01 0.45580189E+03</pdfrwt>
<totfact> 0.65224893E+04</totfact>
</mgrwt>
</event>
<event>
 7    0  0.4709932E-002  0.4525308E+03  0.7546771E-02  0.1026970E+00
         21   -1    0    0  502  501  0.00000000000E+00  0.00000000000E+00  0.19224945306E+03  0.19224945306E+03  0.00000000000E+00 0. -1.
         21   -1    0    0  501  502 -0.00000000000E+00 -0.00000000000E+00 -0.26629996119E+03  0.26629996119E+03  0.00000000000E+00 0. -1.
      99926    2    1    2    0    0  0.00000000000E+00  0.00000000000E+00 -0.74050508136E+02  0.45854941425E+03  0.45253075868E+03 0.  0.
      99925    2    3    3    0    0  0.61945772980E+02 -0.81526734458E+01  0.46125237882E+02  0.27417625214E+03  0.26294739929E+03 0.  0.
         25    1    3    3    0    0 -0.61945772980E+02  0.81526734458E+01 -0.12017574602E+03  0.18437316211E+03  0.12509000000E+03 0.  0.
         25    1    4    4    0    0 -0.72318251087E+01  0.69864809522E+01  0.95736567541E+01  0.12585814719E+03  0.12509000000E+03 0.  0.
         25    1    4    4    0    0  0.69177598089E+02 -0.15139154398E+02  0.36551581128E+02  0.14831810495E+03  0.12509000000E+03 0.  0.
<mgrwt>
<rscale>  2 0.45253076E+03</rscale>
<asrwt>0</asrwt>
<pdfrwt beam="1">  1       21 0.28271978E-01 0.45253076E+03</pdfrwt>
<pdfrwt beam="2">  1       21 0.39161759E-01 0.45253076E+03</pdfrwt>
<totfact> 0.69647712E+04</totfact>
</mgrwt>
</event>
<event>
 7    0  0.4709932E-002  0.4530541E+03  0.7546771E-02  0.1026815E+00
         21   -1    0    0  502  501  0.00000000000E+00  0.00000000000E+00  0.18436370158E+04  0.18436370158E+04  0.00000000000E+00 0.  1.
         21   -1    0    0  501  502 -0.00000000000E+00 -0.00000000000E+00 -0.27833296517E+02  0.27833296517E+02  0.00000000000E+00 0.  1.
      99926    2    1    2    0    0  0.00000000000E+00  0.71054273576E-14  0.18158037193E+04  0.18714703123E+04  0.45305406181E+03 0.  0.
      99925    2    3    3    0    0  0.36140273821E+02 -0.44118941046E+02  0.15397949641E+04  0.15631183359E+04  0.26290264369E+03 0.  0.
         25    1    4    4    0    0  0.29738764048E+02 -0.61412351126E+02  0.83549747472E+03  0.84756085877E+03  0.12509000000E+03 0.  0.
         25    1    3    3    0    0 -0.36140273821E+02  0.44118941046E+02  0.27600875516E+03  0.30835197644E+03  0.12509000000E+03 0.  0.
         25    1    4    4    0    0  0.64015097735E+01  0.17293410080E+02  0.70429748942E+03  0.71555747712E+03  0.12509000000E+03 0.  0.
<mgrwt>
<rscale>  2 0.45305406E+03</rscale>
<asrwt>0</asrwt>
<pdfrwt beam="1">  1       21 0.27112301E+00 0.45305406E+03</pdfrwt>
<pdfrwt beam="2">  1       21 0.40931331E-02 0.45305406E+03</pdfrwt>
<totfact> 0.16166692E+04</totfact>
</mgrwt>
</event>
<event>
 7    0  0.4709932E-002  0.4422367E+03  0.7546771E-02  0.1030063E+00
         21   -1    0    0  502  501  0.00000000000E+00  0.00000000000E+00  0.53536274297E+03  0.53536274297E+03  0.00000000000E+00 0.  1.
         21   -1    0    0  501  502 -0.00000000000E+00 -0.00000000000E+00 -0.91327488150E+02  0.91327488150E+02  0.00000000000E+00 0.  1.
      99926    2    1    2    0    0  0.71054273576E-14  0.14210854715E-13  0.44403525482E+03  0.62669023112E+03  0.44223674458E+03 0.  0.
      99925    2    3    3    0    0  0.36190074247E+02  0.68000175285E+02  0.37702821163E+03  0.46522445379E+03  0.26143789841E+03 0.  0.
         25    1    4    4    0    0  0.46539454898E+02  0.87906865448E+01  0.18284528586E+03  0.22654602996E+03  0.12509000000E+03 0.  0.
         25    1    3    3    0    0 -0.36190074247E+02 -0.68000175285E+02  0.67007043188E+02  0.16146577733E+03  0.12509000000E+03 0.  0.
         25    1    4    4    0    0 -0.10349380651E+02  0.59209488740E+02  0.19418292578E+03  0.23867842382E+03  0.12509000000E+03 0.  0.
<mgrwt>
<rscale>  2 0.44223674E+03</rscale>
<asrwt>0</asrwt>
<pdfrwt beam="1">  1       21 0.78729814E-01 0.44223674E+03</pdfrwt>
<pdfrwt beam="2">  1       21 0.13430513E-01 0.44223674E+03</pdfrwt>
<totfact> 0.63195388E+04</totfact>
</mgrwt>
</event>
<event>
 7    0  0.4709932E-002  0.4558584E+03  0.7546771E-02  0.1025989E+00
         21   -1    0    0  502  501  0.00000000000E+00  0.00000000000E+00  0.10514447392E+04  0.10514447392E+04  0.00000000000E+00 0.  1.
         21   -1    0    0  501  502 -0.00000000000E+00 -0.00000000000E+00 -0.49409848131E+02  0.49409848131E+02  0.00000000000E+00 0.  1.
      99926    2    1    2    0    0  0.00000000000E+00  0.00000000000E+00  0.10020348911E+04  0.11008545874E+04  0.45585842049E+03 0.  0.
      99925    2    3    3    0    0 -0.12042482043E+02  0.86422609736E+02  0.80723999606E+03  0.85345521775E+03  0.26293632049E+03 0.  0.
         25    1    4    4    0    0  0.27071912638E+02  0.46627444200E+02  0.33163288194E+03  0.35851761950E+03  0.12509000000E+03 0.  0.
         25    1    3    3    0    0  0.12042482043E+02 -0.86422609736E+02  0.19479489505E+03  0.24739936961E+03  0.12509000000E+03 0.  0.
         25    1    4    4    0    0 -0.39114394681E+02  0.39795165536E+02  0.47560711411E+03  0.49493759826E+03  0.12509000000E+03 0.  0.
<mgrwt>
<rscale>  2 0.45585842E+03</rscale>
<asrwt>0</asrwt>
<pdfrwt beam="1">  1       21 0.15462421E+00 0.45585842E+03</pdfrwt>
<pdfrwt beam="2">  1       21 0.72661548E-02 0.45585842E+03</pdfrwt>
<totfact> 0.35228113E+04</totfact>
</mgrwt>
</event>
<event>
 7    0  0.4709932E-002  0.4385088E+03  0.7546771E-02  0.1031205E+00
         21   -1    0    0  502  501  0.00000000000E+00  0.00000000000E+00  0.21758504308E+04  0.21758504308E+04  0.00000000000E+00 0. -1.
         21   -1    0    0  501  502 -0.00000000000E+00 -0.00000000000E+00 -0.22093654713E+02  0.22093654713E+02  0.00000000000E+00 0. -1.
      99926    2    1    2    0    0  0.17763568394E-14  0.00000000000E+00  0.21537567761E+04  0.21979440856E+04  0.43850878270E+03 0.  0.
      99925    2    3    3    0    0 -0.15367632626E+02 -0.57785672438E+02  0.99457168584E+03  0.10304969006E+04  0.26301269123E+03 0.  0.
         25    1    4    4    0    0 -0.13378660790E+02 -0.37838327990E+02  0.65542900549E+03  0.66846497064E+03  0.12509000000E+03 0.  0.
         25    1    3    3    0    0  0.15367632626E+02  0.57785672438E+02  0.11591850903E+04  0.11674471850E+04  0.12509000000E+03 0.  0.
         25    1    4    4    0    0 -0.19889718352E+01 -0.19947344448E+02  0.33914268035E+03  0.36203192994E+03  0.12509000000E+03 0.  0.
<mgrwt>
<rscale>  2 0.43850878E+03</rscale>
<asrwt>0</asrwt>
<pdfrwt beam="1">  1       21 0.31997786E+00 0.43850878E+03</pdfrwt>
<pdfrwt beam="2">  1       21 0.32490684E-02 0.43850878E+03</pdfrwt>
<totfact> 0.12232590E+04</totfact>
</mgrwt>
</event>
<event>
 7    0  0.4709932E-002  0.4532242E+03  0.7546771E-02  0.1026765E+00
         21   -1    0    0  502  501  0.00000000000E+00  0.00000000000E+00  0.48118132861E+03  0.48118132861E+03  0.00000000000E+00 0. -1.
         21   -1    0    0  501  502 -0.00000000000E+00 -0.00000000000E+00 -0.10672287404E+03  0.10672287404E+03  0.00000000000E+00 0. -1.
      99926    2    1    2    0    0  0.00000000000E+00  0.00000000000E+00  0.37445845457E+03  0.58790420265E+03  0.45322424614E+03 0.  0.
      99925    2    3    3    0    0  0.81115215658E+02 -0.60024835258E+02  0.17462504482E+03  0.33146013699E+03  0.26303850873E+03 0.  0.
         25    1    3    3    0    0 -0.81115215658E+02  0.60024835258E+02  0.19983340975E+03  0.25644406566E+03  0.12509000000E+03 0.  0.
         25    1    4    4    0    0  0.25787008023E+02  0.77806170475E+01  0.65050831688E+02  0.14354311752E+03  0.12509000000E+03 0.  0.
         25    1    4    4    0    0  0.55328207635E+02 -0.67805452306E+02  0.10957421313E+03  0.18791701947E+03  0.12509000000E+03 0.  0.
<mgrwt>
<rscale>  2 0.45322425E+03</rscale>
<asrwt>0</asrwt>
<pdfrwt beam="1">  1       21 0.70761959E-01 0.45322425E+03</pdfrwt>
<pdfrwt beam="2">  1       21 0.15694540E-01 0.45322425E+03</pdfrwt>
<totfact> 0.60270518E+04</totfact>
</mgrwt>
</event>
<event>
 7    0  0.4709932E-002  0.4774542E+03  0.7546771E-02  0.1019837E+00
         21   -1    0    0  502  501  0.00000000000E+00  0.00000000000E+00  0.91569895269E+02  0.91569895269E+02  0.00000000000E+00 0.  1.
         21   -1    0    0  501  502 -0.00000000000E+00 -0.00000000000E+00 -0.62237301643E+03  0.62237301643E+03  0.00000000000E+00 0.  1.
      99926    2    1    2    0    0  0.00000000000E+00 -0.14210854715E-13 -0.53080312116E+03  0.71394291170E+03  0.47745421532E+03 0.  0.
      99925    2    3    3    0    0 -0.49016127029E+02  0.80255894063E+02 -0.46839638472E+03  0.54546235468E+03  0.26323073131E+03 0.  0.
         25    1    4    4    0    0  0.19170686554E+01  0.23710329481E+02 -0.27354338125E+03  0.30172726824E+03  0.12509000000E+03 0.  0.
         25    1    4    4    0    0 -0.50933195685E+02  0.56545564582E+02 -0.19485300347E+03  0.24373508643E+03  0.12509000000E+03 0.  0.
         25    1    3    3    0    0  0.49016127029E+02 -0.80255894063E+02 -0.62406736437E+02  0.16848055702E+03  0.12509000000E+03 0.  0.
<mgrwt>
<rscale>  2 0.47745422E+03</rscale>
<asrwt>0</asrwt>
<pdfrwt beam="1">  1       21 0.13466160E-01 0.47745422E+03</pdfrwt>
<pdfrwt beam="2">  1       21 0.91525448E-01 0.47745422E+03</pdfrwt>
<totfact> 0.43870425E+04</totfact>
</mgrwt>
</event>
<event>
 7    0  0.4709932E-002  0.4601617E+03  0.7546771E-02  0.1024734E+00
         21   -1    0    0  502  501  0.00000000000E+00  0.00000000000E+00  0.98687788228E+02  0.98687788228E+02  0.00000000000E+00 0.  1.
         21   -1    0    0  501  502 -0.00000000000E+00 -0.00000000000E+00 -0.53641075421E+03  0.53641075421E+03  0.00000000000E+00 0.  1.
      99926    2    1    2    0    0  0.00000000000E+00  0.00000000000E+00 -0.43772296598E+03  0.63509854244E+03  0.46016167122E+03 0.  0.
      99925    2    3    3    0    0  0.75867990483E+02 -0.85825167006E+02 -0.31137217620E+03  0.42359454377E+03  0.26335867963E+03 0.  0.
         25    1    4    4    0    0  0.62574316397E+01 -0.65824535024E+02 -0.13503987596E+03  0.19558962411E+03  0.12509000000E+03 0.  0.
         25    1    4    4    0    0  0.69610558843E+02 -0.20000631982E+02 -0.17633230024E+03  0.22800491966E+03  0.12509000000E+03 0.  0.
         25    1    3    3    0    0 -0.75867990483E+02  0.85825167006E+02 -0.12635078979E+03  0.21150399867E+03  0.12509000000E+03 0.  0.
<mgrwt>
<rscale>  2 0.46016167E+03</rscale>
<asrwt>0</asrwt>
<pdfrwt beam="1">  1       21 0.14512910E-01 0.46016167E+03</pdfrwt>
<pdfrwt beam="2">  1       21 0.78883934E-01 0.46016167E+03</pdfrwt>
<totfact> 0.54321050E+04</totfact>
</mgrwt>
</event>
<event>
 7    0  0.4709932E-002  0.4525431E+03  0.7546771E-02  0.1026966E+00
         21   -1    0    0  502  501  0.00000000000E+00  0.00000000000E+00  0.99595452522E+02  0.99595452522E+02  0.00000000000E+00 0.  1.
         21   -1    0    0  501  502 -0.00000000000E+00 -0.00000000000E+00 -0.51406777822E+03  0.51406777822E+03  0.00000000000E+00 0.  1.
      99926    2    1    2    0    0  0.00000000000E+00  0.00000000000E+00 -0.41447232570E+03  0.61366323074E+03  0.45254309408E+03 0.  0.
      99925    2    3    3    0    0  0.93073642371E+02  0.52579925664E+02 -0.30103407560E+03  0.41380554094E+03  0.26303262071E+03 0.  0.
         25    1    3    3    0    0 -0.93073642371E+02 -0.52579925664E+02 -0.11343825010E+03  0.19985768980E+03  0.12509000000E+03 0.  0.
         25    1    4    4    0    0  0.75543261688E+02  0.47354347410E+01 -0.18453313089E+03  0.23543405282E+03  0.12509000000E+03 0.  0.
         25    1    4    4    0    0  0.17530380684E+02  0.47844490923E+02 -0.11650094470E+03  0.17837148812E+03  0.12509000000E+03 0.  0.
<mgrwt>
<rscale>  2 0.45254309E+03</rscale>
<asrwt>0</asrwt>
<pdfrwt beam="1">  1       21 0.14646390E-01 0.45254309E+03</pdfrwt>
<pdfrwt beam="2">  1       21 0.75598206E-01 0.45254309E+03</pdfrwt>
<totfact> 0.58981242E+04</totfact>
</mgrwt>
</event>
<event>
 7    0  0.4709932E-002  0.4567704E+03  0.7546771E-02  0.1025722E+00
         21   -1    0    0  502  501  0.00000000000E+00  0.00000000000E+00  0.19777449441E+03  0.19777449441E+03  0.00000000000E+00 0. -1.
         21   -1    0    0  501  502 -0.00000000000E+00 -0.00000000000E+00 -0.26373373013E+03  0.26373373013E+03  0.00000000000E+00 0. -1.
      99926    2    1    2    0    0  0.00000000000E+00  0.00000000000E+00 -0.65959235718E+02  0.46150822453E+03  0.45677042432E+03 0.  0.
      99925    2    3    3    0    0 -0.37407211906E+02  0.89763330707E+02 -0.10294131572E+03  0.29880623504E+03  0.26311878796E+03 0.  0.
         25    1    3    3    0    0  0.37407211906E+02 -0.89763330707E+02  0.36982080001E+02  0.16270198949E+03  0.12509000000E+03 0.  0.
         25    1    4    4    0    0 -0.57215750397E+02  0.33529424821E+02 -0.44447514773E+02  0.14839458916E+03  0.12509000000E+03 0.  0.
         25    1    4    4    0    0  0.19808538491E+02  0.56233905886E+02 -0.58493800946E+02  0.15041164588E+03  0.12509000000E+03 0.  0.
<mgrwt>
<rscale>  2 0.45677042E+03</rscale>
<asrwt>0</asrwt>
<pdfrwt beam="1">  1       21 0.29084485E-01 0.45677042E+03</pdfrwt>
<pdfrwt beam="2">  1       21 0.38784372E-01 0.45677042E+03</pdfrwt>
<totfact> 0.67118166E+04</totfact>
</mgrwt>
</event>
<event>
 7    0  0.4709932E-002  0.4660057E+03  0.7546771E-02  0.1023054E+00
         21   -1    0    0  502  501  0.00000000000E+00  0.00000000000E+00  0.50791478341E+02  0.50791478341E+02  0.00000000000E+00 0.  1.
         21   -1    0    0  501  502 -0.00000000000E+00 -0.00000000000E+00 -0.10688865884E+04  0.10688865884E+04  0.00000000000E+00 0.  1.
      99926    2    1    2    0    0  0.00000000000E+00 -0.14210854715E-13 -0.10180951100E+04  0.11196780667E+04  0.46600570813E+03 0.  0.
      99925    2    3    3    0    0  0.54607026347E+02 -0.80419886244E+02 -0.81637081390E+03  0.86318345628E+03  0.26301157387E+03 0.  0.
         25    1    4    4    0    0  0.59032736799E+02 -0.32960155745E+02 -0.49576354951E+03  0.51575211197E+03  0.12509000000E+03 0.  0.
         25    1    4    4    0    0 -0.44257104522E+01 -0.47459730499E+02 -0.32060726439E+03  0.34743134431E+03  0.12509000000E+03 0.  0.
         25    1    3    3    0    0 -0.54607026347E+02  0.80419886244E+02 -0.20172429615E+03  0.25649461044E+03  0.12509000000E+03 0.  0.
<mgrwt>
<rscale>  2 0.46600571E+03</rscale>
<asrwt>0</asrwt>
<pdfrwt beam="1">  1       21 0.74693361E-02 0.46600571E+03</pdfrwt>
<pdfrwt beam="2">  1       21 0.15718918E+00 0.46600571E+03</pdfrwt>
<totfact> 0.31977827E+04</totfact>
</mgrwt>
</event>
<event>
 7    0  0.4709932E-002  0.4397868E+03  0.7546771E-02  0.1030812E+00
         21   -1    0    0  502  501  0.00000000000E+00  0.00000000000E+00  0.23242016835E+03  0.23242016835E+03  0.00000000000E+00 0.  1.
         21   -1    0    0  501  502 -0.00000000000E+00 -0.00000000000E+00 -0.20804177903E+03  0.20804177903E+03  0.00000000000E+00 0.  1.
      99926    2    1    2    0    0 -0.71054273576E-14  0.00000000000E+00  0.24378389316E+02  0.44046194738E+03  0.43978679064E+03 0.  0.
      99925    2    3    3    0    0 -0.50451367792E+02  0.75937930142E+02 -0.21230405559E+02  0.27909410667E+03  0.26292751950E+03 0.  0.
         25    1    4    4    0    0 -0.32925582945E+02  0.16126783738E+02  0.23291796537E+02  0.13241670231E+03  0.12509000000E+03 0.  0.
         25    1    4    4    0    0 -0.17525784847E+02  0.59811146404E+02 -0.44522202095E+02  0.14667740435E+03  0.12509000000E+03 0.  0.
         25    1    3    3    0    0  0.50451367792E+02 -0.75937930142E+02  0.45608794875E+02  0.16136784071E+03  0.12509000000E+03 0.  0.
<mgrwt>
<rscale>  2 0.43978679E+03</rscale>
<asrwt>0</asrwt>
<pdfrwt beam="1">  1       21 0.34179436E-01 0.43978679E+03</pdfrwt>
<pdfrwt beam="2">  1       21 0.30594379E-01 0.43978679E+03</pdfrwt>
<totfact> 0.78758873E+04</totfact>
</mgrwt>
</event>
<event>
 7    0  0.4709932E-002  0.4496301E+03  0.7546771E-02  0.1027832E+00
         21   -1    0    0  502  501  0.00000000000E+00  0.00000000000E+00  0.95891652938E+03  0.95891652938E+03  0.00000000000E+00 0. -1.
         21   -1    0    0  501  502 -0.00000000000E+00 -0.00000000000E+00 -0.52707190129E+02  0.52707190129E+02  0.00000000000E+00 0. -1.
      99926    2    1    2    0    0  0.00000000000E+00  0.00000000000E+00  0.90620933925E+03  0.10116237195E+04  0.44963005163E+03 0.  0.
      99925    2    3    3    0    0  0.94204318382E+02 -0.23492763802E+01  0.45429395547E+03  0.53334033605E+03  0.26303791243E+03 0.  0.
         25    1    4    4    0    0  0.66563733903E+02  0.18233873669E+01  0.30672273360E+03  0.33787630699E+03  0.12509000000E+03 0.  0.
         25    1    4    4    0    0  0.27640584479E+02 -0.41726637471E+01  0.14757122187E+03  0.19546402906E+03  0.12509000000E+03 0.  0.
         25    1    3    3    0    0 -0.94204318382E+02  0.23492763802E+01  0.45191538378E+03  0.47828338347E+03  0.12509000000E+03 0.  0.
<mgrwt>
<rscale>  2 0.44963005E+03</rscale>
<asrwt>0</asrwt>
<pdfrwt beam="1">  1       21 0.14101713E+00 0.44963005E+03</pdfrwt>
<pdfrwt beam="2">  1       21 0.77510579E-02 0.44963005E+03</pdfrwt>
<totfact> 0.40384697E+04</totfact>
</mgrwt>
</event>
<event>
 7    0  0.4709932E-002  0.4599833E+03  0.7546771E-02  0.1024786E+00
         21   -1    0    0  502  501  0.00000000000E+00  0.00000000000E+00  0.15237869116E+03  0.15237869116E+03  0.00000000000E+00 0.  1.
         21   -1    0    0  501  502 -0.00000000000E+00 -0.00000000000E+00 -0.34713622707E+03  0.34713622707E+03  0.00000000000E+00 0.  1.
      99926    2    1    2    0    0  0.00000000000E+00  0.00000000000E+00 -0.19475753591E+03  0.49951491822E+03  0.45998332115E+03 0.  0.
      99925    2    3    3    0    0 -0.99907645153E+01 -0.10743166517E+03 -0.17334354492E+03  0.33293927424E+03  0.26298136381E+03 0.  0.
         25    1    4    4    0    0 -0.15946692951E+02 -0.34480297752E+02 -0.41903211082E+02  0.13728282904E+03  0.12509000000E+03 0.  0.
         25    1    4    4    0    0  0.59559284353E+01 -0.72951367421E+02 -0.13144033384E+03  0.19565644521E+03  0.12509000000E+03 0.  0.
         25    1    3    3    0    0  0.99907645153E+01  0.10743166517E+03 -0.21413990989E+02  0.16657564398E+03  0.12509000000E+03 0.  0.
<mgrwt>
<rscale>  2 0.45998332E+03</rscale>
<asrwt>0</asrwt>
<pdfrwt beam="1">  1       21 0.22408632E-01 0.45998332E+03</pdfrwt>
<pdfrwt beam="2">  1       21 0.51049444E-01 0.45998332E+03</pdfrwt>
<totfact> 0.62784040E+04</totfact>
</mgrwt>
</event>
<event>
 7    0  0.4709932E-002  0.4627302E+03  0.7546771E-02  0.1023992E+00
         21   -1    0    0  502  501  0.00000000000E+00  0.00000000000E+00  0.58385507405E+03  0.58385507405E+03  0.00000000000E+00 0.  1.
         21   -1    0    0  501  502 -0.00000000000E+00 -0.00000000000E+00 -0.91683369201E+02  0.91683369201E+02  0.00000000000E+00 0.  1.
      99926    2    1    2    0    0 -0.14210854715E-13 -0.71054273576E-14  0.49217170485E+03  0.67553844325E+03  0.46273016030E+03 0.  0.
      99925    2    3    3    0    0 -0.98533366226E+02 -0.38991277631E+02  0.39084176857E+03  0.48280959726E+03  0.26290430798E+03 0.  0.
         25    1    3    3    0    0  0.98533366226E+02  0.38991277631E+02  0.10132993628E+03  0.19272884599E+03  0.12509000000E+03 0.  0.
         25    1    4    4    0    0 -0.85800140544E+02 -0.55817917937E+01  0.23556787653E+03  0.28023660195E+03  0.12509000000E+03 0.  0.
         25    1    4    4    0    0 -0.12733225682E+02 -0.33409485837E+02  0.15527389204E+03  0.20257299531E+03  0.12509000000E+03 0.  0.
<mgrwt>
<rscale>  2 0.46273016E+03</rscale>
<asrwt>0</asrwt>
<pdfrwt beam="1">  1       21 0.85861039E-01 0.46273016E+03</pdfrwt>
<pdfrwt beam="2">  1       21 0.13482849E-01 0.46273016E+03</pdfrwt>
<totfact> 0.51068260E+04</totfact>
</mgrwt>
</event>
<event>
 7    0  0.4709932E-002  0.4285619E+03  0.7546771E-02  0.1034315E+00
         21   -1    0    0  502  501  0.00000000000E+00  0.00000000000E+00  0.38368566096E+03  0.38368566096E+03  0.00000000000E+00 0. -1.
         21   -1    0    0  501  502 -0.00000000000E+00 -0.00000000000E+00 -0.11967170606E+03  0.11967170606E+03  0.00000000000E+00 0. -1.
      99926    2    1    2    0    0  0.00000000000E+00 -0.35527136788E-14  0.26401395490E+03  0.50335736702E+03  0.42856186315E+03 0.  0.
      99925    2    3    3    0    0 -0.72844019363E+02 -0.27463597725E+02  0.21369354787E+03  0.34766487580E+03  0.26295519221E+03 0.  0.
         25    1    4    4    0    0 -0.44084647171E+02 -0.49292329807E+02  0.13482020671E+03  0.19544100422E+03  0.12509000000E+03 0.  0.
         25    1    4    4    0    0 -0.28759372192E+02  0.21828732082E+02  0.78873341163E+02  0.15222387158E+03  0.12509000000E+03 0.  0.
         25    1    3    3    0    0  0.72844019363E+02  0.27463597725E+02  0.50320407025E+02  0.15569249121E+03  0.12509000000E+03 0.  0.
<mgrwt>
<rscale>  2 0.42856186E+03</rscale>
<asrwt>0</asrwt>
<pdfrwt beam="1">  1       21 0.56424362E-01 0.42856186E+03</pdfrwt>
<pdfrwt beam="2">  1       21 0.17598780E-01 0.42856186E+03</pdfrwt>
<totfact> 0.80668435E+04</totfact>
</mgrwt>
</event>
<event>
 7    0  0.4709932E-002  0.4574689E+03  0.7546771E-02  0.1025518E+00
         21   -1    0    0  502  501  0.00000000000E+00  0.00000000000E+00  0.39206621459E+03  0.39206621459E+03  0.00000000000E+00 0.  1.
         21   -1    0    0  501  502 -0.00000000000E+00 -0.00000000000E+00 -0.13344542756E+03  0.13344542756E+03  0.00000000000E+00 0.  1.
      99926    2    1    2    0    0 -0.26645352591E-14  0.00000000000E+00  0.25862078703E+03  0.52551164216E+03  0.45746887824E+03 0.  0.
      99925    2    3    3    0    0 -0.31385878113E+01 -0.60514777029E+02  0.27503750652E+03  0.38555127008E+03  0.26331020279E+03 0.  0.
         25    1    4    4    0    0  0.39348629244E+02 -0.29391129681E+02  0.14156551562E+03  0.19519338216E+03  0.12509000000E+03 0.  0.
         25    1    4    4    0    0 -0.42487217056E+02 -0.31123647348E+02  0.13347199091E+03  0.19035788792E+03  0.12509000000E+03 0.  0.
         25    1    3    3    0    0  0.31385878113E+01  0.60514777029E+02 -0.16416719492E+02  0.13996037207E+03  0.12509000000E+03 0.  0.
<mgrwt>
<rscale>  2 0.45746888E+03</rscale>
<asrwt>0</asrwt>
<pdfrwt beam="1">  1       21 0.57656796E-01 0.45746888E+03</pdfrwt>
<pdfrwt beam="2">  1       21 0.19624328E-01 0.45746888E+03</pdfrwt>
<totfact> 0.62283398E+04</totfact>
</mgrwt>
</event>
<event>
 7    0  0.4709932E-002  0.4509027E+03  0.7546771E-02  0.1027453E+00
         21   -1    0    0  502  501  0.00000000000E+00  0.00000000000E+00  0.30226367672E+02  0.30226367672E+02  0.00000000000E+00 0. -1.
         21   -1    0    0  501  502 -0.00000000000E+00 -0.00000000000E+00 -0.16815883031E+04  0.16815883031E+04  0.00000000000E+00 0. -1.
      99926    2    1    2    0    0  0.17763568394E-14  0.00000000000E+00 -0.16513619355E+04  0.17118146708E+04  0.45090267830E+03 0.  0.
      99925    2    3    3    0    0  0.84002945832E+01  0.80253670787E+02 -0.13228361052E+04  0.13511376049E+04  0.26299477089E+03 0.  0.
         25    1    4    4    0    0 -0.27504541799E+02  0.24007707818E+02 -0.53455454601E+03  0.55020808847E+03  0.12509000000E+03 0.  0.
         25    1    3    3    0    0 -0.84002945832E+01 -0.80253670787E+02 -0.32852583023E+03  0.36067706588E+03  0.12509000000E+03 0.  0.
         25    1    4    4    0    0  0.35904836382E+02  0.56245962969E+02 -0.78828155923E+03  0.80092951647E+03  0.12509000000E+03 0.  0.
<mgrwt>
<rscale>  2 0.45090268E+03</rscale>
<asrwt>0</asrwt>
<pdfrwt beam="1">  1       21 0.44450539E-02 0.45090268E+03</pdfrwt>
<pdfrwt beam="2">  1       21 0.24729241E+00 0.45090268E+03</pdfrwt>
<totfact> 0.19634220E+04</totfact>
</mgrwt>
</event>
<event>
 7    0  0.4709932E-002  0.4426052E+03  0.7546771E-02  0.1029950E+00
         21   -1    0    0  502  501  0.00000000000E+00  0.00000000000E+00  0.21712822924E+03  0.21712822924E+03  0.00000000000E+00 0. -1.
         21   -1    0    0  501  502 -0.00000000000E+00 -0.00000000000E+00 -0.22555723816E+03  0.22555723816E+03  0.00000000000E+00 0. -1.
      99926    2    1    2    0    0  0.00000000000E+00 -0.71054273576E-14 -0.84290089257E+01  0.44268546740E+03  0.44260521332E+03 0.  0.
      99925    2    3    3    0    0 -0.92281307343E+02  0.32656383621E+02 -0.30729623061E+02  0.28228875744E+03  0.26298356178E+03 0.  0.
         25    1    3    3    0    0  0.92281307343E+02 -0.32656383621E+02  0.22300614135E+02  0.16039670996E+03  0.12509000000E+03 0.  0.
         25    1    4    4    0    0 -0.57375618583E+02 -0.96368302459E+01  0.13763055255E+02  0.13864256163E+03  0.12509000000E+03 0.  0.
         25    1    4    4    0    0 -0.34905688760E+02  0.42293213867E+02 -0.44492678316E+02  0.14364619581E+03  0.12509000000E+03 0.  0.
<mgrwt>
<rscale>  2 0.44260521E+03</rscale>
<asrwt>0</asrwt>
<pdfrwt beam="1">  1       21 0.31930622E-01 0.44260521E+03</pdfrwt>
<pdfrwt beam="2">  1       21 0.33170182E-01 0.44260521E+03</pdfrwt>
<totfact> 0.76773939E+04</totfact>
</mgrwt>
</event>
<event>
 7    0  0.4709932E-002  0.4557687E+03  0.7546771E-02  0.1026016E+00
         21   -1    0    0  502  501  0.00000000000E+00  0.00000000000E+00  0.17057264254E+03  0.17057264254E+03  0.00000000000E+00 0. -1.
         21   -1    0    0  501  502 -0.00000000000E+00 -0.00000000000E+00 -0.30445260362E+03  0.30445260362E+03  0.00000000000E+00 0. -1.
      99926    2    1    2    0    0 -0.35527136788E-14  0.00000000000E+00 -0.13387996107E+03  0.47502524616E+03  0.45576873578E+03 0.  0.
      99925    2    3    3    0    0 -0.19842509952E+02  0.90059674673E+02 -0.14346620266E+02  0.27896352662E+03  0.26288848105E+03 0.  0.
         25    1    3    3    0    0  0.19842509952E+02 -0.90059674673E+02 -0.11953334081E+03  0.19606171954E+03  0.12509000000E+03 0.  0.
         25    1    4    4    0    0 -0.27242345521E+02  0.43288166915E+02 -0.43690674581E+02  0.14202955302E+03  0.12509000000E+03 0.  0.
         25    1    4    4    0    0  0.73998355688E+01  0.46771507758E+02  0.29344054315E+02  0.13693397361E+03  0.12509000000E+03 0.  0.
<mgrwt>
<rscale>  2 0.45576874E+03</rscale>
<asrwt>0</asrwt>
<pdfrwt beam="1">  1       21 0.25084212E-01 0.45576874E+03</pdfrwt>
<pdfrwt beam="2">  1       21 0.44772442E-01 0.45576874E+03</pdfrwt>
<totfact> 0.66656496E+04</totfact>
</mgrwt>
</event>
<event>
 7    0  0.4709932E-002  0.4556392E+03  0.7546771E-02  0.1026054E+00
         21   -1    0    0  502  501  0.00000000000E+00  0.00000000000E+00  0.46571067635E+03  0.46571067635E+03  0.00000000000E+00 0.  1.
         21   -1    0    0  501  502 -0.00000000000E+00 -0.00000000000E+00 -0.11144637083E+03  0.11144637083E+03  0.00000000000E+00 0.  1.
      99926    2    1    2    0    0 -0.14210854715E-13  0.00000000000E+00  0.35426430552E+03  0.57715704718E+03  0.45563917627E+03 0.  0.
      99925    2    3    3    0    0  0.90251388795E+02 -0.57398235465E+02  0.27180456781E+03  0.39307286248E+03  0.26303741469E+03 0.  0.
         25    1    4    4    0    0  0.54848438380E+02 -0.49438423119E+02  0.19038601906E+03  0.23947203016E+03  0.12509000000E+03 0.  0.
         25    1    4    4    0    0  0.35402950416E+02 -0.79598123458E+01  0.81418548741E+02  0.15360083232E+03  0.12509000000E+03 0.  0.
         25    1    3    3    0    0 -0.90251388795E+02  0.57398235465E+02  0.82459737712E+02  0.18408418470E+03  0.12509000000E+03 0.  0.
<mgrwt>
<rscale>  2 0.45563918E+03</rscale>
<asrwt>0</asrwt>
<pdfrwt beam="1">  1       21 0.68486863E-01 0.45563918E+03</pdfrwt>
<pdfrwt beam="2">  1       21 0.16389172E-01 0.45563918E+03</pdfrwt>
<totfact> 0.59804017E+04</totfact>
</mgrwt>
</event>
<event>
 7    0  0.4709932E-002  0.4540524E+03  0.7546771E-02  0.1026520E+00
         21   -1    0    0  502  501  0.00000000000E+00  0.00000000000E+00  0.16164576287E+03  0.16164576287E+03  0.00000000000E+00 0. -1.
         21   -1    0    0  501  502 -0.00000000000E+00 -0.00000000000E+00 -0.31885094552E+03  0.31885094552E+03  0.00000000000E+00 0. -1.
      99926    2    1    2    0    0  0.00000000000E+00  0.71054273576E-14 -0.15720518265E+03  0.48049670840E+03  0.45405243896E+03 0.  0.
      99925    2    3    3    0    0  0.90894871354E+02  0.41607577124E+02 -0.15325411616E+03  0.32032121983E+03  0.26291784199E+03 0.  0.
         25    1    4    4    0    0  0.44199367499E+02  0.31862175066E+02 -0.12157432247E+03  0.18274738376E+03  0.12509000000E+03 0.  0.
         25    1    3    3    0    0 -0.90894871354E+02 -0.41607577124E+02 -0.39510664890E+01  0.16017548857E+03  0.12509000000E+03 0.  0.
         25    1    4    4    0    0  0.46695503855E+02  0.97454020587E+01 -0.31679793688E+02  0.13757383606E+03  0.12509000000E+03 0.  0.
<mgrwt>
<rscale>  2 0.45405244E+03</rscale>
<asrwt>0</asrwt>
<pdfrwt beam="1">  1       21 0.23771436E-01 0.45405244E+03</pdfrwt>
<pdfrwt beam="2">  1       21 0.46889844E-01 0.45405244E+03</pdfrwt>
<totfact> 0.67167739E+04</totfact>
</mgrwt>
</event>
<event>
 7    0  0.4709932E-002  0.4546438E+03  0.7546771E-02  0.1026346E+00
         21   -1    0    0  502  501  0.00000000000E+00  0.00000000000E+00  0.74186829099E+02  0.74186829099E+02  0.00000000000E+00 0. -1.
         21   -1    0    0  501  502 -0.00000000000E+00 -0.00000000000E+00 -0.69655546143E+03  0.69655546143E+03  0.00000000000E+00 0. -1.
      99926    2    1    2    0    0  0.00000000000E+00 -0.14210854715E-13 -0.62236863233E+03  0.77074229053E+03  0.45464377693E+03 0.  0.
      99925    2    3    3    0    0  0.65915519622E+02 -0.73744395005E+02 -0.29913346737E+03  0.41030981212E+03  0.26285018376E+03 0.  0.
         25    1    4    4    0    0  0.40536039038E+02 -0.72572816195E+02 -0.19129711880E+03  0.24321200602E+03  0.12509000000E+03 0.  0.
         25    1    4    4    0    0  0.25379480584E+02 -0.11715788100E+01 -0.10783634857E+03  0.16709780610E+03  0.12509000000E+03 0.  0.
         25    1    3    3    0    0 -0.65915519622E+02  0.73744395005E+02 -0.32323516497E+03  0.36043247841E+03  0.12509000000E+03 0.  0.
<mgrwt>
<rscale>  2 0.45464378E+03</rscale>
<asrwt>0</asrwt>
<pdfrwt beam="1">  1       21 0.10909827E-01 0.45464378E+03</pdfrwt>
<pdfrwt beam="2">  1       21 0.10243464E+00 0.45464378E+03</pdfrwt>
<totfact> 0.49350342E+04</totfact>
</mgrwt>
</event>
<event>
 6    0  0.4709932E-002  0.4502538E+03  0.7546771E-02  0.1027646E+00
         21   -1    0    0  502  501  0.00000000000E+00  0.00000000000E+00  0.22030826160E+04  0.22030826160E+04  0.00000000000E+00 0. -1.
         21   -1    0    0  501  502 -0.00000000000E+00 -0.00000000000E+00 -0.23005088828E+02  0.23005088828E+02  0.00000000000E+00 0. -1.
      99926    2    1    2    0    0 -0.35527136788E-14  0.00000000000E+00  0.21800775271E+04  0.22260877048E+04  0.45025375635E+03 0.  0.
         25    1    3    3    0    0  0.34087130038E+02 -0.51760624506E+02  0.48762531555E+03  0.50721499499E+03  0.12509000000E+03 0.  0.
         25    1    3    3    0    0  0.12352097783E+02  0.60459012269E+02  0.12172683967E+04  0.12252337427E+04  0.12509000000E+03 0.  0.
         25    1    3    3    0    0 -0.46439227821E+02 -0.86983877634E+01  0.47518381487E+03  0.49363896710E+03  0.12509000000E+03 0.  0.
<mgrwt>
<rscale>  2 0.45025376E+03</rscale>
<asrwt>0</asrwt>
<pdfrwt beam="1">  1       21 0.32398259E+00 0.45025376E+03</pdfrwt>
<pdfrwt beam="2">  1       21 0.33831028E-02 0.45025376E+03</pdfrwt>
<totfact> 0.10748160E+04</totfact>
</mgrwt>
</event>
<event>
 7    0  0.4709932E-002  0.4592642E+03  0.7546771E-02  0.1024995E+00
         21   -1    0    0  502  501  0.00000000000E+00  0.00000000000E+00  0.85604074281E+02  0.85604074281E+02  0.00000000000E+00 0.  1.
         21   -1    0    0  501  502 -0.00000000000E+00 -0.00000000000E+00 -0.61598585507E+03  0.61598585507E+03  0.00000000000E+00 0.  1.
      99926    2    1    2    0    0  0.00000000000E+00  0.00000000000E+00 -0.53038178079E+03  0.70158992935E+03  0.45926418930E+03 0.  0.
      99925    2    3    3    0    0  0.10609720312E+03 -0.49452938715E+02 -0.33570778876E+03  0.44226835113E+03  0.26305772241E+03 0.  0.
         25    1    4    4    0    0  0.96121231294E+02 -0.32970612217E+02 -0.19613562307E+03  0.25385634346E+03  0.12509000000E+03 0.  0.
         25    1    4    4    0    0  0.99759718304E+01 -0.16482326498E+02 -0.13957216569E+03  0.18841200767E+03  0.12509000000E+03 0.  0.
         25    1    3    3    0    0 -0.10609720312E+03  0.49452938715E+02 -0.19467399203E+03  0.25932157822E+03  0.12509000000E+03 0.  0.
<mgrwt>
<rscale>  2 0.45926419E+03</rscale>
<asrwt>0</asrwt>
<pdfrwt beam="1">  1       21 0.12588834E-01 0.45926419E+03</pdfrwt>
<pdfrwt beam="2">  1       21 0.90586158E-01 0.45926419E+03</pdfrwt>
<totfact> 0.51080875E+04</totfact>
</mgrwt>
</event>
<event>
 7    0  0.4709932E-002  0.4096587E+03  0.7546771E-02  0.1040486E+00
         21   -1    0    0  502  501  0.00000000000E+00  0.00000000000E+00  0.20281923948E+03  0.20281923948E+03  0.00000000000E+00 0. -1.
         21   -1    0    0  501  502 -0.00000000000E+00 -0.00000000000E+00 -0.20685939037E+03  0.20685939037E+03  0.00000000000E+00 0. -1.
      99926    2    1    2    0    0  0.00000000000E+00  0.00000000000E+00 -0.40401508925E+01  0.40967862984E+03  0.40965870787E+03 0.  0.
      99925    2    3    3    0    0  0.15421528601E+02 -0.58516665080E+02  0.98745328178E+01  0.27002495048E+03  0.26297137458E+03 0.  0.
         25    1    4    4    0    0 -0.83291807346E+01 -0.11530374806E+02  0.37831872958E+02  0.13145753499E+03  0.12509000000E+03 0.  0.
         25    1    4    4    0    0  0.23750709336E+02 -0.46986290274E+02 -0.27957340140E+02  0.13856741549E+03  0.12509000000E+03 0.  0.
         25    1    3    3    0    0 -0.15421528601E+02  0.58516665080E+02 -0.13914683710E+02  0.13965367936E+03  0.12509000000E+03 0.  0.
<mgrwt>
<rscale>  2 0.40965871E+03</rscale>
<asrwt>0</asrwt>
<pdfrwt beam="1">  1       21 0.29826359E-01 0.40965871E+03</pdfrwt>
<pdfrwt beam="2">  1       21 0.30420499E-01 0.40965871E+03</pdfrwt>
<totfact> 0.10521989E+05</totfact>
</mgrwt>
</event>
<event>
 7    0  0.4709932E-002  0.4514329E+03  0.7546771E-02  0.1027296E+00
         21   -1    0    0  502  501  0.00000000000E+00  0.00000000000E+00  0.15429106156E+03  0.15429106156E+03  0.00000000000E+00 0.  1.
         21   -1    0    0  501  502 -0.00000000000E+00 -0.00000000000E+00 -0.33020650859E+03  0.33020650859E+03  0.00000000000E+00 0.  1.
      99926    2    1    2    0    0  0.35527136788E-14  0.71054273576E-14 -0.17591544703E+03  0.48449757015E+03  0.45143288646E+03 0.  0.
      99925    2    3    3    0    0 -0.20270190421E+02 -0.62554578222E+02 -0.20520880664E+03  0.34017305771E+03  0.26321682885E+03 0.  0.
         25    1    3    3    0    0  0.20270190421E+02  0.62554578222E+02  0.29293359607E+02  0.14432451245E+03  0.12509000000E+03 0.  0.
         25    1    4    4    0    0 -0.33292137371E+02 -0.14109530452E+02 -0.64422971529E+02  0.14527653844E+03  0.12509000000E+03 0.  0.
         25    1    4    4    0    0  0.13021946950E+02 -0.48445047769E+02 -0.14078583511E+03  0.19489651927E+03  0.12509000000E+03 0.  0.
<mgrwt>
<rscale>  2 0.45143289E+03</rscale>
<asrwt>0</asrwt>
<pdfrwt beam="1">  1       21 0.22689862E-01 0.45143289E+03</pdfrwt>
<pdfrwt beam="2">  1       21 0.48559780E-01 0.45143289E+03</pdfrwt>
<totfact> 0.68287488E+04</totfact>
</mgrwt>
</event>
<event>
 7    0  0.4709932E-002  0.4423414E+03  0.7546771E-02  0.1030031E+00
         21   -1    0    0  502  501  0.00000000000E+00  0.00000000000E+00  0.18856360440E+03  0.18856360440E+03  0.00000000000E+00 0. -1.
         21   -1    0    0  501  502 -0.00000000000E+00 -0.00000000000E+00 -0.25941637463E+03  0.25941637463E+03  0.00000000000E+00 0. -1.
      99926    2    1    2    0    0  0.00000000000E+00 -0.35527136788E-14 -0.70852770230E+02  0.44797997903E+03  0.44234143663E+03 0.  0.
      99925    2    3    3    0    0  0.92140207667E+02  0.18289053267E+02 -0.82218477815E+02  0.29113293651E+03  0.26300988820E+03 0.  0.
         25    1    4    4    0    0  0.69691505591E+02 -0.24228598701E+02 -0.45260170297E+02  0.15211811878E+03  0.12509000000E+03 0.  0.
         25    1    3    3    0    0 -0.92140207667E+02 -0.18289053267E+02  0.11365707584E+02  0.15684704252E+03  0.12509000000E+03 0.  0.
         25    1    4    4    0    0  0.22448702076E+02  0.42517651968E+02 -0.36958307518E+02  0.13901481773E+03  0.12509000000E+03 0.  0.
<mgrwt>
<rscale>  2 0.44234144E+03</rscale>
<asrwt>0</asrwt>
<pdfrwt beam="1">  1       21 0.27729942E-01 0.44234144E+03</pdfrwt>
<pdfrwt beam="2">  1       21 0.38149466E-01 0.44234144E+03</pdfrwt>
<totfact> 0.76501234E+04</totfact>
</mgrwt>
</event>
<event>
 7    0  0.4709932E-002  0.4510429E+03  0.7546771E-02  0.1027412E+00
         21   -1    0    0  502  501  0.00000000000E+00  0.00000000000E+00  0.66985772168E+03  0.66985772168E+03  0.00000000000E+00 0. -1.
         21   -1    0    0  501  502 -0.00000000000E+00 -0.00000000000E+00 -0.75926447644E+02  0.75926447644E+02  0.00000000000E+00 0. -1.
      99926    2    1    2    0    0  0.88817841970E-15  0.00000000000E+00  0.59393127403E+03  0.74578416932E+03  0.45104286818E+03 0.  0.
      99925    2    3    3    0    0  0.62357980459E+01  0.71437767570E+02  0.51186630755E+03  0.57987935735E+03  0.26288916383E+03 0.  0.
         25    1    4    4    0    0  0.26541733055E+02  0.58190324146E+02  0.21511094985E+03  0.25692568238E+03  0.12509000000E+03 0.  0.
         25    1    3    3    0    0 -0.62357980459E+01 -0.71437767570E+02  0.82064966479E+02  0.16590481197E+03  0.12509000000E+03 0.  0.
         25    1    4    4    0    0 -0.20305935009E+02  0.13247443424E+02  0.29675535770E+03  0.32295367497E+03  0.12509000000E+03 0.  0.
<mgrwt>
<rscale>  2 0.45104287E+03</rscale>
<asrwt>0</asrwt>
<pdfrwt beam="1">  1       21 0.98508485E-01 0.45104287E+03</pdfrwt>
<pdfrwt beam="2">  1       21 0.11165654E-01 0.45104287E+03</pdfrwt>
<totfact> 0.52088002E+04</totfact>
</mgrwt>
</event>
<event>
 7    0  0.4709932E-002  0.4579994E+03  0.7546771E-02  0.1025363E+00
         21   -1    0    0  502  501  0.00000000000E+00  0.00000000000E+00  0.18408320378E+03  0.18408320378E+03  0.00000000000E+00 0.  1.
         21   -1    0    0  501  502 -0.00000000000E+00 -0.00000000000E+00 -0.28487586295E+03  0.28487586295E+03  0.00000000000E+00 0.  1.
      99926    2    1    2    0    0 -0.71054273576E-14  0.00000000000E+00 -0.10079265918E+03  0.46895906673E+03  0.45799939533E+03 0.  0.
      99925    2    3    3    0    0  0.49092035965E+02  0.43121141206E+02 -0.16119411547E+03  0.31544911644E+03  0.26316371594E+03 0.  0.
         25    1    4    4    0    0  0.44234438656E+02 -0.64265458884E+01 -0.54157141009E+02  0.14345204801E+03  0.12509000000E+03 0.  0.
         25    1    3    3    0    0 -0.49092035965E+02 -0.43121141206E+02  0.60401456299E+02  0.15350995029E+03  0.12509000000E+03 0.  0.
         25    1    4    4    0    0  0.48575973085E+01  0.49547687094E+02 -0.10703697447E+03  0.17199706844E+03  0.12509000000E+03 0.  0.
<mgrwt>
<rscale>  2 0.45799940E+03</rscale>
<asrwt>0</asrwt>
<pdfrwt beam="1">  1       21 0.27071060E-01 0.45799940E+03</pdfrwt>
<pdfrwt beam="2">  1       21 0.41893509E-01 0.45799940E+03</pdfrwt>
<totfact> 0.65930984E+04</totfact>
</mgrwt>
</event>
<event>
 7    0  0.4709932E-002  0.4537002E+03  0.7546771E-02  0.1026624E+00
         21   -1    0    0  502  501  0.00000000000E+00  0.00000000000E+00  0.71993287302E+03  0.71993287302E+03  0.00000000000E+00 0. -1.
         21   -1    0    0  501  502 -0.00000000000E+00 -0.00000000000E+00 -0.71480219373E+02  0.71480219373E+02  0.00000000000E+00 0. -1.
      99926    2    1    2    0    0  0.14210854715E-13  0.00000000000E+00  0.64845265365E+03  0.79141309240E+03  0.45370016397E+03 0.  0.
      99925    2    3    3    0    0  0.10474115130E+03  0.39316651910E+02  0.41463121571E+03  0.50359981815E+03  0.26301563433E+03 0.  0.
         25    1    4    4    0    0  0.53994798962E+02  0.30096611364E+02  0.14113358067E+03  0.19846269176E+03  0.12509000000E+03 0.  0.
         25    1    3    3    0    0 -0.10474115130E+03 -0.39316651910E+02  0.23382143794E+03  0.28781327425E+03  0.12509000000E+03 0.  0.
         25    1    4    4    0    0  0.50746352337E+02  0.92200405463E+01  0.27349763504E+03  0.30513712638E+03  0.12509000000E+03 0.  0.
<mgrwt>
<rscale>  2 0.45370016E+03</rscale>
<asrwt>0</asrwt>
<pdfrwt beam="1">  1       21 0.10587248E+00 0.45370016E+03</pdfrwt>
<pdfrwt beam="2">  1       21 0.10511797E-01 0.45370016E+03</pdfrwt>
<totfact> 0.48677661E+04</totfact>
</mgrwt>
</event>
<event>
 7    0  0.4709932E-002  0.4568577E+03  0.7546771E-02  0.1025697E+00
         21   -1    0    0  502  501  0.00000000000E+00  0.00000000000E+00  0.38756654290E+03  0.38756654290E+03  0.00000000000E+00 0.  1.
         21   -1    0    0  501  502 -0.00000000000E+00 -0.00000000000E+00 -0.13463426551E+03  0.13463426551E+03  0.00000000000E+00 0.  1.
      99926    2    1    2    0    0  0.00000000000E+00  0.14210854715E-13  0.25293227738E+03  0.52220080841E+03  0.45685768830E+03 0.  0.
      99925    2    3    3    0    0 -0.53585500094E+02  0.75487125961E+02  0.81153234078E+02  0.29041370819E+03  0.26302958484E+03 0.  0.
         25    1    4    4    0    0 -0.38781908170E+01  0.60301413433E+02  0.15189676840E+02  0.13974811343E+03  0.12509000000E+03 0.  0.
         25    1    4    4    0    0 -0.49707309277E+02  0.15185712528E+02  0.65963557238E+02  0.15066559476E+03  0.12509000000E+03 0.  0.
         25    1    3    3    0    0  0.53585500094E+02 -0.75487125961E+02  0.17177904331E+03  0.23178710021E+03  0.12509000000E+03 0.  0.
<mgrwt>
<rscale>  2 0.45685769E+03</rscale>
<asrwt>0</asrwt>
<pdfrwt beam="1">  1       21 0.56995080E-01 0.45685769E+03</pdfrwt>
<pdfrwt beam="2">  1       21 0.19799157E-01 0.45685769E+03</pdfrwt>
<totfact> 0.62806794E+04</totfact>
</mgrwt>
</event>
<event>
 7    0  0.4709932E-002  0.4423470E+03  0.7546771E-02  0.1030029E+00
         21   -1    0    0  502  501  0.00000000000E+00  0.00000000000E+00  0.18720528184E+03  0.18720528184E+03  0.00000000000E+00 0.  1.
         21   -1    0    0  501  502 -0.00000000000E+00 -0.00000000000E+00 -0.26130520409E+03  0.26130520409E+03  0.00000000000E+00 0.  1.
      99926    2    1    2    0    0 -0.44408920985E-15  0.00000000000E+00 -0.74099922247E+02  0.44851048593E+03  0.44234698768E+03 0.  0.
      99925    2    3    3    0    0  0.23811693471E+01  0.92556958594E+02 -0.88233774493E+02  0.29224233681E+03  0.26276971650E+03 0.  0.
         25    1    3    3    0    0 -0.23811693471E+01 -0.92556958594E+02  0.14133852246E+02  0.15626814912E+03  0.12509000000E+03 0.  0.
         25    1    4    4    0    0  0.79034263871E+01  0.10173837995E+02 -0.61533558041E+02  0.13999949283E+03  0.12509000000E+03 0.  0.
         25    1    4    4    0    0 -0.55222570400E+01  0.82383120599E+02 -0.26700216452E+02  0.15224284397E+03  0.12509000000E+03 0.  0.
<mgrwt>
<rscale>  2 0.44234699E+03</rscale>
<asrwt>0</asrwt>
<pdfrwt beam="1">  1       21 0.27530189E-01 0.44234699E+03</pdfrwt>
<pdfrwt beam="2">  1       21 0.38427236E-01 0.44234699E+03</pdfrwt>
<totfact> 0.76453925E+04</totfact>
</mgrwt>
</event>
<event>
 7    0  0.4709932E-002  0.4577086E+03  0.7546771E-02  0.1025448E+00
         21   -1    0    0  502  501  0.00000000000E+00  0.00000000000E+00  0.73504455577E+02  0.73504455577E+02  0.00000000000E+00 0.  1.
         21   -1    0    0  501  502 -0.00000000000E+00 -0.00000000000E+00 -0.71253213488E+03  0.71253213488E+03  0.00000000000E+00 0.  1.
      99926    2    1    2    0    0  0.00000000000E+00  0.00000000000E+00 -0.63902767931E+03  0.78603659046E+03  0.45770858264E+03 0.  0.
      99925    2    3    3    0    0  0.10349030480E+03  0.98817849469E+01 -0.31380263545E+03  0.42240665480E+03  0.26295892291E+03 0.  0.
         25    1    4    4    0    0  0.72145000799E+02 -0.62669064901E+01 -0.11414594384E+03  0.18417649104E+03  0.12509000000E+03 0.  0.
         25    1    4    4    0    0  0.31345303998E+02  0.16148691437E+02 -0.19965669161E+03  0.23823016376E+03  0.12509000000E+03 0.  0.
         25    1    3    3    0    0 -0.10349030480E+03 -0.98817849469E+01 -0.32522504385E+03  0.36362993566E+03  0.12509000000E+03 0.  0.
<mgrwt>
<rscale>  2 0.45770858E+03</rscale>
<asrwt>0</asrwt>
<pdfrwt beam="1">  1       21 0.10809478E-01 0.45770858E+03</pdfrwt>
<pdfrwt beam="2">  1       21 0.10478414E+00 0.45770858E+03</pdfrwt>
<totfact> 0.47431248E+04</totfact>
</mgrwt>
</event>
<event>
 7    0  0.4709932E-002  0.4528096E+03  0.7546771E-02  0.1026887E+00
         21   -1    0    0  502  501  0.00000000000E+00  0.00000000000E+00  0.91522895083E+03  0.91522895083E+03  0.00000000000E+00 0. -1.
         21   -1    0    0  501  502 -0.00000000000E+00 -0.00000000000E+00 -0.56006897707E+02  0.56006897707E+02  0.00000000000E+00 0. -1.
      99926    2    1    2    0    0  0.35527136788E-14  0.00000000000E+00  0.85922205312E+03  0.97123584854E+03  0.45280960338E+03 0.  0.
      99925    2    3    3    0    0  0.30284101825E+02  0.70167137520E+02  0.71476363885E+03  0.76542939683E+03  0.26297252346E+03 0.  0.
         25    1    4    4    0    0 -0.72392712769E+01  0.69375602297E+01  0.27334746227E+03  0.30077712683E+03  0.12509000000E+03 0.  0.
         25    1    3    3    0    0 -0.30284101825E+02 -0.70167137520E+02  0.14445841427E+03  0.20580645171E+03  0.12509000000E+03 0.  0.
         25    1    4    4    0    0  0.37523373102E+02  0.63229577290E+02  0.44141617658E+03  0.46465227000E+03  0.12509000000E+03 0.  0.
<mgrwt>
<rscale>  2 0.45280960E+03</rscale>
<asrwt>0</asrwt>
<pdfrwt beam="1">  1       21 0.13459248E+00 0.45280960E+03</pdfrwt>
<pdfrwt beam="2">  1       21 0.82363090E-02 0.45280960E+03</pdfrwt>
<totfact> 0.40990094E+04</totfact>
</mgrwt>
</event>
<event>
 7    0  0.4709932E-002  0.4428655E+03  0.7546771E-02  0.1029871E+00
         21   -1    0    0  502  501  0.00000000000E+00  0.00000000000E+00  0.61990214335E+02  0.61990214335E+02  0.00000000000E+00 0. -1.
         21   -1    0    0  501  502 -0.00000000000E+00 -0.00000000000E+00 -0.79097114973E+03  0.79097114973E+03  0.00000000000E+00 0. -1.
      99926    2    1    2    0    0 -0.14210854715E-13  0.00000000000E+00 -0.72898093539E+03  0.85296136406E+03  0.44286553763E+03 0.  0.
      99925    2    3    3    0    0 -0.85699020485E+02  0.11039976733E+02 -0.36204078617E+03  0.45577276350E+03  0.26303816816E+03 0.  0.
         25    1    3    3    0    0  0.85699020485E+02 -0.11039976733E+02 -0.36694014923E+03  0.39718860056E+03  0.12509000000E+03 0.  0.
         25    1    4    4    0    0 -0.19736636783E+02 -0.14326779459E+02 -0.21674689592E+03  0.25143889204E+03  0.12509000000E+03 0.  0.
         25    1    4    4    0    0 -0.65962383702E+02  0.25366756193E+02 -0.14529389025E+03  0.20433387146E+03  0.12509000000E+03 0.  0.
<mgrwt>
<rscale>  2 0.44286554E+03</rscale>
<asrwt>0</asrwt>
<pdfrwt beam="1">  1       21 0.91162092E-02 0.44286554E+03</pdfrwt>
<pdfrwt beam="2">  1       21 0.11631927E+00 0.44286554E+03</pdfrwt>
<totfact> 0.49888928E+04</totfact>
</mgrwt>
</event>
<event>
 7    0  0.4709932E-002  0.4458353E+03  0.7546771E-02  0.1028971E+00
         21   -1    0    0  502  501  0.00000000000E+00  0.00000000000E+00  0.29937261277E+03  0.29937261277E+03  0.00000000000E+00 0.  1.
         21   -1    0    0  501  502 -0.00000000000E+00 -0.00000000000E+00 -0.16598802973E+03  0.16598802973E+03  0.00000000000E+00 0.  1.
      99926    2    1    2    0    0  0.00000000000E+00 -0.14210854715E-13  0.13338458305E+03  0.46536064250E+03  0.44583526172E+03 0.  0.
      99925    2    3    3    0    0  0.61558801561E+02 -0.80884779465E+02  0.10926411644E+03  0.30238475898E+03  0.26299441386E+03 0.  0.
         25    1    3    3    0    0 -0.61558801561E+02  0.80884779465E+02  0.24120466601E+02  0.16297588352E+03  0.12509000000E+03 0.  0.
         25    1    4    4    0    0  0.25367529866E+02 -0.18944454390E+02  0.89036860883E+02  0.15677204668E+03  0.12509000000E+03 0.  0.
         25    1    4    4    0    0  0.36191271695E+02 -0.61940325075E+02  0.20227255561E+02  0.14561271231E+03  0.12509000000E+03 0.  0.
<mgrwt>
<rscale>  2 0.44583526E+03</rscale>
<asrwt>0</asrwt>
<pdfrwt beam="1">  1       21 0.44025384E-01 0.44583526E+03</pdfrwt>
<pdfrwt beam="2">  1       21 0.24410004E-01 0.44583526E+03</pdfrwt>
<totfact> 0.72943594E+04</totfact>
</mgrwt>
</event>
<event>
 7    0  0.4709932E-002  0.4579565E+03  0.7546771E-02  0.1025376E+00
         21   -1    0    0  502  501  0.00000000000E+00  0.00000000000E+00  0.41120664133E+03  0.41120664133E+03  0.00000000000E+00 0. -1.
         21   -1    0    0  501  502 -0.00000000000E+00 -0.00000000000E+00 -0.12750531648E+03  0.12750531648E+03  0.00000000000E+00 0. -1.
      99926    2    1    2    0    0 -0.35527136788E-14  0.00000000000E+00  0.28370132485E+03  0.53871195781E+03  0.45795647366E+03 0.  0.
      99925    2    3    3    0    0 -0.27626341636E+02  0.93562177266E+02  0.10431969124E+03  0.29924927942E+03  0.26296470768E+03 0.  0.
         25    1    4    4    0    0 -0.37440082206E+02  0.72509605980E+02  0.80986338937E+02  0.16989908154E+03  0.12509000000E+03 0.  0.
         25    1    4    4    0    0  0.98137405700E+01  0.21052571286E+02  0.23333352306E+02  0.12935019788E+03  0.12509000000E+03 0.  0.
         25    1    3    3    0    0  0.27626341636E+02 -0.93562177266E+02  0.17938163360E+03  0.23946267839E+03  0.12509000000E+03 0.  0.
<mgrwt>
<rscale>  2 0.45795647E+03</rscale>
<asrwt>0</asrwt>
<pdfrwt beam="1">  1       21 0.60471564E-01 0.45795647E+03</pdfrwt>
<pdfrwt beam="2">  1       21 0.18750782E-01 0.45795647E+03</pdfrwt>
<totfact> 0.61174596E+04</totfact>
</mgrwt>
</event>
<event>
 7    0  0.4709932E-002  0.4250899E+03  0.7546771E-02  0.1035422E+00
         21   -1    0    0  502  501  0.00000000000E+00  0.00000000000E+00  0.16109999365E+04  0.16109999365E+04  0.00000000000E+00 0.  1.
         21   -1    0    0  501  502 -0.00000000000E+00 -0.00000000000E+00 -0.28041808562E+02  0.28041808562E+02  0.00000000000E+00 0.  1.
      99926    2    1    2    0    0  0.00000000000E+00  0.00000000000E+00  0.15829581279E+04  0.16390417451E+04  0.42508988138E+03 0.  0.
      99925    2    3    3    0    0 -0.37152719255E+01  0.81356198342E+02  0.10630767715E+04  0.10981565751E+04  0.26302662792E+03 0.  0.
         25    1    4    4    0    0  0.23353799303E+02  0.17232660065E+02  0.59405397416E+03  0.60777462667E+03  0.12509000000E+03 0.  0.
         25    1    3    3    0    0  0.37152719255E+01 -0.81356198342E+02  0.51988135639E+03  0.54088516995E+03  0.12509000000E+03 0.  0.
         25    1    4    4    0    0 -0.27069071229E+02  0.64123538277E+02  0.46902279738E+03  0.49038194842E+03  0.12509000000E+03 0.  0.
<mgrwt>
<rscale>  2 0.42508988E+03</rscale>
<asrwt>0</asrwt>
<pdfrwt beam="1">  1       21 0.23691169E+00 0.42508988E+03</pdfrwt>
<pdfrwt beam="2">  1       21 0.41237964E-02 0.42508988E+03</pdfrwt>
<totfact> 0.26121622E+04</totfact>
</mgrwt>
</event>
<event>
 7    0  0.4709932E-002  0.4449696E+03  0.7546771E-02  0.1029233E+00
         21   -1    0    0  502  501  0.00000000000E+00  0.00000000000E+00  0.19471175989E+03  0.19471175989E+03  0.00000000000E+00 0. -1.
         21   -1    0    0  501  502 -0.00000000000E+00 -0.00000000000E+00 -0.25421924382E+03  0.25421924382E+03  0.00000000000E+00 0. -1.
      99926    2    1    2    0    0  0.44408920985E-15 -0.35527136788E-14 -0.59507483937E+02  0.44893100371E+03  0.44496955564E+03 0.  0.
      99925    2    3    3    0    0 -0.27767066382E+01  0.11726420845E+02  0.65929035301E+02  0.27137242886E+03  0.26296604040E+03 0.  0.
         25    1    4    4    0    0  0.61103259516E+01 -0.84338472884E+01  0.71083029483E+02  0.14425245594E+03  0.12509000000E+03 0.  0.
         25    1    3    3    0    0  0.27767066382E+01 -0.11726420845E+02 -0.12543651924E+03  0.17755857485E+03  0.12509000000E+03 0.  0.
         25    1    4    4    0    0 -0.88870325899E+01  0.20160268133E+02 -0.51539941814E+01  0.12711997292E+03  0.12509000000E+03 0.  0.
<mgrwt>
<rscale>  2 0.44496956E+03</rscale>
<asrwt>0</asrwt>
<pdfrwt beam="1">  1       21 0.28634082E-01 0.44496956E+03</pdfrwt>
<pdfrwt beam="2">  1       21 0.37385183E-01 0.44496956E+03</pdfrwt>
<totfact> 0.74801629E+04</totfact>
</mgrwt>
</event>
<event>
 7    0  0.4709932E-002  0.4567402E+03  0.7546771E-02  0.1025731E+00
         21   -1    0    0  502  501  0.00000000000E+00  0.00000000000E+00  0.81436097128E+02  0.81436097128E+02  0.00000000000E+00 0. -1.
         21   -1    0    0  501  502 -0.00000000000E+00 -0.00000000000E+00 -0.64041519139E+03  0.64041519139E+03  0.00000000000E+00 0. -1.
      99926    2    1    2    0    0  0.00000000000E+00  0.00000000000E+00 -0.55897909426E+03  0.72185128851E+03  0.45674024884E+03 0.  0.
      99925    2    3    3    0    0 -0.89481399096E+01 -0.10962613572E+03 -0.40312604932E+03  0.49373807417E+03  0.26299945894E+03 0.  0.
         25    1    3    3    0    0  0.89481399096E+01  0.10962613572E+03 -0.15585304494E+03  0.22811321434E+03  0.12509000000E+03 0.  0.
         25    1    4    4    0    0 -0.31300858215E+02 -0.78254611708E+02 -0.17784784304E+03  0.23319710837E+03  0.12509000000E+03 0.  0.
         25    1    4    4    0    0  0.22352718306E+02 -0.31371524016E+02 -0.22527820628E+03  0.26054096580E+03  0.12509000000E+03 0.  0.
<mgrwt>
<rscale>  2 0.45674025E+03</rscale>
<asrwt>0</asrwt>
<pdfrwt beam="1">  1       21 0.11975897E-01 0.45674025E+03</pdfrwt>
<pdfrwt beam="2">  1       21 0.94178704E-01 0.45674025E+03</pdfrwt>
<totfact> 0.51030550E+04</totfact>
</mgrwt>
</event>
<event>
 7    0  0.4709932E-002  0.4576367E+03  0.7546771E-02  0.1025469E+00
         21   -1    0    0  502  501  0.00000000000E+00  0.00000000000E+00  0.39719980641E+03  0.39719980641E+03  0.00000000000E+00 0. -1.
         21   -1    0    0  501  502 -0.00000000000E+00 -0.00000000000E+00 -0.13181736623E+03  0.13181736623E+03  0.00000000000E+00 0. -1.
      99926    2    1    2    0    0 -0.14210854715E-13  0.00000000000E+00  0.26538244018E+03  0.52901717264E+03  0.45763667837E+03 0.  0.
      99925    2    3    3    0    0 -0.74484350527E+02  0.84023668768E+02  0.19846915989E+03  0.34809511603E+03  0.26300628698E+03 0.  0.
         25    1    3    3    0    0  0.74484350527E+02 -0.84023668768E+02  0.66913280295E+02  0.18092205661E+03  0.12509000000E+03 0.  0.
         25    1    4    4    0    0 -0.60694290480E+02  0.69952279223E+02  0.13692570738E+03  0.20729996553E+03  0.12509000000E+03 0.  0.
         25    1    4    4    0    0 -0.13790060048E+02  0.14071389545E+02  0.61543452504E+02  0.14079515051E+03  0.12509000000E+03 0.  0.
<mgrwt>
<rscale>  2 0.45763668E+03</rscale>
<asrwt>0</asrwt>
<pdfrwt beam="1">  1       21 0.58411736E-01 0.45763668E+03</pdfrwt>
<pdfrwt beam="2">  1       21 0.19384907E-01 0.45763668E+03</pdfrwt>
<totfact> 0.61967831E+04</totfact>
</mgrwt>
</event>
<event>
 7    0  0.4709932E-002  0.4639258E+03  0.7546771E-02  0.1023649E+00
         21   -1    0    0  502  501  0.00000000000E+00  0.00000000000E+00  0.54987925676E+03  0.54987925676E+03  0.00000000000E+00 0.  1.
         21   -1    0    0  501  502 -0.00000000000E+00 -0.00000000000E+00 -0.97852023758E+02  0.97852023758E+02  0.00000000000E+00 0.  1.
      99926    2    1    2    0    0  0.14210854715E-13  0.00000000000E+00  0.45202723301E+03  0.64773128052E+03  0.46392584794E+03 0.  0.
      99925    2    3    3    0    0 -0.97179794631E+02 -0.69445034216E+02  0.25119392053E+03  0.38268778832E+03  0.26284031721E+03 0.  0.
         25    1    4    4    0    0 -0.64354555221E+02 -0.54786926437E+02  0.17787971141E+03  0.23330627063E+03  0.12509000000E+03 0.  0.
         25    1    4    4    0    0 -0.32825239410E+02 -0.14658107779E+02  0.73314209124E+02  0.14938151768E+03  0.12509000000E+03 0.  0.
         25    1    3    3    0    0  0.97179794631E+02  0.69445034216E+02  0.20083331247E+03  0.26504349221E+03  0.12509000000E+03 0.  0.
<mgrwt>
<rscale>  2 0.46392585E+03</rscale>
<asrwt>0</asrwt>
<pdfrwt beam="1">  1       21 0.80864595E-01 0.46392585E+03</pdfrwt>
<pdfrwt beam="2">  1       21 0.14390004E-01 0.46392585E+03</pdfrwt>
<totfact> 0.52067429E+04</totfact>
</mgrwt>
</event>
<event>
 7    0  0.4709932E-002  0.4556570E+03  0.7546771E-02  0.1026048E+00
         21   -1    0    0  502  501  0.00000000000E+00  0.00000000000E+00  0.60740684249E+02  0.60740684249E+02  0.00000000000E+00 0.  1.
         21   -1    0    0  501  502 -0.00000000000E+00 -0.00000000000E+00 -0.85454796420E+03  0.85454796420E+03  0.00000000000E+00 0.  1.
      99926    2    1    2    0    0  0.00000000000E+00  0.00000000000E+00 -0.79380727995E+03  0.91528864845E+03  0.45565701166E+03 0.  0.
      99925    2    3    3    0    0 -0.71704437932E+02  0.81150847665E+02 -0.56945153519E+03  0.63652352365E+03  0.26298319098E+03 0.  0.
         25    1    4    4    0    0 -0.39728716690E+02  0.41197960715E+02 -0.19672285818E+03  0.24004798255E+03  0.12509000000E+03 0.  0.
         25    1    4    4    0    0 -0.31975721243E+02  0.39952886950E+02 -0.37272867701E+03  0.39647554110E+03  0.12509000000E+03 0.  0.
         25    1    3    3    0    0  0.71704437932E+02 -0.81150847665E+02 -0.22435574476E+03  0.27876512480E+03  0.12509000000E+03 0.  0.
<mgrwt>
<rscale>  2 0.45565701E+03</rscale>
<asrwt>0</asrwt>
<pdfrwt beam="1">  1       21 0.89324532E-02 0.45565701E+03</pdfrwt>
<pdfrwt beam="2">  1       21 0.12566882E+00 0.45565701E+03</pdfrwt>
<totfact> 0.42361079E+04</totfact>
</mgrwt>
</event>
<event>
 7    0  0.4709932E-002  0.4585336E+03  0.7546771E-02  0.1025207E+00
         21   -1    0    0  502  501  0.00000000000E+00  0.00000000000E+00  0.13820479445E+04  0.13820479445E+04  0.00000000000E+00 0.  1.
         21   -1    0    0  501  502 -0.00000000000E+00 -0.00000000000E+00 -0.38032875106E+02  0.38032875106E+02  0.00000000000E+00 0.  1.
      99926    2    1    2    0    0 -0.14210854715E-13  0.00000000000E+00  0.13440150693E+04  0.14200808196E+04  0.45853356197E+03 0.  0.
      99925    2    3    3    0    0  0.10827708288E+03  0.42811214233E+02  0.85012967980E+03  0.89746526980E+03  0.26299564879E+03 0.  0.
         25    1    4    4    0    0  0.39678945213E+02  0.67432795933E+01  0.51408543662E+03  0.53061401674E+03  0.12509000000E+03 0.  0.
         25    1    3    3    0    0 -0.10827708288E+03 -0.42811214233E+02  0.49388538955E+03  0.52261554976E+03  0.12509000000E+03 0.  0.
         25    1    4    4    0    0  0.68598137667E+02  0.36067934640E+02  0.33604424318E+03  0.36685125306E+03  0.12509000000E+03 0.  0.
<mgrwt>
<rscale>  2 0.45853356E+03</rscale>
<asrwt>0</asrwt>
<pdfrwt beam="1">  1       21 0.20324231E+00 0.45853356E+03</pdfrwt>
<pdfrwt beam="2">  1       21 0.55930708E-02 0.45853356E+03</pdfrwt>
<totfact> 0.25105347E+04</totfact>
</mgrwt>
</event>
<event>
 7    0  0.4709932E-002  0.4487002E+03  0.7546771E-02  0.1028110E+00
         21   -1    0    0  502  501  0.00000000000E+00  0.00000000000E+00  0.69792869793E+02  0.69792869793E+02  0.00000000000E+00 0.  1.
         21   -1    0    0  501  502 -0.00000000000E+00 -0.00000000000E+00 -0.72117628978E+03  0.72117628978E+03  0.00000000000E+00 0.  1.
      99926    2    1    2    0    0  0.00000000000E+00  0.14210854715E-13 -0.65138341999E+03  0.79096915957E+03  0.44870018003E+03 0.  0.
      99925    2    3    3    0    0 -0.40074641839E+02  0.83630481256E+02 -0.31702804704E+03  0.42213171865E+03  0.26284666816E+03 0.  0.
         25    1    3    3    0    0  0.40074641839E+02 -0.83630481256E+02 -0.33435537294E+03  0.36883744093E+03  0.12509000000E+03 0.  0.
         25    1    4    4    0    0  0.19790271740E+02  0.34138436969E+02 -0.13934735241E+03  0.19136948674E+03  0.12509000000E+03 0.  0.
         25    1    4    4    0    0 -0.59864913578E+02  0.49492044287E+02 -0.17768069464E+03  0.23076223190E+03  0.12509000000E+03 0.  0.
<mgrwt>
<rscale>  2 0.44870018E+03</rscale>
<asrwt>0</asrwt>
<pdfrwt beam="1">  1       21 0.10263657E-01 0.44870018E+03</pdfrwt>
<pdfrwt beam="2">  1       21 0.10605534E+00 0.44870018E+03</pdfrwt>
<totfact> 0.50663679E+04</totfact>
</mgrwt>
</event>
<event>
 7    0  0.4709932E-002  0.4563545E+03  0.7546771E-02  0.1025844E+00
         21   -1    0    0  502  501  0.00000000000E+00  0.00000000000E+00  0.31521446813E+03  0.31521446813E+03  0.00000000000E+00 0.  1.
         21   -1    0    0  501  502 -0.00000000000E+00 -0.00000000000E+00 -0.16517279219E+03  0.16517279219E+03  0.00000000000E+00 0.  1.
      99926    2    1    2    0    0  0.71054273576E-14  0.00000000000E+00  0.15004167594E+03  0.48038726032E+03  0.45635448431E+03 0.  0.
      99925    2    3    3    0    0  0.44290546213E+02  0.79390004840E+02  0.21091648710E+02  0.27904167935E+03  0.26297333670E+03 0.  0.
         25    1    4    4    0    0 -0.67782939897E+01  0.31984606001E+02  0.38244515557E+02  0.13482993496E+03  0.12509000000E+03 0.  0.
         25    1    4    4    0    0  0.51068840203E+02  0.47405398838E+02 -0.17152866848E+02  0.14421174439E+03  0.12509000000E+03 0.  0.
         25    1    3    3    0    0 -0.44290546213E+02 -0.79390004840E+02  0.12895002723E+03  0.20134558097E+03  0.12509000000E+03 0.  0.
<mgrwt>
<rscale>  2 0.45635448E+03</rscale>
<asrwt>0</asrwt>
<pdfrwt beam="1">  1       21 0.46355069E-01 0.45635448E+03</pdfrwt>
<pdfrwt beam="2">  1       21 0.24290116E-01 0.45635448E+03</pdfrwt>
<totfact> 0.65959925E+04</totfact>
</mgrwt>
</event>
<event>
 7    0  0.4709932E-002  0.4595111E+03  0.7546771E-02  0.1024923E+00
         21   -1    0    0  502  501  0.00000000000E+00  0.00000000000E+00  0.60217805112E+02  0.60217805112E+02  0.00000000000E+00 0.  1.
         21   -1    0    0  501  502 -0.00000000000E+00 -0.00000000000E+00 -0.87661137938E+03  0.87661137938E+03  0.00000000000E+00 0.  1.
      99926    2    1    2    0    0  0.71054273576E-14 -0.17763568394E-14 -0.81639357427E+03  0.93682918450E+03  0.45951110195E+03 0.  0.
      99925    2    3    3    0    0  0.49179005966E+02 -0.85384822048E+01 -0.72821568278E+03  0.77584990336E+03  0.26297055272E+03 0.  0.
         25    1    3    3    0    0 -0.49179005966E+02  0.85384822048E+01 -0.88177891490E+02  0.16097928113E+03  0.12509000000E+03 0.  0.
         25    1    4    4    0    0  0.19450369319E+02  0.84595929512E+01 -0.47097075877E+03  0.48776105348E+03  0.12509000000E+03 0.  0.
         25    1    4    4    0    0  0.29728636647E+02 -0.16998075156E+02 -0.25724492401E+03  0.28808884988E+03  0.12509000000E+03 0.  0.
<mgrwt>
<rscale>  2 0.45951110E+03</rscale>
<asrwt>0</asrwt>
<pdfrwt beam="1">  1       21 0.88555599E-02 0.45951110E+03</pdfrwt>
<pdfrwt beam="2">  1       21 0.12891343E+00 0.45951110E+03</pdfrwt>
<totfact> 0.40240185E+04</totfact>
</mgrwt>
</event>
<event>
 7    0  0.4709932E-002  0.4457820E+03  0.7546771E-02  0.1028987E+00
         21   -1    0    0  502  501  0.00000000000E+00  0.00000000000E+00  0.33536035024E+03  0.33536035024E+03  0.00000000000E+00 0. -1.
         21   -1    0    0  501  502 -0.00000000000E+00 -0.00000000000E+00 -0.14814032957E+03  0.14814032957E+03  0.00000000000E+00 0. -1.
      99926    2    1    2    0    0  0.00000000000E+00  0.00000000000E+00  0.18722002067E+03  0.48350067981E+03  0.44578197725E+03 0.  0.
      99925    2    3    3    0    0 -0.67889927389E+02  0.91290991272E+01  0.33569860740E+02  0.27386227103E+03  0.26302324089E+03 0.  0.
         25    1    4    4    0    0 -0.75755867172E+02  0.23248862621E+01  0.16593730672E+02  0.14719788213E+03  0.12509000000E+03 0.  0.
         25    1    3    3    0    0  0.67889927389E+02 -0.91290991272E+01  0.15365015993E+03  0.20963840878E+03  0.12509000000E+03 0.  0.
         25    1    4    4    0    0  0.78659397828E+01  0.68042128650E+01  0.16976130068E+02  0.12666438889E+03  0.12509000000E+03 0.  0.
<mgrwt>
<rscale>  2 0.44578198E+03</rscale>
<asrwt>0</asrwt>
<pdfrwt beam="1">  1       21 0.49317698E-01 0.44578198E+03</pdfrwt>
<pdfrwt beam="2">  1       21 0.21785343E-01 0.44578198E+03</pdfrwt>
<totfact> 0.71539711E+04</totfact>
</mgrwt>
</event>
<event>
 7    0  0.4709932E-002  0.4569123E+03  0.7546771E-02  0.1025681E+00
         21   -1    0    0  502  501  0.00000000000E+00  0.00000000000E+00  0.75625749676E+02  0.75625749676E+02  0.00000000000E+00 0.  1.
         21   -1    0    0  501  502 -0.00000000000E+00 -0.00000000000E+00 -0.69013803817E+03  0.69013803817E+03  0.00000000000E+00 0.  1.
      99926    2    1    2    0    0  0.71054273576E-14  0.00000000000E+00 -0.61451228849E+03  0.76576378784E+03  0.45691227393E+03 0.  0.
      99925    2    3    3    0    0 -0.53731266519E+02  0.49868108213E+02 -0.53447968293E+03  0.60015399565E+03  0.26294944344E+03 0.  0.
         25    1    3    3    0    0  0.53731266519E+02 -0.49868108213E+02 -0.80032605556E+02  0.16560979219E+03  0.12509000000E+03 0.  0.
         25    1    4    4    0    0 -0.60792218272E+02  0.63242192896E+01 -0.30071967114E+03  0.33138424565E+03  0.12509000000E+03 0.  0.
         25    1    4    4    0    0  0.70609517535E+01  0.43543888923E+02 -0.23376001179E+03  0.26876975000E+03  0.12509000000E+03 0.  0.
<mgrwt>
<rscale>  2 0.45691227E+03</rscale>
<asrwt>0</asrwt>
<pdfrwt beam="1">  1       21 0.11121434E-01 0.45691227E+03</pdfrwt>
<pdfrwt beam="2">  1       21 0.10149089E+00 0.45691227E+03</pdfrwt>
<totfact> 0.48729503E+04</totfact>
</mgrwt>
</event>
<event>
 7    0  0.4709932E-002  0.4665918E+03  0.7546771E-02  0.1022887E+00
         21   -1    0    0  502  501  0.00000000000E+00  0.00000000000E+00  0.54348575476E+03  0.54348575476E+03  0.00000000000E+00 0.  1.
         21   -1    0    0  501  502 -0.00000000000E+00 -0.00000000000E+00 -0.10014426702E+03  0.10014426702E+03  0.00000000000E+00 0.  1.
      99926    2    1    2    0    0  0.00000000000E+00  0.00000000000E+00  0.44334148774E+03  0.64363002178E+03  0.46659182396E+03 0.  0.
      99925    2    3    3    0    0  0.78590721048E+02  0.76601721207E+02  0.19721643009E+03  0.34652839401E+03  0.26295110273E+03 0.  0.
         25    1    4    4    0    0  0.36124535700E+02  0.16307832867E+02  0.13587503609E+03  0.18889272359E+03  0.12509000000E+03 0.  0.
         25    1    4    4    0    0  0.42466185348E+02  0.60293888339E+02  0.61341394002E+02  0.15763567042E+03  0.12509000000E+03 0.  0.
         25    1    3    3    0    0 -0.78590721048E+02 -0.76601721207E+02  0.24612505765E+03  0.29710162778E+03  0.12509000000E+03 0.  0.
<mgrwt>
<rscale>  2 0.46659182E+03</rscale>
<asrwt>0</asrwt>
<pdfrwt beam="1">  1       21 0.79924375E-01 0.46659182E+03</pdfrwt>
<pdfrwt beam="2">  1       21 0.14727098E-01 0.46659182E+03</pdfrwt>
<totfact> 0.51221208E+04</totfact>
</mgrwt>
</event>
<event>
 7    0  0.4709932E-002  0.4524149E+03  0.7546771E-02  0.1027004E+00
         21   -1    0    0  502  501  0.00000000000E+00  0.00000000000E+00  0.20680676572E+03  0.20680676572E+03  0.00000000000E+00 0.  1.
         21   -1    0    0  501  502 -0.00000000000E+00 -0.00000000000E+00 -0.24742814055E+03  0.24742814055E+03  0.00000000000E+00 0.  1.
      99926    2    1    2    0    0  0.00000000000E+00 -0.14210854715E-13 -0.40621374839E+02  0.45423490627E+03  0.45241491353E+03 0.  0.
      99925    2    3    3    0    0 -0.40802858491E+02 -0.68150638336E+02 -0.10308751409E+03  0.29342784977E+03  0.26298951442E+03 0.  0.
         25    1    4    4    0    0 -0.16106698174E+02 -0.52910481377E+02 -0.14748815181E+02  0.13756445913E+03  0.12509000000E+03 0.  0.
         25    1    3    3    0    0  0.40802858491E+02  0.68150638336E+02  0.62466139252E+02  0.16080705650E+03  0.12509000000E+03 0.  0.
         25    1    4    4    0    0 -0.24696160317E+02 -0.15240156958E+02 -0.88338698910E+02  0.15586339065E+03  0.12509000000E+03 0.  0.
<mgrwt>
<rscale>  2 0.45241491E+03</rscale>
<asrwt>0</asrwt>
<pdfrwt beam="1">  1       21 0.30412760E-01 0.45241491E+03</pdfrwt>
<pdfrwt beam="2">  1       21 0.36386491E-01 0.45241491E+03</pdfrwt>
<totfact> 0.70035299E+04</totfact>
</mgrwt>
</event>
<event>
 7    0  0.4709932E-002  0.4681905E+03  0.7546771E-02  0.1022432E+00
         21   -1    0    0  502  501  0.00000000000E+00  0.00000000000E+00  0.44053156343E+03  0.44053156343E+03  0.00000000000E+00 0.  1.
         21   -1    0    0  501  502 -0.00000000000E+00 -0.00000000000E+00 -0.12439651779E+03  0.12439651779E+03  0.00000000000E+00 0.  1.
      99926    2    1    2    0    0  0.00000000000E+00  0.14210854715E-13  0.31613504564E+03  0.56492808122E+03  0.46819052731E+03 0.  0.
      99925    2    3    3    0    0  0.35454779210E+02  0.10730040916E+03  0.13189299243E+03  0.31520210851E+03  0.26303267588E+03 0.  0.
         25    1    4    4    0    0 -0.15707918257E+02  0.73495365821E+02  0.80867429704E+02  0.16683931425E+03  0.12509000000E+03 0.  0.
         25    1    4    4    0    0  0.51162697467E+02  0.33805043342E+02  0.51025562727E+02  0.14836279425E+03  0.12509000000E+03 0.  0.
         25    1    3    3    0    0 -0.35454779210E+02 -0.10730040916E+03  0.18424205321E+03  0.24972597271E+03  0.12509000000E+03 0.  0.
<mgrwt>
<rscale>  2 0.46819053E+03</rscale>
<asrwt>0</asrwt>
<pdfrwt beam="1">  1       21 0.64784053E-01 0.46819053E+03</pdfrwt>
<pdfrwt beam="2">  1       21 0.18293606E-01 0.46819053E+03</pdfrwt>
<totfact> 0.54931610E+04</totfact>
</mgrwt>
</event>
<event>
 7    0  0.4709932E-002  0.4518367E+03  0.7546771E-02  0.1027176E+00
         21   -1    0    0  502  501  0.00000000000E+00  0.00000000000E+00  0.67595875316E+03  0.67595875316E+03  0.00000000000E+00 0.  1.
         21   -1    0    0  501  502 -0.00000000000E+00 -0.00000000000E+00 -0.75506234560E+02  0.75506234560E+02  0.00000000000E+00 0.  1.
      99926    2    1    2    0    0  0.00000000000E+00  0.14210854715E-13  0.60045251860E+03  0.75146498772E+03  0.45183669691E+03 0.  0.
      99925    2    3    3    0    0 -0.50384981012E+02 -0.72975481135E+02  0.48766104743E+03  0.56111401917E+03  0.26300490142E+03 0.  0.
         25    1    3    3    0    0  0.50384981012E+02  0.72975481135E+02  0.11279147116E+03  0.19035096854E+03  0.12509000000E+03 0.  0.
         25    1    4    4    0    0 -0.27002092890E+02  0.13127589241E+01  0.26228607221E+03  0.29184298541E+03  0.12509000000E+03 0.  0.
         25    1    4    4    0    0 -0.23382888122E+02 -0.74288240059E+02  0.22537497522E+03  0.26927103376E+03  0.12509000000E+03 0.  0.
<mgrwt>
<rscale>  2 0.45183670E+03</rscale>
<asrwt>0</asrwt>
<pdfrwt beam="1">  1       21 0.99405696E-01 0.45183670E+03</pdfrwt>
<pdfrwt beam="2">  1       21 0.11103858E-01 0.45183670E+03</pdfrwt>
<totfact> 0.51463772E+04</totfact>
</mgrwt>
</event>
<event>
 7    0  0.4709932E-002  0.4021504E+03  0.7546771E-02  0.1043038E+00
         21   -1    0    0  502  501  0.00000000000E+00  0.00000000000E+00  0.10819651440E+04  0.10819651440E+04  0.00000000000E+00 0. -1.
         21   -1    0    0  501  502 -0.00000000000E+00 -0.00000000000E+00 -0.37368327255E+02  0.37368327255E+02  0.00000000000E+00 0. -1.
      99926    2    1    2    0    0  0.00000000000E+00 -0.71054273576E-14  0.10445968167E+04  0.11193334713E+04  0.40215035785E+03 0.  0.
      99925    2    3    3    0    0 -0.18511637721E+02 -0.41732969179E+02  0.64150811786E+03  0.69481924451E+03  0.26297679708E+03 0.  0.
         25    1    3    3    0    0  0.18511637721E+02  0.41732969179E+02  0.40308869888E+03  0.42451422675E+03  0.12509000000E+03 0.  0.
         25    1    4    4    0    0 -0.19717074495E+02 -0.60601894498E+02  0.34060957223E+03  0.36840703229E+03  0.12509000000E+03 0.  0.
         25    1    4    4    0    0  0.12054367739E+01  0.18868925318E+02  0.30089854564E+03  0.32641221222E+03  0.12509000000E+03 0.  0.
<mgrwt>
<rscale>  2 0.40215036E+03</rscale>
<asrwt>0</asrwt>
<pdfrwt beam="1">  1       21 0.15911250E+00 0.40215036E+03</pdfrwt>
<pdfrwt beam="2">  1       21 0.54953429E-02 0.40215036E+03</pdfrwt>
<totfact> 0.53801674E+04</totfact>
</mgrwt>
</event>
<event>
 7    0  0.4709932E-002  0.4567062E+03  0.7546771E-02  0.1025741E+00
         21   -1    0    0  502  501  0.00000000000E+00  0.00000000000E+00  0.43841352932E+03  0.43841352932E+03  0.00000000000E+00 0.  1.
         21   -1    0    0  501  502 -0.00000000000E+00 -0.00000000000E+00 -0.11894052884E+03  0.11894052884E+03  0.00000000000E+00 0.  1.
      99926    2    1    2    0    0 -0.35527136788E-14  0.00000000000E+00  0.31947300048E+03  0.55735405816E+03  0.45670619452E+03 0.  0.
      99925    2    3    3    0    0  0.25087035137E+02 -0.11146703217E+03  0.21396485684E+03  0.35777015333E+03  0.26299099615E+03 0.  0.
         25    1    3    3    0    0 -0.25087035137E+02  0.11146703217E+03  0.10550814363E+03  0.19958390483E+03  0.12509000000E+03 0.  0.
         25    1    4    4    0    0  0.19236228561E+02 -0.72975273121E+02  0.66498375621E+02  0.16051468792E+03  0.12509000000E+03 0.  0.
         25    1    4    4    0    0  0.58508065760E+01 -0.38491759054E+02  0.14746648122E+03  0.19725546542E+03  0.12509000000E+03 0.  0.
<mgrwt>
<rscale>  2 0.45670619E+03</rscale>
<asrwt>0</asrwt>
<pdfrwt beam="1">  1       21 0.64472577E-01 0.45670619E+03</pdfrwt>
<pdfrwt beam="2">  1       21 0.17491254E-01 0.45670619E+03</pdfrwt>
<totfact> 0.60561616E+04</totfact>
</mgrwt>
</event>
<event>
 7    0  0.4709932E-002  0.4572857E+03  0.7546771E-02  0.1025571E+00
         21   -1    0    0  502  501  0.00000000000E+00  0.00000000000E+00  0.83790765255E+02  0.83790765255E+02  0.00000000000E+00 0. -1.
         21   -1    0    0  501  502 -0.00000000000E+00 -0.00000000000E+00 -0.62390599814E+03  0.62390599814E+03  0.00000000000E+00 0. -1.
      99926    2    1    2    0    0 -0.35527136788E-14 -0.14210854715E-13 -0.54011523288E+03  0.70769676339E+03  0.45728573575E+03 0.  0.
      99925    2    3    3    0    0 -0.29427571512E+02  0.80102327520E+02 -0.45923086764E+03  0.53602220651E+03  0.26295332522E+03 0.  0.
         25    1    3    3    0    0  0.29427571512E+02 -0.80102327520E+02 -0.80884365248E+02  0.17167455688E+03  0.12509000000E+03 0.  0.
         25    1    4    4    0    0 -0.32811795414E+02  0.74904652816E+02 -0.27968548804E+03  0.31711007750E+03  0.12509000000E+03 0.  0.
         25    1    4    4    0    0  0.33842239012E+01  0.51976747037E+01 -0.17954537959E+03  0.21891212901E+03  0.12509000000E+03 0.  0.
<mgrwt>
<rscale>  2 0.45728574E+03</rscale>
<asrwt>0</asrwt>
<pdfrwt beam="1">  1       21 0.12322172E-01 0.45728574E+03</pdfrwt>
<pdfrwt beam="2">  1       21 0.91750881E-01 0.45728574E+03</pdfrwt>
<totfact> 0.51553620E+04</totfact>
</mgrwt>
</event>
<event>
 7    0  0.4709932E-002  0.4645077E+03  0.7546771E-02  0.1023482E+00
         21   -1    0    0  502  501  0.00000000000E+00  0.00000000000E+00  0.90494180950E+03  0.90494180950E+03  0.00000000000E+00 0.  1.
         21   -1    0    0  501  502 -0.00000000000E+00 -0.00000000000E+00 -0.59608082395E+02  0.59608082395E+02  0.00000000000E+00 0.  1.
      99926    2    1    2    0    0  0.00000000000E+00  0.00000000000E+00  0.84533372711E+03  0.96454989190E+03  0.46450767892E+03 0.  0.
      99925    2    3    3    0    0  0.97160752434E+02  0.60424232480E+02  0.61459940355E+03  0.67823339595E+03  0.26301485291E+03 0.  0.
         25    1    3    3    0    0 -0.97160752434E+02 -0.60424232480E+02  0.23073432355E+03  0.28631649594E+03  0.12509000000E+03 0.  0.
         25    1    4    4    0    0  0.70691152645E+02  0.20611456695E+01  0.26529441812E+03  0.30171198811E+03  0.12509000000E+03 0.  0.
         25    1    4    4    0    0  0.26469599790E+02  0.58363086810E+02  0.34930498544E+03  0.37652140784E+03  0.12509000000E+03 0.  0.
<mgrwt>
<rscale>  2 0.46450768E+03</rscale>
<asrwt>0</asrwt>
<pdfrwt beam="1">  1       21 0.13307967E+00 0.46450768E+03</pdfrwt>
<pdfrwt beam="2">  1       21 0.87658950E-02 0.46450768E+03</pdfrwt>
<totfact> 0.37677425E+04</totfact>
</mgrwt>
</event>
<event>
 7    0  0.4709932E-002  0.4560556E+03  0.7546771E-02  0.1025931E+00
         21   -1    0    0  502  501  0.00000000000E+00  0.00000000000E+00  0.28773646752E+04  0.28773646752E+04  0.00000000000E+00 0.  1.
         21   -1    0    0  501  502 -0.00000000000E+00 -0.00000000000E+00 -0.18070936140E+02  0.18070936140E+02  0.00000000000E+00 0.  1.
      99926    2    1    2    0    0  0.00000000000E+00  0.00000000000E+00  0.28592937391E+04  0.28954356113E+04  0.45605558125E+03 0.  0.
      99925    2    3    3    0    0 -0.59954654539E+02  0.90138032524E+02  0.15730616497E+04  0.15986087449E+04  0.26326325278E+03 0.  0.
         25    1    4    4    0    0  0.11980504837E+02  0.43006605730E+02  0.72186813792E+03  0.73398516148E+03  0.12509000000E+03 0.  0.
         25    1    4    4    0    0 -0.71935159376E+02  0.47131426795E+02  0.85119351174E+03  0.86462358346E+03  0.12509000000E+03 0.  0.
         25    1    3    3    0    0  0.59954654539E+02 -0.90138032524E+02  0.12862320894E+04  0.12968268664E+04  0.12509000000E+03 0.  0.
<mgrwt>
<rscale>  2 0.45605558E+03</rscale>
<asrwt>0</asrwt>
<pdfrwt beam="1">  1       21 0.42314155E+00 0.45605558E+03</pdfrwt>
<pdfrwt beam="2">  1       21 0.26574926E-02 0.45605558E+03</pdfrwt>
<totfact> 0.38411325E+03</totfact>
</mgrwt>
</event>
<event>
 7    0  0.4709932E-002  0.4531424E+03  0.7546771E-02  0.1026789E+00
         21   -1    0    0  502  501  0.00000000000E+00  0.00000000000E+00  0.26032818012E+03  0.26032818012E+03  0.00000000000E+00 0.  1.
         21   -1    0    0  501  502 -0.00000000000E+00 -0.00000000000E+00 -0.19719148642E+03  0.19719148642E+03  0.00000000000E+00 0.  1.
      99926    2    1    2    0    0  0.71054273576E-14  0.71054273576E-14  0.63136693700E+02  0.45751966655E+03  0.45314236525E+03 0.  0.
      99925    2    3    3    0    0 -0.56223098479E+02 -0.44865167771E+02  0.12544123710E+03  0.30034688166E+03  0.26324670041E+03 0.  0.
         25    1    4    4    0    0 -0.62500847102E+01 -0.27636682059E+02  0.23149116587E+02  0.13033126813E+03  0.12509000000E+03 0.  0.
         25    1    3    3    0    0  0.56223098479E+02  0.44865167771E+02 -0.62304543398E+02  0.15717278489E+03  0.12509000000E+03 0.  0.
         25    1    4    4    0    0 -0.49973013769E+02 -0.17228485712E+02  0.10229212051E+03  0.17001561353E+03  0.12509000000E+03 0.  0.
<mgrwt>
<rscale>  2 0.45314237E+03</rscale>
<asrwt>0</asrwt>
<pdfrwt beam="1">  1       21 0.38283556E-01 0.45314237E+03</pdfrwt>
<pdfrwt beam="2">  1       21 0.28998748E-01 0.45314237E+03</pdfrwt>
<totfact> 0.69383895E+04</totfact>
</mgrwt>
</event>
<event>
 7    0  0.4709932E-002  0.4630932E+03  0.7546771E-02  0.1023888E+00
         21   -1    0    0  502  501  0.00000000000E+00  0.00000000000E+00  0.57742073235E+03  0.57742073235E+03  0.00000000000E+00 0.  1.
         21   -1    0    0  501  502 -0.00000000000E+00 -0.00000000000E+00 -0.92850532025E+02  0.92850532025E+02  0.00000000000E+00 0.  1.
      99926    2    1    2    0    0  0.00000000000E+00  0.00000000000E+00  0.48457020033E+03  0.67027126438E+03  0.46309317508E+03 0.  0.
      99925    2    3    3    0    0  0.10993837465E+03  0.21858765629E+02  0.23848507267E+03  0.37232890417E+03  0.26303883959E+03 0.  0.
         25    1    4    4    0    0  0.90780808284E+02  0.13980077694E+02  0.16157588586E+03  0.22403319557E+03  0.12509000000E+03 0.  0.
         25    1    3    3    0    0 -0.10993837465E+03 -0.21858765629E+02  0.24608512766E+03  0.29794236021E+03  0.12509000000E+03 0.  0.
         25    1    4    4    0    0  0.19157566365E+02  0.78786879359E+01  0.76909186812E+02  0.14829570860E+03  0.12509000000E+03 0.  0.
<mgrwt>
<rscale>  2 0.46309318E+03</rscale>
<asrwt>0</asrwt>
<pdfrwt beam="1">  1       21 0.84914812E-01 0.46309318E+03</pdfrwt>
<pdfrwt beam="2">  1       21 0.13654490E-01 0.46309318E+03</pdfrwt>
<totfact> 0.51201221E+04</totfact>
</mgrwt>
</event>
<event>
 7    0  0.4709932E-002  0.4538948E+03  0.7546771E-02  0.1026567E+00
         21   -1    0    0  502  501  0.00000000000E+00  0.00000000000E+00  0.15083677676E+03  0.15083677676E+03  0.00000000000E+00 0.  1.
         21   -1    0    0  501  502 -0.00000000000E+00 -0.00000000000E+00 -0.34146257843E+03  0.34146257843E+03  0.00000000000E+00 0.  1.
      99926    2    1    2    0    0  0.00000000000E+00  0.00000000000E+00 -0.19062580167E+03  0.49229935519E+03  0.45389476628E+03 0.  0.
      99925    2    3    3    0    0 -0.10538093782E+03  0.28806787329E+02 -0.92891911230E+02  0.29959648937E+03  0.26304785918E+03 0.  0.
         25    1    3    3    0    0  0.10538093782E+03 -0.28806787329E+02 -0.97733890441E+02  0.19270286582E+03  0.12509000000E+03 0.  0.
         25    1    4    4    0    0 -0.30213027032E+02  0.48586212842E+02 -0.45883950638E+02  0.14500445547E+03  0.12509000000E+03 0.  0.
         25    1    4    4    0    0 -0.75167910791E+02 -0.19779425513E+02 -0.47007960592E+02  0.15459203390E+03  0.12509000000E+03 0.  0.
<mgrwt>
<rscale>  2 0.45389477E+03</rscale>
<asrwt>0</asrwt>
<pdfrwt beam="1">  1       21 0.22181879E-01 0.45389477E+03</pdfrwt>
<pdfrwt beam="2">  1       21 0.50215084E-01 0.45389477E+03</pdfrwt>
<totfact> 0.66395758E+04</totfact>
</mgrwt>
</event>
<event>
 7    0  0.4709932E-002  0.4550602E+03  0.7546771E-02  0.1026224E+00
         21   -1    0    0  502  501  0.00000000000E+00  0.00000000000E+00  0.27836874804E+03  0.27836874804E+03  0.00000000000E+00 0. -1.
         21   -1    0    0  501  502 -0.00000000000E+00 -0.00000000000E+00 -0.18597617097E+03  0.18597617097E+03  0.00000000000E+00 0. -1.
      99926    2    1    2    0    0  0.00000000000E+00 -0.35527136788E-14  0.92392577064E+02  0.46434491901E+03  0.45506023284E+03 0.  0.
      99925    2    3    3    0    0  0.71420634615E+02 -0.24250186418E+02  0.14433317271E+03  0.30931488267E+03  0.26297272350E+03 0.  0.
         25    1    4    4    0    0  0.74729937961E+02  0.19638233085E+01  0.76995083850E+02  0.16481556743E+03  0.12509000000E+03 0.  0.
         25    1    4    4    0    0 -0.33093033453E+01 -0.26214009727E+02  0.67338088861E+02  0.14449931524E+03  0.12509000000E+03 0.  0.
         25    1    3    3    0    0 -0.71420634615E+02  0.24250186418E+02 -0.51940595647E+02  0.15503003634E+03  0.12509000000E+03 0.  0.
<mgrwt>
<rscale>  2 0.45506023E+03</rscale>
<asrwt>0</asrwt>
<pdfrwt beam="1">  1       21 0.40936581E-01 0.45506023E+03</pdfrwt>
<pdfrwt beam="2">  1       21 0.27349437E-01 0.45506023E+03</pdfrwt>
<totfact> 0.67826430E+04</totfact>
</mgrwt>
</event>
<event>
 7    0  0.4709932E-002  0.4355695E+03  0.7546771E-02  0.1032115E+00
         21   -1    0    0  502  501  0.00000000000E+00  0.00000000000E+00  0.14549359409E+03  0.14549359409E+03  0.00000000000E+00 0.  1.
         21   -1    0    0  501  502 -0.00000000000E+00 -0.00000000000E+00 -0.32599511030E+03  0.32599511030E+03  0.00000000000E+00 0.  1.
      99926    2    1    2    0    0  0.00000000000E+00  0.00000000000E+00 -0.18050151622E+03  0.47148870439E+03  0.43556951341E+03 0.  0.
      99925    2    3    3    0    0  0.86959254586E+02 -0.33666465953E+02 -0.12731440623E+03  0.30665023904E+03  0.26292597472E+03 0.  0.
         25    1    3    3    0    0 -0.86959254586E+02  0.33666465953E+02 -0.53187109988E+02  0.16483846534E+03  0.12509000000E+03 0.  0.
         25    1    4    4    0    0  0.50288150357E+02 -0.28832756188E+02 -0.23322928820E+02  0.13982736858E+03  0.12509000000E+03 0.  0.
         25    1    4    4    0    0  0.36671104229E+02 -0.48337097651E+01 -0.10399147741E+03  0.16682287046E+03  0.12509000000E+03 0.  0.
<mgrwt>
<rscale>  2 0.43556951E+03</rscale>
<asrwt>0</asrwt>
<pdfrwt beam="1">  1       21 0.21396117E-01 0.43556951E+03</pdfrwt>
<pdfrwt beam="2">  1       21 0.47940457E-01 0.43556951E+03</pdfrwt>
<totfact> 0.78794414E+04</totfact>
</mgrwt>
</event>
<event>
 7    0  0.4709932E-002  0.4704402E+03  0.7546771E-02  0.1021796E+00
         21   -1    0    0  502  501  0.00000000000E+00  0.00000000000E+00  0.58377607297E+03  0.58377607297E+03  0.00000000000E+00 0. -1.
         21   -1    0    0  501  502 -0.00000000000E+00 -0.00000000000E+00 -0.94776918055E+02  0.94776918055E+02  0.00000000000E+00 0. -1.
      99926    2    1    2    0    0  0.00000000000E+00 -0.14210854715E-13  0.48899915492E+03  0.67855299103E+03  0.47044020674E+03 0.  0.
      99925    2    3    3    0    0 -0.41876744682E+02 -0.11505471145E+03  0.35287987892E+03  0.45681617909E+03  0.26299346790E+03 0.  0.
         25    1    4    4    0    0 -0.10770670048E+02 -0.14100050283E+02  0.15682702394E+03  0.20138779081E+03  0.12509000000E+03 0.  0.
         25    1    3    3    0    0  0.41876744682E+02  0.11505471145E+03  0.13611927599E+03  0.22173681194E+03  0.12509000000E+03 0.  0.
         25    1    4    4    0    0 -0.31106074634E+02 -0.10095466116E+03  0.19605285498E+03  0.25542838828E+03  0.12509000000E+03 0.  0.
<mgrwt>
<rscale>  2 0.47044021E+03</rscale>
<asrwt>0</asrwt>
<pdfrwt beam="1">  1       21 0.85849420E-01 0.47044021E+03</pdfrwt>
<pdfrwt beam="2">  1       21 0.13937782E-01 0.47044021E+03</pdfrwt>
<totfact> 0.47973226E+04</totfact>
</mgrwt>
</event>
<event>
 7    0  0.4709932E-002  0.4384149E+03  0.7546771E-02  0.1031234E+00
         21   -1    0    0  502  501  0.00000000000E+00  0.00000000000E+00  0.14939350691E+03  0.14939350691E+03  0.00000000000E+00 0. -1.
         21   -1    0    0  501  502 -0.00000000000E+00 -0.00000000000E+00 -0.32164654102E+03  0.32164654102E+03  0.00000000000E+00 0. -1.
      99926    2    1    2    0    0  0.00000000000E+00 -0.14210854715E-13 -0.17225303411E+03  0.47104004793E+03  0.43841489367E+03 0.  0.
      99925    2    3    3    0    0  0.62067042101E+02 -0.67303369235E+02 -0.14400996180E+03  0.31347342564E+03  0.26295371885E+03 0.  0.
         25    1    4    4    0    0  0.57565961671E+02 -0.30570840686E+01 -0.70201410385E+02  0.15459279358E+03  0.12509000000E+03 0.  0.
         25    1    3    3    0    0 -0.62067042101E+02  0.67303369235E+02 -0.28243072311E+02  0.15756662229E+03  0.12509000000E+03 0.  0.
         25    1    4    4    0    0  0.45010804304E+01 -0.64246285166E+02 -0.73808551413E+02  0.15888063206E+03  0.12509000000E+03 0.  0.
<mgrwt>
<rscale>  2 0.43841489E+03</rscale>
<asrwt>0</asrwt>
<pdfrwt beam="1">  1       21 0.21969633E-01 0.43841489E+03</pdfrwt>
<pdfrwt beam="2">  1       21 0.47300962E-01 0.43841489E+03</pdfrwt>
<totfact> 0.77007314E+04</totfact>
</mgrwt>
</event>
<event>
 7    0  0.4709932E-002  0.4609779E+03  0.7546771E-02  0.1024498E+00
         21   -1    0    0  502  501  0.00000000000E+00  0.00000000000E+00  0.22592811706E+03  0.22592811706E+03  0.00000000000E+00 0. -1.
         21   -1    0    0  501  502 -0.00000000000E+00 -0.00000000000E+00 -0.23514183787E+03  0.23514183787E+03  0.00000000000E+00 0. -1.
      99926    2    1    2    0    0  0.14210854715E-13  0.00000000000E+00 -0.92137208094E+01  0.46106995494E+03  0.46097788526E+03 0.  0.
      99925    2    3    3    0    0 -0.11596850342E+03  0.17364686894E+02  0.12633139781E+02  0.28822603820E+03  0.26299130544E+03 0.  0.
         25    1    4    4    0    0 -0.34360455996E+02 -0.20311673746E+02 -0.13475901108E+02  0.13199360984E+03  0.12509000000E+03 0.  0.
         25    1    3    3    0    0  0.11596850342E+03 -0.17364686894E+02 -0.21846860590E+02  0.17284391674E+03  0.12509000000E+03 0.  0.
         25    1    4    4    0    0 -0.81608047425E+02  0.37676360639E+02  0.26109040889E+02  0.15623242836E+03  0.12509000000E+03 0.  0.
<mgrwt>
<rscale>  2 0.46097789E+03</rscale>
<asrwt>0</asrwt>
<pdfrwt beam="1">  1       21 0.33224723E-01 0.46097789E+03</pdfrwt>
<pdfrwt beam="2">  1       21 0.34579682E-01 0.46097789E+03</pdfrwt>
<totfact> 0.64949739E+04</totfact>
</mgrwt>
</event>
<event>
 7    0  0.4709932E-002  0.4545153E+03  0.7546771E-02  0.1026384E+00
         21   -1    0    0  502  501  0.00000000000E+00  0.00000000000E+00  0.22852911643E+03  0.22852911643E+03  0.00000000000E+00 0.  1.
         21   -1    0    0  501  502 -0.00000000000E+00 -0.00000000000E+00 -0.22599321343E+03  0.22599321343E+03  0.00000000000E+00 0.  1.
      99926    2    1    2    0    0  0.00000000000E+00  0.00000000000E+00  0.25359029993E+01  0.45452232987E+03  0.45451525557E+03 0.  0.
      99925    2    3    3    0    0  0.70498684570E+02 -0.81855155777E+02  0.30234309755E+02  0.28693640895E+03  0.26409857675E+03 0.  0.
         25    1    4    4    0    0  0.30891449703E+02  0.32908480717E+01  0.11495521538E+02  0.12940157055E+03  0.12509000000E+03 0.  0.
         25    1    4    4    0    0  0.39607234867E+02 -0.85146003848E+02  0.18738788217E+02  0.15753483840E+03  0.12509000000E+03 0.  0.
         25    1    3    3    0    0 -0.70498684570E+02  0.81855155777E+02 -0.27698406756E+02  0.16758592092E+03  0.12509000000E+03 0.  0.
<mgrwt>
<rscale>  2 0.45451526E+03</rscale>
<asrwt>0</asrwt>
<pdfrwt beam="1">  1       21 0.33607223E-01 0.45451526E+03</pdfrwt>
<pdfrwt beam="2">  1       21 0.33234296E-01 0.45451526E+03</pdfrwt>
<totfact> 0.68846695E+04</totfact>
</mgrwt>
</event>
<event>
 7    0  0.4709932E-002  0.4549740E+03  0.7546771E-02  0.1026249E+00
         21   -1    0    0  502  501  0.00000000000E+00  0.00000000000E+00  0.32550853505E+03  0.32550853505E+03  0.00000000000E+00 0.  1.
         21   -1    0    0  501  502 -0.00000000000E+00 -0.00000000000E+00 -0.15898304193E+03  0.15898304193E+03  0.00000000000E+00 0.  1.
      99926    2    1    2    0    0  0.14210854715E-13 -0.26645352591E-14  0.16652549312E+03  0.48449157697E+03  0.45497400838E+03 0.  0.
      99925    2    3    3    0    0 -0.66409542018E+02  0.29234628717E+01  0.20332256762E+03  0.33813479818E+03  0.26187077219E+03 0.  0.
         25    1    4    4    0    0 -0.48764569987E+02 -0.26294613723E+02  0.76427402111E+02  0.15671006952E+03  0.12509000000E+03 0.  0.
         25    1    4    4    0    0 -0.17644972031E+02  0.29218076595E+02  0.12689516551E+03  0.18142472866E+03  0.12509000000E+03 0.  0.
         25    1    3    3    0    0  0.66409542018E+02 -0.29234628717E+01 -0.36797074505E+02  0.14635677879E+03  0.12509000000E+03 0.  0.
<mgrwt>
<rscale>  2 0.45497401E+03</rscale>
<asrwt>0</asrwt>
<pdfrwt beam="1">  1       21 0.47868902E-01 0.45497401E+03</pdfrwt>
<pdfrwt beam="2">  1       21 0.23379859E-01 0.45497401E+03</pdfrwt>
<totfact> 0.66388272E+04</totfact>
</mgrwt>
</event>
<event>
 7    0  0.4709932E-002  0.4598079E+03  0.7546771E-02  0.1024837E+00
         21   -1    0    0  502  501  0.00000000000E+00  0.00000000000E+00  0.23605117573E+03  0.23605117573E+03  0.00000000000E+00 0.  1.
         21   -1    0    0  501  502 -0.00000000000E+00 -0.00000000000E+00 -0.22391685797E+03  0.22391685797E+03  0.00000000000E+00 0.  1.
      99926    2    1    2    0    0  0.00000000000E+00  0.14210854715E-13  0.12134317762E+02  0.45996803369E+03  0.45980794942E+03 0.  0.
      99925    2    3    3    0    0 -0.16570329860E+02  0.95358422495E+02  0.74671966868E+02  0.28989078587E+03  0.26285539850E+03 0.  0.
         25    1    4    4    0    0  0.10627384092E+02  0.94621768999E+01  0.30804088263E+02  0.12961047040E+03  0.12509000000E+03 0.  0.
         25    1    3    3    0    0  0.16570329860E+02 -0.95358422495E+02 -0.62537649106E+02  0.17007724783E+03  0.12509000000E+03 0.  0.
         25    1    4    4    0    0 -0.27197713952E+02  0.85896245596E+02  0.43867878605E+02  0.16028031546E+03  0.12509000000E+03 0.  0.
<mgrwt>
<rscale>  2 0.45980795E+03</rscale>
<asrwt>0</asrwt>
<pdfrwt beam="1">  1       21 0.34713408E-01 0.45980795E+03</pdfrwt>
<pdfrwt beam="2">  1       21 0.32928949E-01 0.45980795E+03</pdfrwt>
<totfact> 0.65629310E+04</totfact>
</mgrwt>
</event>
<event>
 7    0  0.4709932E-002  0.4658795E+03  0.7546771E-02  0.1023090E+00
         21   -1    0    0  502  501  0.00000000000E+00  0.00000000000E+00  0.34347330561E+03  0.34347330561E+03  0.00000000000E+00 0. -1.
         21   -1    0    0  501  502 -0.00000000000E+00 -0.00000000000E+00 -0.15797715043E+03  0.15797715043E+03  0.00000000000E+00 0. -1.
      99926    2    1    2    0    0  0.14210854715E-13 -0.71054273576E-14  0.18549615518E+03  0.50145045604E+03  0.46587952979E+03 0.  0.
      99925    2    3    3    0    0  0.11690091657E+03 -0.35875720861E+02  0.10031824071E+03  0.30688510236E+03  0.26298635894E+03 0.  0.
         25    1    3    3    0    0 -0.11690091657E+03  0.35875720861E+02  0.85177914467E+02  0.19456535368E+03  0.12509000000E+03 0.  0.
         25    1    4    4    0    0  0.72914836058E+02 -0.24353548705E+02  0.12346587233E+02  0.14734183034E+03  0.12509000000E+03 0.  0.
         25    1    4    4    0    0  0.43986080510E+02 -0.11522172157E+02  0.87971653477E+02  0.15954327202E+03  0.12509000000E+03 0.  0.
<mgrwt>
<rscale>  2 0.46587953E+03</rscale>
<asrwt>0</asrwt>
<pdfrwt beam="1">  1       21 0.50510780E-01 0.46587953E+03</pdfrwt>
<pdfrwt beam="2">  1       21 0.23231934E-01 0.46587953E+03</pdfrwt>
<totfact> 0.59832005E+04</totfact>
</mgrwt>
</event>
<event>
 7    0  0.4709932E-002  0.4126560E+03  0.7546771E-02  0.1039483E+00
         21   -1    0    0  502  501  0.00000000000E+00  0.00000000000E+00  0.71430254446E+02  0.71430254446E+02  0.00000000000E+00 0. -1.
         21   -1    0    0  501  502 -0.00000000000E+00 -0.00000000000E+00 -0.59598339112E+03  0.59598339112E+03  0.00000000000E+00 0. -1.
      99926    2    1    2    0    0  0.00000000000E+00 -0.66613381478E-15 -0.52455313667E+03  0.66741364557E+03  0.41265600819E+03 0.  0.
      99925    2    3    3    0    0 -0.33339249666E+02 -0.76160820388E+00 -0.43701055913E+03  0.51113409924E+03  0.26299762928E+03 0.  0.
         25    1    4    4    0    0  0.29581526791E+01 -0.20747851095E+02 -0.27075038257E+03  0.29898578854E+03  0.12509000000E+03 0.  0.
         25    1    3    3    0    0  0.33339249666E+02  0.76160820388E+00 -0.87542577544E+02  0.15627954632E+03  0.12509000000E+03 0.  0.
         25    1    4    4    0    0 -0.36297402345E+02  0.19986242891E+02 -0.16626017656E+03  0.21214831070E+03  0.12509000000E+03 0.  0.
<mgrwt>
<rscale>  2 0.41265601E+03</rscale>
<asrwt>0</asrwt>
<pdfrwt beam="1">  1       21 0.10504449E-01 0.41265601E+03</pdfrwt>
<pdfrwt beam="2">  1       21 0.87644617E-01 0.41265601E+03</pdfrwt>
<totfact> 0.77500948E+04</totfact>
</mgrwt>
</event>
<event>
 7    0  0.4709932E-002  0.4515857E+03  0.7546771E-02  0.1027250E+00
         21   -1    0    0  502  501  0.00000000000E+00  0.00000000000E+00  0.70965560984E+02  0.70965560984E+02  0.00000000000E+00 0. -1.
         21   -1    0    0  501  502 -0.00000000000E+00 -0.00000000000E+00 -0.71841054878E+03  0.71841054878E+03  0.00000000000E+00 0. -1.
      99926    2    1    2    0    0  0.14210854715E-13  0.00000000000E+00 -0.64744498780E+03  0.78937610977E+03  0.45158568450E+03 0.  0.
      99925    2    3    3    0    0  0.99577418270E+02  0.29161093086E+02 -0.47197593931E+03  0.55020477650E+03  0.26305508400E+03 0.  0.
         25    1    3    3    0    0 -0.99577418270E+02 -0.29161093086E+02 -0.17546904849E+03  0.23917133327E+03  0.12509000000E+03 0.  0.
         25    1    4    4    0    0  0.90999883414E+02  0.14470753949E+02 -0.23528219213E+03  0.28194964007E+03  0.12509000000E+03 0.  0.
         25    1    4    4    0    0  0.85775348567E+01  0.14690339137E+02 -0.23669374718E+03  0.26825513643E+03  0.12509000000E+03 0.  0.
<mgrwt>
<rscale>  2 0.45158568E+03</rscale>
<asrwt>0</asrwt>
<pdfrwt beam="1">  1       21 0.10436112E-01 0.45158568E+03</pdfrwt>
<pdfrwt beam="2">  1       21 0.10564861E+00 0.45158568E+03</pdfrwt>
<totfact> 0.49598809E+04</totfact>
</mgrwt>
</event>
<event>
 7    0  0.4709932E-002  0.4515269E+03  0.7546771E-02  0.1027268E+00
         21   -1    0    0  502  501  0.00000000000E+00  0.00000000000E+00  0.43684554725E+03  0.43684554725E+03  0.00000000000E+00 0.  1.
         21   -1    0    0  501  502 -0.00000000000E+00 -0.00000000000E+00 -0.11667538933E+03  0.11667538933E+03  0.00000000000E+00 0.  1.
      99926    2    1    2    0    0  0.71054273576E-14  0.00000000000E+00  0.32017015792E+03  0.55352093658E+03  0.45152685104E+03 0.  0.
      99925    2    3    3    0    0 -0.61888995734E+02  0.67632469815E+02  0.27626853035E+03  0.39234010716E+03  0.26306284433E+03 0.  0.
         25    1    3    3    0    0  0.61888995734E+02 -0.67632469815E+02  0.43901627576E+02  0.16118082941E+03  0.12509000000E+03 0.  0.
         25    1    4    4    0    0 -0.42013369342E+02  0.62723033324E+02  0.18698418996E+03  0.23729706595E+03  0.12509000000E+03 0.  0.
         25    1    4    4    0    0 -0.19875626393E+02  0.49094364911E+01  0.89284340381E+02  0.15504304121E+03  0.12509000000E+03 0.  0.
<mgrwt>
<rscale>  2 0.45152685E+03</rscale>
<asrwt>0</asrwt>
<pdfrwt beam="1">  1       21 0.64241992E-01 0.45152685E+03</pdfrwt>
<pdfrwt beam="2">  1       21 0.17158146E-01 0.45152685E+03</pdfrwt>
<totfact> 0.63357425E+04</totfact>
</mgrwt>
</event>
<event>
 7    0  0.4709932E-002  0.4551763E+03  0.7546771E-02  0.1026190E+00
         21   -1    0    0  502  501  0.00000000000E+00  0.00000000000E+00  0.23900990846E+03  0.23900990846E+03  0.00000000000E+00 0. -1.
         21   -1    0    0  501  502 -0.00000000000E+00 -0.00000000000E+00 -0.21671224459E+03  0.21671224459E+03  0.00000000000E+00 0. -1.
      99926    2    1    2    0    0  0.00000000000E+00  0.00000000000E+00  0.22297663870E+02  0.45572215305E+03  0.45517633392E+03 0.  0.
      99925    2    3    3    0    0  0.16470293918E+02 -0.11206230601E+03  0.16150478966E+02  0.28685970313E+03  0.26305592618E+03 0.  0.
         25    1    4    4    0    0  0.40350293955E+02 -0.30066833743E+02  0.11570369626E+02  0.13532753699E+03  0.12509000000E+03 0.  0.
         25    1    4    4    0    0 -0.23880000037E+02 -0.81995472266E+02  0.45801093405E+01  0.15153216614E+03  0.12509000000E+03 0.  0.
         25    1    3    3    0    0 -0.16470293918E+02  0.11206230601E+03  0.61471849040E+01  0.16886244992E+03  0.12509000000E+03 0.  0.
<mgrwt>
<rscale>  2 0.45517633E+03</rscale>
<asrwt>0</asrwt>
<pdfrwt beam="1">  1       21 0.35148516E-01 0.45517633E+03</pdfrwt>
<pdfrwt beam="2">  1       21 0.31869447E-01 0.45517633E+03</pdfrwt>
<totfact> 0.68396666E+04</totfact>
</mgrwt>
</event>
<event>
 7    0  0.4709932E-002  0.4581637E+03  0.7546771E-02  0.1025315E+00
         21   -1    0    0  502  501  0.00000000000E+00  0.00000000000E+00  0.68065093770E+02  0.68065093770E+02  0.00000000000E+00 0.  1.
         21   -1    0    0  501  502 -0.00000000000E+00 -0.00000000000E+00 -0.77100450381E+03  0.77100450381E+03  0.00000000000E+00 0.  1.
      99926    2    1    2    0    0  0.00000000000E+00 -0.14210854715E-13 -0.70293941004E+03  0.83906959758E+03  0.45816369934E+03 0.  0.
      99925    2    3    3    0    0  0.58446390302E+02 -0.98007613550E+02 -0.48032010218E+03  0.55937630631E+03  0.26300756385E+03 0.  0.
         25    1    4    4    0    0  0.29254329123E+02 -0.78735041801E+02 -0.31458985136E+03  0.34881127455E+03  0.12509000000E+03 0.  0.
         25    1    4    4    0    0  0.29192061179E+02 -0.19272571749E+02 -0.16573025083E+03  0.21056503175E+03  0.12509000000E+03 0.  0.
         25    1    3    3    0    0 -0.58446390302E+02  0.98007613550E+02 -0.22261930786E+03  0.27969329128E+03  0.12509000000E+03 0.  0.
<mgrwt>
<rscale>  2 0.45816370E+03</rscale>
<asrwt>0</asrwt>
<pdfrwt beam="1">  1       21 0.10009572E-01 0.45816370E+03</pdfrwt>
<pdfrwt beam="2">  1       21 0.11338302E+00 0.45816370E+03</pdfrwt>
<totfact> 0.44809750E+04</totfact>
</mgrwt>
</event>
<event>
 7    0  0.4709932E-002  0.4531879E+03  0.7546771E-02  0.1026776E+00
         21   -1    0    0  502  501  0.00000000000E+00  0.00000000000E+00  0.13289568910E+03  0.13289568910E+03  0.00000000000E+00 0.  1.
         21   -1    0    0  501  502 -0.00000000000E+00 -0.00000000000E+00 -0.38635431551E+03  0.38635431551E+03  0.00000000000E+00 0.  1.
      99926    2    1    2    0    0  0.00000000000E+00 -0.35527136788E-14 -0.25345862642E+03  0.51925000461E+03  0.45318792127E+03 0.  0.
      99925    2    3    3    0    0  0.39269184168E+02  0.24586996767E+02 -0.42667900381E+02  0.26979694787E+03  0.26234186498E+03 0.  0.
         25    1    4    4    0    0  0.21190159006E+02  0.42865095321E+02  0.36086248785E+01  0.13396629990E+03  0.12509000000E+03 0.  0.
         25    1    3    3    0    0 -0.39269184168E+02 -0.24586996767E+02 -0.21079072603E+03  0.24945305674E+03  0.12509000000E+03 0.  0.
         25    1    4    4    0    0  0.18079025162E+02 -0.18278098554E+02 -0.46276525260E+02  0.13583064797E+03  0.12509000000E+03 0.  0.
<mgrwt>
<rscale>  2 0.45318792E+03</rscale>
<asrwt>0</asrwt>
<pdfrwt beam="1">  1       21 0.19543484E-01 0.45318792E+03</pdfrwt>
<pdfrwt beam="2">  1       21 0.56816811E-01 0.45318792E+03</pdfrwt>
<totfact> 0.64865931E+04</totfact>
</mgrwt>
</event>
<event>
 7    0  0.4709932E-002  0.4485958E+03  0.7546771E-02  0.1028142E+00
         21   -1    0    0  502  501  0.00000000000E+00  0.00000000000E+00  0.90918264743E+02  0.90918264743E+02  0.00000000000E+00 0. -1.
         21   -1    0    0  501  502 -0.00000000000E+00 -0.00000000000E+00 -0.55334929711E+03  0.55334929711E+03  0.00000000000E+00 0. -1.
      99926    2    1    2    0    0  0.00000000000E+00  0.00000000000E+00 -0.46243103236E+03  0.64426756185E+03  0.44859584434E+03 0.  0.
      99925    2    3    3    0    0  0.11229837346E+02  0.10560894429E+03 -0.27338717527E+03  0.39393888517E+03  0.26299798343E+03 0.  0.
         25    1    3    3    0    0 -0.11229837346E+02 -0.10560894429E+03 -0.18904385709E+03  0.25032867668E+03  0.12509000000E+03 0.  0.
         25    1    4    4    0    0 -0.20104271162E+01  0.20835453291E+02 -0.16202313318E+03  0.20575996141E+03  0.12509000000E+03 0.  0.
         25    1    4    4    0    0  0.13240264463E+02  0.84773491004E+02 -0.11136404208E+03  0.18817892377E+03  0.12509000000E+03 0.  0.
<mgrwt>
<rscale>  2 0.44859584E+03</rscale>
<asrwt>0</asrwt>
<pdfrwt beam="1">  1       21 0.13370333E-01 0.44859584E+03</pdfrwt>
<pdfrwt beam="2">  1       21 0.81374897E-01 0.44859584E+03</pdfrwt>
<totfact> 0.58955929E+04</totfact>
</mgrwt>
</event>
<event>
 7    0  0.4709932E-002  0.4239046E+03  0.7546771E-02  0.1035803E+00
         21   -1    0    0  502  501  0.00000000000E+00  0.00000000000E+00  0.79817030497E+02  0.79817030497E+02  0.00000000000E+00 0.  1.
         21   -1    0    0  501  502 -0.00000000000E+00 -0.00000000000E+00 -0.56283447881E+03  0.56283447881E+03  0.00000000000E+00 0.  1.
      99926    2    1    2    0    0  0.71054273576E-14  0.00000000000E+00 -0.48301744832E+03  0.64265150931E+03  0.42390459663E+03 0.  0.
      99925    2    3    3    0    0  0.49800215803E+02 -0.35739706448E+02 -0.23371323701E+03  0.35706879627E+03  0.26290465954E+03 0.  0.
         25    1    3    3    0    0 -0.49800215803E+02  0.35739706448E+02 -0.24930421130E+03  0.28558271304E+03  0.12509000000E+03 0.  0.
         25    1    4    4    0    0  0.28180319123E+01 -0.51632051803E+02 -0.12011548907E+03  0.18096698288E+03  0.12509000000E+03 0.  0.
         25    1    4    4    0    0  0.46982183890E+02  0.15892345355E+02 -0.11359774794E+03  0.17610181339E+03  0.12509000000E+03 0.  0.
<mgrwt>
<rscale>  2 0.42390460E+03</rscale>
<asrwt>0</asrwt>
<pdfrwt beam="1">  1       21 0.11737799E-01 0.42390460E+03</pdfrwt>
<pdfrwt beam="2">  1       21 0.82769774E-01 0.42390460E+03</pdfrwt>
<totfact> 0.72287807E+04</totfact>
</mgrwt>
</event>
<event>
 7    0  0.4709932E-002  0.4721451E+03  0.7546771E-02  0.1021317E+00
         21   -1    0    0  502  501  0.00000000000E+00  0.00000000000E+00  0.22609245748E+03  0.22609245748E+03  0.00000000000E+00 0.  1.
         21   -1    0    0  501  502 -0.00000000000E+00 -0.00000000000E+00 -0.24649315620E+03  0.24649315620E+03  0.00000000000E+00 0.  1.
      99926    2    1    2    0    0  0.00000000000E+00  0.14210854715E-13 -0.20400698716E+02  0.47258561368E+03  0.47214507701E+03 0.  0.
      99925    2    3    3    0    0 -0.37676348868E+02  0.12216249489E+03 -0.26593193918E+02  0.29361903155E+03  0.26298622645E+03 0.  0.
         25    1    4    4    0    0 -0.30666859261E+02  0.38548355602E+02 -0.45232935728E+02  0.14184483971E+03  0.12509000000E+03 0.  0.
         25    1    4    4    0    0 -0.70094896068E+01  0.83614139293E+02  0.18639741810E+02  0.15177419184E+03  0.12509000000E+03 0.  0.
         25    1    3    3    0    0  0.37676348868E+02 -0.12216249489E+03  0.61924952024E+01  0.17896658213E+03  0.12509000000E+03 0.  0.
<mgrwt>
<rscale>  2 0.47214508E+03</rscale>
<asrwt>0</asrwt>
<pdfrwt beam="1">  1       21 0.33248891E-01 0.47214508E+03</pdfrwt>
<pdfrwt beam="2">  1       21 0.36248993E-01 0.47214508E+03</pdfrwt>
<totfact> 0.58809897E+04</totfact>
</mgrwt>
</event>
<event>
 7    0  0.4709932E-002  0.4460756E+03  0.7546771E-02  0.1028899E+00
         21   -1    0    0  502  501  0.00000000000E+00  0.00000000000E+00  0.11600454115E+03  0.11600454115E+03  0.00000000000E+00 0.  1.
         21   -1    0    0  501  502 -0.00000000000E+00 -0.00000000000E+00 -0.42882678050E+03  0.42882678050E+03  0.00000000000E+00 0.  1.
      99926    2    1    2    0    0 -0.14210854715E-13 -0.71054273576E-14 -0.31282223935E+03  0.54483132165E+03  0.44607557165E+03 0.  0.
      99925    2    3    3    0    0 -0.91475242985E+02 -0.32993057311E+02 -0.24541370187E+03  0.37264630216E+03  0.26302303995E+03 0.  0.
         25    1    4    4    0    0 -0.63067839589E+02  0.20190651036E+02 -0.12628090427E+03  0.18968286602E+03  0.12509000000E+03 0.  0.
         25    1    4    4    0    0 -0.28407403395E+02 -0.53183708348E+02 -0.11913279760E+03  0.18296343614E+03  0.12509000000E+03 0.  0.
         25    1    3    3    0    0  0.91475242985E+02  0.32993057311E+02 -0.67408537484E+02  0.17218501949E+03  0.12509000000E+03 0.  0.
<mgrwt>
<rscale>  2 0.44607557E+03</rscale>
<asrwt>0</asrwt>
<pdfrwt beam="1">  1       21 0.17059492E-01 0.44607557E+03</pdfrwt>
<pdfrwt beam="2">  1       21 0.63062761E-01 0.44607557E+03</pdfrwt>
<totfact> 0.66803336E+04</totfact>
</mgrwt>
</event>
<event>
 7    0  0.4709932E-002  0.4640759E+03  0.7546771E-02  0.1023606E+00
         21   -1    0    0  502  501  0.00000000000E+00  0.00000000000E+00  0.12675571828E+03  0.12675571828E+03  0.00000000000E+00 0.  1.
         21   -1    0    0  501  502 -0.00000000000E+00 -0.00000000000E+00 -0.42476663498E+03  0.42476663498E+03  0.00000000000E+00 0.  1.
      99926    2    1    2    0    0 -0.71054273576E-14  0.00000000000E+00 -0.29801091670E+03  0.55152235327E+03  0.46407585552E+03 0.  0.
      99925    2    3    3    0    0 -0.58647119669E+02  0.91608548182E+02 -0.12162997968E+03  0.30946997507E+03  0.26295665568E+03 0.  0.
         25    1    4    4    0    0 -0.63101496802E+02  0.30072230361E+02 -0.78964544394E+02  0.16361248519E+03  0.12509000000E+03 0.  0.
         25    1    3    3    0    0  0.58647119669E+02 -0.91608548182E+02 -0.17638093702E+03  0.24205237820E+03  0.12509000000E+03 0.  0.
         25    1    4    4    0    0  0.44543771325E+01  0.61536317821E+02 -0.42665435286E+02  0.14585748988E+03  0.12509000000E+03 0.  0.
<mgrwt>
<rscale>  2 0.46407586E+03</rscale>
<asrwt>0</asrwt>
<pdfrwt beam="1">  1       21 0.18640547E-01 0.46407586E+03</pdfrwt>
<pdfrwt beam="2">  1       21 0.62465682E-01 0.46407586E+03</pdfrwt>
<totfact> 0.57522890E+04</totfact>
</mgrwt>
</event>
<event>
 7    0  0.4709932E-002  0.4587030E+03  0.7546771E-02  0.1025158E+00
         21   -1    0    0  502  501  0.00000000000E+00  0.00000000000E+00  0.61179858271E+03  0.61179858271E+03  0.00000000000E+00 0. -1.
         21   -1    0    0  501  502 -0.00000000000E+00 -0.00000000000E+00 -0.85979439479E+02  0.85979439479E+02  0.00000000000E+00 0. -1.
      99926    2    1    2    0    0  0.00000000000E+00  0.14210854715E-13  0.52581914323E+03  0.69777802219E+03  0.45870295057E+03 0.  0.
      99925    2    3    3    0    0 -0.87223400616E+02 -0.74738898182E+02  0.36008393892E+03  0.46048181369E+03  0.26303846327E+03 0.  0.
         25    1    4    4    0    0 -0.95480184646E+01 -0.48021481731E+02  0.20393551008E+03  0.24420161288E+03  0.12509000000E+03 0.  0.
         25    1    3    3    0    0  0.87223400616E+02  0.74738898182E+02  0.16573520432E+03  0.23729620849E+03  0.12509000000E+03 0.  0.
         25    1    4    4    0    0 -0.77675382151E+02 -0.26717416451E+02  0.15614842884E+03  0.21628020081E+03  0.12509000000E+03 0.  0.
<mgrwt>
<rscale>  2 0.45870295E+03</rscale>
<asrwt>0</asrwt>
<pdfrwt beam="1">  1       21 0.89970378E-01 0.45870295E+03</pdfrwt>
<pdfrwt beam="2">  1       21 0.12644036E-01 0.45870295E+03</pdfrwt>
<totfact> 0.51506202E+04</totfact>
</mgrwt>
</event>
<event>
 7    0  0.4709932E-002  0.4446503E+03  0.7546771E-02  0.1029329E+00
         21   -1    0    0  502  501  0.00000000000E+00  0.00000000000E+00  0.24887066764E+03  0.24887066764E+03  0.00000000000E+00 0. -1.
         21   -1    0    0  501  502 -0.00000000000E+00 -0.00000000000E+00 -0.19861106225E+03  0.19861106225E+03  0.00000000000E+00 0. -1.
      99926    2    1    2    0    0  0.00000000000E+00  0.00000000000E+00  0.50259605389E+02  0.44748172989E+03  0.44465027904E+03 0.  0.
      99925    2    3    3    0    0  0.76904073125E+02 -0.68375150933E+02  0.40055256131E+02  0.28518251679E+03  0.26293582223E+03 0.  0.
         25    1    4    4    0    0 -0.35340021207E+01 -0.34847010447E+02  0.17991449530E+02  0.13114115931E+03  0.12509000000E+03 0.  0.
         25    1    4    4    0    0  0.80438075246E+02 -0.33528140486E+02  0.22063806601E+02  0.15404135748E+03  0.12509000000E+03 0.  0.
         25    1    3    3    0    0 -0.76904073125E+02  0.68375150933E+02  0.10204349259E+02  0.16229921310E+03  0.12509000000E+03 0.  0.
<mgrwt>
<rscale>  2 0.44465028E+03</rscale>
<asrwt>0</asrwt>
<pdfrwt beam="1">  1       21 0.36598628E-01 0.44465028E+03</pdfrwt>
<pdfrwt beam="2">  1       21 0.29207509E-01 0.44465028E+03</pdfrwt>
<totfact> 0.75113522E+04</totfact>
</mgrwt>
</event>
<event>
 7    0  0.4709932E-002  0.4543496E+03  0.7546771E-02  0.1026433E+00
         21   -1    0    0  502  501  0.00000000000E+00  0.00000000000E+00  0.19144243591E+03  0.19144243591E+03  0.00000000000E+00 0. -1.
         21   -1    0    0  501  502 -0.00000000000E+00 -0.00000000000E+00 -0.26957654754E+03  0.26957654754E+03  0.00000000000E+00 0. -1.
      99926    2    1    2    0    0 -0.71054273576E-14  0.00000000000E+00 -0.78134111629E+02  0.46101898344E+03  0.45434960514E+03 0.  0.
      99925    2    3    3    0    0  0.51734024855E+02  0.90464423581E+01 -0.15022923773E+03  0.30738479859E+03  0.26297973893E+03 0.  0.
         25    1    4    4    0    0 -0.37018100921E+01  0.11881988220E+02 -0.40806559546E+02  0.13216492895E+03  0.12509000000E+03 0.  0.
         25    1    3    3    0    0 -0.51734024855E+02 -0.90464423581E+01  0.72095126100E+02  0.15363418485E+03  0.12509000000E+03 0.  0.
         25    1    4    4    0    0  0.55435834947E+02 -0.28355458619E+01 -0.10942267818E+03  0.17521986964E+03  0.12509000000E+03 0.  0.
<mgrwt>
<rscale>  2 0.45434961E+03</rscale>
<asrwt>0</asrwt>
<pdfrwt beam="1">  1       21 0.28153300E-01 0.45434961E+03</pdfrwt>
<pdfrwt beam="2">  1       21 0.39643610E-01 0.45434961E+03</pdfrwt>
<totfact> 0.68459901E+04</totfact>
</mgrwt>
</event>
<event>
 7    0  0.4709932E-002  0.4549100E+03  0.7546771E-02  0.1026268E+00
         21   -1    0    0  502  501  0.00000000000E+00  0.00000000000E+00  0.88134827865E+03  0.88134827865E+03  0.00000000000E+00 0. -1.
         21   -1    0    0  501  502 -0.00000000000E+00 -0.00000000000E+00 -0.58700728122E+02  0.58700728122E+02  0.00000000000E+00 0. -1.
      99926    2    1    2    0    0  0.71054273576E-14  0.00000000000E+00  0.82264755052E+03  0.94004900677E+03  0.45491003807E+03 0.  0.
      99925    2    3    3    0    0 -0.44973919617E+02  0.82078343187E+01  0.73122009338E+03  0.77850486416E+03  0.26324318903E+03 0.  0.
         25    1    4    4    0    0 -0.36042013788E+02 -0.19732444827E+02  0.45857511443E+03  0.47710275603E+03  0.12509000000E+03 0.  0.
         25    1    3    3    0    0  0.44973919617E+02 -0.82078343187E+01  0.91427457143E+02  0.16154414260E+03  0.12509000000E+03 0.  0.
         25    1    4    4    0    0 -0.89319058289E+01  0.27940279146E+02  0.27264497895E+03  0.30140210814E+03  0.12509000000E+03 0.  0.
<mgrwt>
<rscale>  2 0.45491004E+03</rscale>
<asrwt>0</asrwt>
<pdfrwt beam="1">  1       21 0.12961003E+00 0.45491004E+03</pdfrwt>
<pdfrwt beam="2">  1       21 0.86324605E-02 0.45491004E+03</pdfrwt>
<totfact> 0.41575638E+04</totfact>
</mgrwt>
</event>
<event>
 6    0  0.4709932E-002  0.4570210E+03  0.7546771E-02  0.1025649E+00
         21   -1    0    0  502  501  0.00000000000E+00  0.00000000000E+00  0.48784001877E+03  0.48784001877E+03  0.00000000000E+00 0. -1.
         21   -1    0    0  501  502 -0.00000000000E+00 -0.00000000000E+00 -0.10703723715E+03  0.10703723715E+03  0.00000000000E+00 0. -1.
      99926    2    1    2    0    0  0.00000000000E+00  0.00000000000E+00  0.38080278161E+03  0.59487725592E+03  0.45702099637E+03 0.  0.
         25    1    3    3    0    0 -0.30817301012E+02  0.10273100686E+03  0.94353968372E+02  0.18987771133E+03  0.12509000000E+03 0.  0.
         25    1    3    3    0    0  0.78829805118E+01 -0.41055522990E+02  0.78249783874E+02  0.15335655880E+03  0.12509000000E+03 0.  0.
         25    1    3    3    0    0  0.22934320500E+02 -0.61675483874E+02  0.20819902937E+03  0.25164298579E+03  0.12509000000E+03 0.  0.
<mgrwt>
<rscale>  2 0.45702100E+03</rscale>
<asrwt>0</asrwt>
<pdfrwt beam="1">  1       21 0.71741178E-01 0.45702100E+03</pdfrwt>
<pdfrwt beam="2">  1       21 0.15740770E-01 0.45702100E+03</pdfrwt>
<totfact> 0.58061826E+04</totfact>
</mgrwt>
</event>
<event>
 7    0  0.4709932E-002  0.4596957E+03  0.7546771E-02  0.1024870E+00
         21   -1    0    0  502  501  0.00000000000E+00  0.00000000000E+00  0.73781582097E+03  0.73781582097E+03  0.00000000000E+00 0.  1.
         21   -1    0    0  501  502 -0.00000000000E+00 -0.00000000000E+00 -0.71603268662E+02  0.71603268662E+02  0.00000000000E+00 0.  1.
      99926    2    1    2    0    0  0.35527136788E-14 -0.14210854715E-13  0.66621255231E+03  0.80941908963E+03  0.45969565781E+03 0.  0.
      99925    2    3    3    0    0 -0.27341778025E+02  0.11154481471E+03  0.46129289009E+03  0.54328116566E+03  0.26300850936E+03 0.  0.
         25    1    4    4    0    0  0.24690197851E+01  0.15397158349E+02  0.21661377098E+03  0.25062362702E+03  0.12509000000E+03 0.  0.
         25    1    3    3    0    0  0.27341778025E+02 -0.11154481471E+03  0.20491966222E+03  0.26613792398E+03  0.12509000000E+03 0.  0.
         25    1    4    4    0    0 -0.29810797810E+02  0.96147656364E+02  0.24467911911E+03  0.29265753864E+03  0.12509000000E+03 0.  0.
<mgrwt>
<rscale>  2 0.45969566E+03</rscale>
<asrwt>0</asrwt>
<pdfrwt beam="1">  1       21 0.10850232E+00 0.45969566E+03</pdfrwt>
<pdfrwt beam="2">  1       21 0.10529893E-01 0.45969566E+03</pdfrwt>
<totfact> 0.45608637E+04</totfact>
</mgrwt>
</event>
<event>
 7    0  0.4709932E-002  0.4528393E+03  0.7546771E-02  0.1026879E+00
         21   -1    0    0  502  501  0.00000000000E+00  0.00000000000E+00  0.39190060958E+03  0.39190060958E+03  0.00000000000E+00 0. -1.
         21   -1    0    0  501  502 -0.00000000000E+00 -0.00000000000E+00 -0.13081343584E+03  0.13081343584E+03  0.00000000000E+00 0. -1.
      99926    2    1    2    0    0 -0.71054273576E-14  0.00000000000E+00  0.26108717374E+03  0.52271404542E+03  0.45283933242E+03 0.  0.
      99925    2    3    3    0    0 -0.57594075827E+02 -0.60701034654E+02  0.24906164516E+03  0.37173783996E+03  0.26297457176E+03 0.  0.
         25    1    4    4    0    0  0.51112622251E+01 -0.12647655076E+02  0.13790624820E+03  0.18668617938E+03  0.12509000000E+03 0.  0.
         25    1    4    4    0    0 -0.62705338052E+02 -0.48053379578E+02  0.11115539696E+03  0.18505166057E+03  0.12509000000E+03 0.  0.
         25    1    3    3    0    0  0.57594075827E+02  0.60701034654E+02  0.12025528588E+02  0.15097620546E+03  0.12509000000E+03 0.  0.
<mgrwt>
<rscale>  2 0.45283933E+03</rscale>
<asrwt>0</asrwt>
<pdfrwt beam="1">  1       21 0.57632442E-01 0.45283933E+03</pdfrwt>
<pdfrwt beam="2">  1       21 0.19237270E-01 0.45283933E+03</pdfrwt>
<totfact> 0.64805346E+04</totfact>
</mgrwt>
</event>
<event>
 7    0  0.4709932E-002  0.4580564E+03  0.7546771E-02  0.1025346E+00
         21   -1    0    0  502  501  0.00000000000E+00  0.00000000000E+00  0.35841895667E+03  0.35841895667E+03  0.00000000000E+00 0. -1.
         21   -1    0    0  501  502 -0.00000000000E+00 -0.00000000000E+00 -0.14634807366E+03  0.14634807366E+03  0.00000000000E+00 0. -1.
      99926    2    1    2    0    0  0.71054273576E-14  0.00000000000E+00  0.21207088300E+03  0.50476703033E+03  0.45805643265E+03 0.  0.
      99925    2    3    3    0    0 -0.53701067650E+02  0.92935930792E+01  0.24591013480E+03  0.36418688023E+03  0.26304013723E+03 0.  0.
         25    1    3    3    0    0  0.53701067650E+02 -0.92935930792E+01 -0.33839251798E+02  0.14058015010E+03  0.12509000000E+03 0.  0.
         25    1    4    4    0    0 -0.30794863259E+02 -0.19686692637E+02  0.16667670683E+03  0.21157627979E+03  0.12509000000E+03 0.  0.
         25    1    4    4    0    0 -0.22906204390E+02  0.28980285716E+02  0.79233427977E+02  0.15261060045E+03  0.12509000000E+03 0.  0.
<mgrwt>
<rscale>  2 0.45805643E+03</rscale>
<asrwt>0</asrwt>
<pdfrwt beam="1">  1       21 0.52708670E-01 0.45805643E+03</pdfrwt>
<pdfrwt beam="2">  1       21 0.21521776E-01 0.45805643E+03</pdfrwt>
<totfact> 0.63385254E+04</totfact>
</mgrwt>
</event>
<event>
 7    0  0.4709932E-002  0.4563542E+03  0.7546771E-02  0.1025844E+00
         21   -1    0    0  502  501  0.00000000000E+00  0.00000000000E+00  0.21418404574E+02  0.21418404574E+02  0.00000000000E+00 0. -1.
         21   -1    0    0  501  502 -0.00000000000E+00 -0.00000000000E+00 -0.24308437631E+04  0.24308437631E+04  0.00000000000E+00 0. -1.
      99926    2    1    2    0    0 -0.35527136788E-14  0.00000000000E+00 -0.24094253585E+04  0.24522621676E+04  0.45635422721E+03 0.  0.
      99925    2    3    3    0    0 -0.24761988507E+02  0.46131849970E+02 -0.96871276073E+03  0.10051817963E+04  0.26314392861E+03 0.  0.
         25    1    4    4    0    0 -0.51627802242E+02  0.18107453546E+02 -0.53300920869E+03  0.55021780641E+03  0.12509000000E+03 0.  0.
         25    1    3    3    0    0  0.24761988507E+02 -0.46131849970E+02 -0.14407125978E+04  0.14470803713E+04  0.12509000000E+03 0.  0.
         25    1    4    4    0    0  0.26865813735E+02  0.28024396424E+02 -0.43570355204E+03  0.45496398990E+03  0.12509000000E+03 0.  0.
<mgrwt>
<rscale>  2 0.45635423E+03</rscale>
<asrwt>0</asrwt>
<pdfrwt beam="1">  1       21 0.31497648E-02 0.45635423E+03</pdfrwt>
<pdfrwt beam="2">  1       21 0.35747709E+00 0.45635423E+03</pdfrwt>
<totfact> 0.75529083E+03</totfact>
</mgrwt>
</event>
<event>
 7    0  0.4709932E-002  0.4552814E+03  0.7546771E-02  0.1026159E+00
         21   -1    0    0  502  501  0.00000000000E+00  0.00000000000E+00  0.32020454854E+03  0.32020454854E+03  0.00000000000E+00 0. -1.
         21   -1    0    0  501  502 -0.00000000000E+00 -0.00000000000E+00 -0.16183494148E+03  0.16183494148E+03  0.00000000000E+00 0. -1.
      99926    2    1    2    0    0  0.00000000000E+00  0.00000000000E+00  0.15836960707E+03  0.48203949002E+03  0.45528138277E+03 0.  0.
      99925    2    3    3    0    0  0.15042242535E+02 -0.68672713344E+02  0.19396755382E+03  0.33419858725E+03  0.26291267213E+03 0.  0.
         25    1    3    3    0    0 -0.15042242535E+02  0.68672713344E+02 -0.35597946748E+02  0.14784090277E+03  0.12509000000E+03 0.  0.
         25    1    4    4    0    0  0.11633476405E+02 -0.73829513211E+02  0.88689544797E+02  0.17058569181E+03  0.12509000000E+03 0.  0.
         25    1    4    4    0    0  0.34087661305E+01  0.51567998667E+01  0.10527800902E+03  0.16361289544E+03  0.12509000000E+03 0.  0.
<mgrwt>
<rscale>  2 0.45528138E+03</rscale>
<asrwt>0</asrwt>
<pdfrwt beam="1">  1       21 0.47088904E-01 0.45528138E+03</pdfrwt>
<pdfrwt beam="2">  1       21 0.23799256E-01 0.45528138E+03</pdfrwt>
<totfact> 0.66403497E+04</totfact>
</mgrwt>
</event>
<event>
 7    0  0.4709932E-002  0.4565900E+03  0.7546771E-02  0.1025775E+00
         21   -1    0    0  502  501  0.00000000000E+00  0.00000000000E+00  0.18783810735E+03  0.18783810735E+03  0.00000000000E+00 0. -1.
         21   -1    0    0  501  502 -0.00000000000E+00 -0.00000000000E+00 -0.27746558213E+03  0.27746558213E+03  0.00000000000E+00 0. -1.
      99926    2    1    2    0    0  0.00000000000E+00  0.00000000000E+00 -0.89627474783E+02  0.46530368948E+03  0.45659001217E+03 0.  0.
      99925    2    3    3    0    0 -0.48006896242E+02  0.39191033776E+02 -0.15458646385E+03  0.31133038798E+03  0.26303808937E+03 0.  0.
         25    1    3    3    0    0  0.48006896242E+02 -0.39191033776E+02  0.64958989065E+02  0.15397330150E+03  0.12509000000E+03 0.  0.
         25    1    4    4    0    0 -0.34342412737E+02  0.52995085326E+02 -0.56086911151E+02  0.15093419123E+03  0.12509000000E+03 0.  0.
         25    1    4    4    0    0 -0.13664483505E+02 -0.13804051549E+02 -0.98499552697E+02  0.16039619674E+03  0.12509000000E+03 0.  0.
<mgrwt>
<rscale>  2 0.45659001E+03</rscale>
<asrwt>0</asrwt>
<pdfrwt beam="1">  1       21 0.27623251E-01 0.45659001E+03</pdfrwt>
<pdfrwt beam="2">  1       21 0.40803762E-01 0.45659001E+03</pdfrwt>
<totfact> 0.66937616E+04</totfact>
</mgrwt>
</event>
<event>
 7    0  0.4709932E-002  0.4459715E+03  0.7546771E-02  0.1028930E+00
         21   -1    0    0  502  501  0.00000000000E+00  0.00000000000E+00  0.26187383081E+02  0.26187383081E+02  0.00000000000E+00 0. -1.
         21   -1    0    0  501  502 -0.00000000000E+00 -0.00000000000E+00 -0.18987253218E+04  0.18987253218E+04  0.00000000000E+00 0. -1.
      99926    2    1    2    0    0  0.00000000000E+00  0.00000000000E+00 -0.18725379387E+04  0.19249127049E+04  0.44597151195E+03 0.  0.
      99925    2    3    3    0    0 -0.59719728103E+02  0.36936850722E+02 -0.85420905212E+03  0.89652950478E+03  0.26298530634E+03 0.  0.
         25    1    3    3    0    0  0.59719728103E+02 -0.36936850722E+02 -0.10183288866E+04  0.10283832001E+04  0.12509000000E+03 0.  0.
         25    1    4    4    0    0 -0.15659097490E+00 -0.85982387918E+01 -0.35732165072E+03  0.37868222087E+03  0.12509000000E+03 0.  0.
         25    1    4    4    0    0 -0.59563137128E+02  0.45535089514E+02 -0.49688740140E+03  0.51784728391E+03  0.12509000000E+03 0.  0.
<mgrwt>
<rscale>  2 0.44597151E+03</rscale>
<asrwt>0</asrwt>
<pdfrwt beam="1">  1       21 0.38510873E-02 0.44597151E+03</pdfrwt>
<pdfrwt beam="2">  1       21 0.27922420E+00 0.44597151E+03</pdfrwt>
<totfact> 0.16071706E+04</totfact>
</mgrwt>
</event>
<event>
 7    0  0.4709932E-002  0.4554961E+03  0.7546771E-02  0.1026096E+00
         21   -1    0    0  502  501  0.00000000000E+00  0.00000000000E+00  0.11614292889E+03  0.11614292889E+03  0.00000000000E+00 0. -1.
         21   -1    0    0  501  502 -0.00000000000E+00 -0.00000000000E+00 -0.44659771580E+03  0.44659771580E+03  0.00000000000E+00 0. -1.
      99926    2    1    2    0    0 -0.71054273576E-14  0.00000000000E+00 -0.33045478691E+03  0.56274064469E+03  0.45549606693E+03 0.  0.
      99925    2    3    3    0    0 -0.52482679956E+02 -0.79805386681E+02 -0.13199636001E+03  0.30944913920E+03  0.26308249516E+03 0.  0.
         25    1    3    3    0    0  0.52482679956E+02  0.79805386681E+02 -0.19845842691E+03  0.25329150548E+03  0.12509000000E+03 0.  0.
         25    1    4    4    0    0 -0.67252783724E+02 -0.48388176293E+02 -0.72937530522E+02  0.16682848672E+03  0.12509000000E+03 0.  0.
         25    1    4    4    0    0  0.14770103768E+02 -0.31417210388E+02 -0.59058829484E+02  0.14262065248E+03  0.12509000000E+03 0.  0.
<mgrwt>
<rscale>  2 0.45549607E+03</rscale>
<asrwt>0</asrwt>
<pdfrwt beam="1">  1       21 0.17079842E-01 0.45549607E+03</pdfrwt>
<pdfrwt beam="2">  1       21 0.65676135E-01 0.45549607E+03</pdfrwt>
<totfact> 0.60793491E+04</totfact>
</mgrwt>
</event>
<event>
 7    0  0.4709932E-002  0.4565890E+03  0.7546771E-02  0.1025775E+00
         21   -1    0    0  502  501  0.00000000000E+00  0.00000000000E+00  0.22952062633E+03  0.22952062633E+03  0.00000000000E+00 0.  1.
         21   -1    0    0  501  502 -0.00000000000E+00 -0.00000000000E+00 -0.22707488683E+03  0.22707488683E+03  0.00000000000E+00 0.  1.
      99926    2    1    2    0    0  0.00000000000E+00  0.00000000000E+00  0.24457395001E+01  0.45659551316E+03  0.45658896285E+03 0.  0.
      99925    2    3    3    0    0 -0.10911477179E+03 -0.30174018881E+02  0.18559657343E+02  0.28711492051E+03  0.26319956660E+03 0.  0.
         25    1    4    4    0    0 -0.34665186434E+02 -0.34736232393E+02  0.39310331698E+02  0.14000389734E+03  0.12509000000E+03 0.  0.
         25    1    3    3    0    0  0.10911477179E+03  0.30174018881E+02 -0.16113917843E+02  0.16948059266E+03  0.12509000000E+03 0.  0.
         25    1    4    4    0    0 -0.74449585358E+02  0.45622135123E+01 -0.20750674355E+02  0.14711102317E+03  0.12509000000E+03 0.  0.
<mgrwt>
<rscale>  2 0.45658896E+03</rscale>
<asrwt>0</asrwt>
<pdfrwt beam="1">  1       21 0.33753033E-01 0.45658896E+03</pdfrwt>
<pdfrwt beam="2">  1       21 0.33393366E-01 0.45658896E+03</pdfrwt>
<totfact> 0.67568340E+04</totfact>
</mgrwt>
</event>
<event>
 7    0  0.4709932E-002  0.4461285E+03  0.7546771E-02  0.1028883E+00
         21   -1    0    0  502  501  0.00000000000E+00  0.00000000000E+00  0.74306087722E+02  0.74306087722E+02  0.00000000000E+00 0. -1.
         21   -1    0    0  501  502 -0.00000000000E+00 -0.00000000000E+00 -0.66963112930E+03  0.66963112930E+03  0.00000000000E+00 0. -1.
      99926    2    1    2    0    0  0.14210854715E-13 -0.14210854715E-13 -0.59532504157E+03  0.74393721702E+03  0.44612854397E+03 0.  0.
      99925    2    3    3    0    0  0.65348599160E+02 -0.75700702317E+02 -0.42899005707E+03  0.51303491969E+03  0.26300441823E+03 0.  0.
         25    1    3    3    0    0 -0.65348599160E+02  0.75700702317E+02 -0.16633498450E+03  0.23090229733E+03  0.12509000000E+03 0.  0.
         25    1    4    4    0    0  0.55783105151E+02 -0.73633375753E+02 -0.25096266990E+03  0.29523448076E+03  0.12509000000E+03 0.  0.
         25    1    4    4    0    0  0.95654940092E+01 -0.20673265640E+01 -0.17802738717E+03  0.21780043893E+03  0.12509000000E+03 0.  0.
<mgrwt>
<rscale>  2 0.44612854E+03</rscale>
<asrwt>0</asrwt>
<pdfrwt beam="1">  1       21 0.10927366E-01 0.44612854E+03</pdfrwt>
<pdfrwt beam="2">  1       21 0.98475163E-01 0.44612854E+03</pdfrwt>
<totfact> 0.54268045E+04</totfact>
</mgrwt>
</event>
<event>
 7    0  0.4709932E-002  0.4553103E+03  0.7546771E-02  0.1026150E+00
         21   -1    0    0  502  501  0.00000000000E+00  0.00000000000E+00  0.91924292872E+02  0.91924292872E+02  0.00000000000E+00 0. -1.
         21   -1    0    0  501  502 -0.00000000000E+00 -0.00000000000E+00 -0.56379954305E+03  0.56379954305E+03  0.00000000000E+00 0. -1.
      99926    2    1    2    0    0  0.00000000000E+00  0.71054273576E-14 -0.47187525017E+03  0.65572383592E+03  0.45531033072E+03 0.  0.
      99925    2    3    3    0    0 -0.76133038447E+02  0.62257579219E+02 -0.21549685722E+03  0.35397951669E+03  0.26304059963E+03 0.  0.
         25    1    3    3    0    0  0.76133038447E+02 -0.62257579219E+02 -0.25637839295E+03  0.30174431922E+03  0.12509000000E+03 0.  0.
         25    1    4    4    0    0 -0.24679511972E+02 -0.48249176103E+01 -0.12113888935E+03  0.17593890063E+03  0.12509000000E+03 0.  0.
         25    1    4    4    0    0 -0.51453526475E+02  0.67082496830E+02 -0.94357967877E+02  0.17804061607E+03  0.12509000000E+03 0.  0.
<mgrwt>
<rscale>  2 0.45531033E+03</rscale>
<asrwt>0</asrwt>
<pdfrwt beam="1">  1       21 0.13518278E-01 0.45531033E+03</pdfrwt>
<pdfrwt beam="2">  1       21 0.82911699E-01 0.45531033E+03</pdfrwt>
<totfact> 0.55237613E+04</totfact>
</mgrwt>
</event>
<event>
 7    0  0.4709932E-002  0.4505275E+03  0.7546771E-02  0.1027565E+00
         21   -1    0    0  502  501  0.00000000000E+00  0.00000000000E+00  0.82117670598E+03  0.82117670598E+03  0.00000000000E+00 0. -1.
         21   -1    0    0  501  502 -0.00000000000E+00 -0.00000000000E+00 -0.61793962338E+02  0.61793962338E+02  0.00000000000E+00 0. -1.
      99926    2    1    2    0    0  0.00000000000E+00  0.35527136788E-14  0.75938274365E+03  0.88297066832E+03  0.45052752388E+03 0.  0.
      99925    2    3    3    0    0 -0.10700945237E+03 -0.13474333244E+02  0.45692481394E+03  0.53835365207E+03  0.26346117085E+03 0.  0.
         25    1    4    4    0    0 -0.30519732171E+02 -0.37079083685E+02  0.25010930494E+03  0.28374017166E+03  0.12509000000E+03 0.  0.
         25    1    4    4    0    0 -0.76489720196E+02  0.23604750441E+02  0.20681550901E+03  0.25461348041E+03  0.12509000000E+03 0.  0.
         25    1    3    3    0    0  0.10700945237E+03  0.13474333244E+02  0.30245792970E+03  0.34461701625E+03  0.12509000000E+03 0.  0.
<mgrwt>
<rscale>  2 0.45052752E+03</rscale>
<asrwt>0</asrwt>
<pdfrwt beam="1">  1       21 0.12076127E+00 0.45052752E+03</pdfrwt>
<pdfrwt beam="2">  1       21 0.90873479E-02 0.45052752E+03</pdfrwt>
<totfact> 0.45552896E+04</totfact>
</mgrwt>
</event>
<event>
 7    0  0.4709932E-002  0.4524252E+03  0.7546771E-02  0.1027001E+00
         21   -1    0    0  502  501  0.00000000000E+00  0.00000000000E+00  0.62656150754E+03  0.62656150754E+03  0.00000000000E+00 0. -1.
         21   -1    0    0  501  502 -0.00000000000E+00 -0.00000000000E+00 -0.81671364284E+02  0.81671364284E+02  0.00000000000E+00 0. -1.
      99926    2    1    2    0    0  0.00000000000E+00  0.00000000000E+00  0.54489014326E+03  0.70823287183E+03  0.45242516786E+03 0.  0.
      99925    2    3    3    0    0  0.19045500062E+02  0.10555966143E+03  0.38492340547E+03  0.47857565227E+03  0.26336866495E+03 0.  0.
         25    1    4    4    0    0  0.34301150782E+01  0.95342550083E+02  0.22848226887E+03  0.27740516007E+03  0.12509000000E+03 0.  0.
         25    1    3    3    0    0 -0.19045500062E+02 -0.10555966143E+03  0.15996673779E+03  0.22965721955E+03  0.12509000000E+03 0.  0.
         25    1    4    4    0    0  0.15615384983E+02  0.10217111349E+02  0.15644113660E+03  0.20117049220E+03  0.12509000000E+03 0.  0.
<mgrwt>
<rscale>  2 0.45242517E+03</rscale>
<asrwt>0</asrwt>
<pdfrwt beam="1">  1       21 0.92141396E-01 0.45242517E+03</pdfrwt>
<pdfrwt beam="2">  1       21 0.12010495E-01 0.45242517E+03</pdfrwt>
<totfact> 0.53534578E+04</totfact>
</mgrwt>
</event>
<event>
 7    0  0.4709932E-002  0.4141550E+03  0.7546771E-02  0.1038986E+00
         21   -1    0    0  502  501  0.00000000000E+00  0.00000000000E+00  0.26514807095E+03  0.26514807095E+03  0.00000000000E+00 0.  1.
         21   -1    0    0  501  502 -0.00000000000E+00 -0.00000000000E+00 -0.16172510612E+03  0.16172510612E+03  0.00000000000E+00 0.  1.
      99926    2    1    2    0    0  0.13877787808E-15  0.00000000000E+00  0.10342296483E+03  0.42687317706E+03  0.41415504300E+03 0.  0.
      99925    2    3    3    0    0 -0.18084348327E+00  0.66675249759E+02  0.53318049546E+02  0.27652813302E+03  0.26301971848E+03 0.  0.
         25    1    4    4    0    0 -0.34545358417E+01  0.30554464105E+02 -0.14604292553E+02  0.12963912432E+03  0.12509000000E+03 0.  0.
         25    1    4    4    0    0  0.32736923585E+01  0.36120785654E+02  0.67922342099E+02  0.14688900869E+03  0.12509000000E+03 0.  0.
         25    1    3    3    0    0  0.18084348327E+00 -0.66675249759E+02  0.50104915281E+02  0.15034504405E+03  0.12509000000E+03 0.  0.
<mgrwt>
<rscale>  2 0.41415504E+03</rscale>
<asrwt>0</asrwt>
<pdfrwt beam="1">  1       21 0.38992363E-01 0.41415504E+03</pdfrwt>
<pdfrwt beam="2">  1       21 0.23783104E-01 0.41415504E+03</pdfrwt>
<totfact> 0.99240299E+04</totfact>
</mgrwt>
</event>
<event>
 7    0  0.4709932E-002  0.4565438E+03  0.7546771E-02  0.1025788E+00
         21   -1    0    0  502  501  0.00000000000E+00  0.00000000000E+00  0.35313855931E+03  0.35313855931E+03  0.00000000000E+00 0.  1.
         21   -1    0    0  501  502 -0.00000000000E+00 -0.00000000000E+00 -0.14755700798E+03  0.14755700798E+03  0.00000000000E+00 0.  1.
      99926    2    1    2    0    0  0.14210854715E-13  0.00000000000E+00  0.20558155133E+03  0.50069556730E+03  0.45654383893E+03 0.  0.
      99925    2    3    3    0    0  0.10742901076E+03 -0.28402768100E+02  0.15988282078E+03  0.32724934605E+03  0.26302453977E+03 0.  0.
         25    1    4    4    0    0  0.16186632964E+02 -0.19558763454E+02  0.49540507202E+02  0.13691720954E+03  0.12509000000E+03 0.  0.
         25    1    4    4    0    0  0.91242377797E+02 -0.88440046457E+01  0.11034231357E+03  0.19033213651E+03  0.12509000000E+03 0.  0.
         25    1    3    3    0    0 -0.10742901076E+03  0.28402768100E+02  0.45698730558E+02  0.17344622124E+03  0.12509000000E+03 0.  0.
<mgrwt>
<rscale>  2 0.45654384E+03</rscale>
<asrwt>0</asrwt>
<pdfrwt beam="1">  1       21 0.51932141E-01 0.45654384E+03</pdfrwt>
<pdfrwt beam="2">  1       21 0.21699560E-01 0.45654384E+03</pdfrwt>
<totfact> 0.64428616E+04</totfact>
</mgrwt>
</event>
<event>
 7    0  0.4709932E-002  0.4524276E+03  0.7546771E-02  0.1027001E+00
         21   -1    0    0  502  501  0.00000000000E+00  0.00000000000E+00  0.27488370282E+03  0.27488370282E+03  0.00000000000E+00 0.  1.
         21   -1    0    0  501  502 -0.00000000000E+00 -0.00000000000E+00 -0.18616121697E+03  0.18616121697E+03  0.00000000000E+00 0.  1.
      99926    2    1    2    0    0  0.00000000000E+00 -0.14210854715E-13  0.88722485852E+02  0.46104491979E+03  0.45242760589E+03 0.  0.
      99925    2    3    3    0    0  0.23536114462E+02  0.10071696558E+03  0.15803211867E+02  0.28310508598E+03  0.26306062487E+03 0.  0.
         25    1    4    4    0    0  0.27731055464E+02  0.13648410368E+02 -0.65011524838E+01  0.12901574953E+03  0.12509000000E+03 0.  0.
         25    1    4    4    0    0 -0.41949410022E+01  0.87068555217E+02  0.22304364350E+02  0.15408933645E+03  0.12509000000E+03 0.  0.
         25    1    3    3    0    0 -0.23536114462E+02 -0.10071696558E+03  0.72919273985E+02  0.17793983382E+03  0.12509000000E+03 0.  0.
<mgrwt>
<rscale>  2 0.45242761E+03</rscale>
<asrwt>0</asrwt>
<pdfrwt beam="1">  1       21 0.40424074E-01 0.45242761E+03</pdfrwt>
<pdfrwt beam="2">  1       21 0.27376650E-01 0.45242761E+03</pdfrwt>
<totfact> 0.69515470E+04</totfact>
</mgrwt>
</event>
<event>
 7    0  0.4709932E-002  0.4679418E+03  0.7546771E-02  0.1022503E+00
         21   -1    0    0  502  501  0.00000000000E+00  0.00000000000E+00  0.36515747328E+03  0.36515747328E+03  0.00000000000E+00 0. -1.
         21   -1    0    0  501  502 -0.00000000000E+00 -0.00000000000E+00 -0.14991442417E+03  0.14991442417E+03  0.00000000000E+00 0. -1.
      99926    2    1    2    0    0  0.00000000000E+00  0.00000000000E+00  0.21524304911E+03  0.51507189745E+03  0.46794175850E+03 0.  0.
      99925    2    3    3    0    0 -0.67444968887E+02  0.55831515164E+01  0.24951541540E+03  0.36877733637E+03  0.26298058082E+03 0.  0.
         25    1    4    4    0    0 -0.66127359907E+01  0.88457717634E+01  0.77621803998E+02  0.14763003933E+03  0.12509000000E+03 0.  0.
         25    1    4    4    0    0 -0.60832232897E+02 -0.32626202470E+01  0.17189361140E+03  0.22114729705E+03  0.12509000000E+03 0.  0.
         25    1    3    3    0    0  0.67444968887E+02 -0.55831515164E+01 -0.34272366291E+02  0.14629456108E+03  0.12509000000E+03 0.  0.
<mgrwt>
<rscale>  2 0.46794176E+03</rscale>
<asrwt>0</asrwt>
<pdfrwt beam="1">  1       21 0.53699628E-01 0.46794176E+03</pdfrwt>
<pdfrwt beam="2">  1       21 0.22046239E-01 0.46794176E+03</pdfrwt>
<totfact> 0.58030615E+04</totfact>
</mgrwt>
</event>
<event>
 7    0  0.4709932E-002  0.4553667E+03  0.7546771E-02  0.1026134E+00
         21   -1    0    0  502  501  0.00000000000E+00  0.00000000000E+00  0.79139660076E+03  0.79139660076E+03  0.00000000000E+00 0. -1.
         21   -1    0    0  501  502 -0.00000000000E+00 -0.00000000000E+00 -0.65504074946E+02  0.65504074946E+02  0.00000000000E+00 0. -1.
      99926    2    1    2    0    0  0.00000000000E+00  0.00000000000E+00  0.72589252582E+03  0.85690067571E+03  0.45536667532E+03 0.  0.
      99925    2    3    3    0    0  0.10552971343E+03 -0.32406837754E+02  0.40681959258E+03  0.49684266875E+03  0.26298998657E+03 0.  0.
         25    1    4    4    0    0  0.17811802377E+02 -0.12941688387E+01  0.14713150408E+03  0.19394360719E+03  0.12509000000E+03 0.  0.
         25    1    3    3    0    0 -0.10552971343E+03  0.32406837754E+02  0.31907293324E+03  0.36005800696E+03  0.12509000000E+03 0.  0.
         25    1    4    4    0    0  0.87717911053E+02 -0.31112668915E+02  0.25968808850E+03  0.30289906156E+03  0.12509000000E+03 0.  0.
<mgrwt>
<rscale>  2 0.45536668E+03</rscale>
<asrwt>0</asrwt>
<pdfrwt beam="1">  1       21 0.11638185E+00 0.45536668E+03</pdfrwt>
<pdfrwt beam="2">  1       21 0.96329527E-02 0.45536668E+03</pdfrwt>
<totfact> 0.45002660E+04</totfact>
</mgrwt>
</event>
<event>
 7    0  0.4709932E-002  0.4525571E+03  0.7546771E-02  0.1026962E+00
         21   -1    0    0  502  501  0.00000000000E+00  0.00000000000E+00  0.13159839164E+03  0.13159839164E+03  0.00000000000E+00 0.  1.
         21   -1    0    0  501  502 -0.00000000000E+00 -0.00000000000E+00 -0.38907759676E+03  0.38907759676E+03  0.00000000000E+00 0.  1.
      99926    2    1    2    0    0  0.00000000000E+00  0.00000000000E+00 -0.25747920512E+03  0.52067598840E+03  0.45255711665E+03 0.  0.
      99925    2    3    3    0    0 -0.93757941305E+02  0.36830012957E+02 -0.10996280941E+03  0.30260353137E+03  0.26330605069E+03 0.  0.
         25    1    4    4    0    0 -0.58731589661E+01  0.15836888687E+02 -0.34651052161E+02  0.13089501349E+03  0.12509000000E+03 0.  0.
         25    1    3    3    0    0  0.93757941305E+02 -0.36830012957E+02 -0.14751639571E+03  0.21807245703E+03  0.12509000000E+03 0.  0.
         25    1    4    4    0    0 -0.87884782339E+02  0.20993124270E+02 -0.75311757248E+02  0.17170851788E+03  0.12509000000E+03 0.  0.
<mgrwt>
<rscale>  2 0.45255712E+03</rscale>
<asrwt>0</asrwt>
<pdfrwt beam="1">  1       21 0.19352705E-01 0.45255712E+03</pdfrwt>
<pdfrwt beam="2">  1       21 0.57217292E-01 0.45255712E+03</pdfrwt>
<totfact> 0.65093603E+04</totfact>
</mgrwt>
</event>
<event>
 7    0  0.4709932E-002  0.4534270E+03  0.7546771E-02  0.1026705E+00
         21   -1    0    0  502  501  0.00000000000E+00  0.00000000000E+00  0.97150584954E+02  0.97150584954E+02  0.00000000000E+00 0.  1.
         21   -1    0    0  501  502 -0.00000000000E+00 -0.00000000000E+00 -0.52906548857E+03  0.52906548857E+03  0.00000000000E+00 0.  1.
      99926    2    1    2    0    0  0.00000000000E+00 -0.14210854715E-13 -0.43191490362E+03  0.62621607353E+03  0.45342704681E+03 0.  0.
      99925    2    3    3    0    0  0.16716549069E+01  0.83161627702E+02 -0.16916087335E+03  0.32355150792E+03  0.26296677823E+03 0.  0.
         25    1    4    4    0    0  0.14237332056E+02  0.81466867320E+02 -0.87245376420E+02  0.17349010318E+03  0.12509000000E+03 0.  0.
         25    1    4    4    0    0 -0.12565677149E+02  0.16947603825E+01 -0.81915496929E+02  0.15006140474E+03  0.12509000000E+03 0.  0.
         25    1    3    3    0    0 -0.16716549069E+01 -0.83161627702E+02 -0.26275403027E+03  0.30266456561E+03  0.12509000000E+03 0.  0.
<mgrwt>
<rscale>  2 0.45342705E+03</rscale>
<asrwt>0</asrwt>
<pdfrwt beam="1">  1       21 0.14286851E-01 0.45342705E+03</pdfrwt>
<pdfrwt beam="2">  1       21 0.77803748E-01 0.45342705E+03</pdfrwt>
<totfact> 0.57807467E+04</totfact>
</mgrwt>
</event>
<event>
 7    0  0.4709932E-002  0.4594439E+03  0.7546771E-02  0.1024943E+00
         21   -1    0    0  502  501  0.00000000000E+00  0.00000000000E+00  0.14554626428E+03  0.14554626428E+03  0.00000000000E+00 0. -1.
         21   -1    0    0  501  502 -0.00000000000E+00 -0.00000000000E+00 -0.36258008093E+03  0.36258008093E+03  0.00000000000E+00 0. -1.
      99926    2    1    2    0    0 -0.13322676296E-14 -0.14210854715E-13 -0.21703381665E+03  0.50812634522E+03  0.45944390858E+03 0.  0.
      99925    2    3    3    0    0  0.13314148111E+01  0.97330733773E+02 -0.20840565948E+03  0.34939072351E+03  0.26299413372E+03 0.  0.
         25    1    4    4    0    0  0.29257126736E+02  0.18159564870E+02 -0.99260937130E+02  0.16335847392E+03  0.12509000000E+03 0.  0.
         25    1    4    4    0    0 -0.27925711925E+02  0.79171168902E+02 -0.10914472235E+03  0.18603224959E+03  0.12509000000E+03 0.  0.
         25    1    3    3    0    0 -0.13314148111E+01 -0.97330733773E+02 -0.86281571761E+01  0.15873562171E+03  0.12509000000E+03 0.  0.
<mgrwt>
<rscale>  2 0.45944391E+03</rscale>
<asrwt>0</asrwt>
<pdfrwt beam="1">  1       21 0.21403862E-01 0.45944391E+03</pdfrwt>
<pdfrwt beam="2">  1       21 0.53320600E-01 0.45944391E+03</pdfrwt>
<totfact> 0.62470725E+04</totfact>
</mgrwt>
</event>
<event>
 7    0  0.4709932E-002  0.4593266E+03  0.7546771E-02  0.1024977E+00
         21   -1    0    0  502  501  0.00000000000E+00  0.00000000000E+00  0.20471583367E+03  0.20471583367E+03  0.00000000000E+00 0.  1.
         21   -1    0    0  501  502 -0.00000000000E+00 -0.00000000000E+00 -0.25765100405E+03  0.25765100405E+03  0.00000000000E+00 0.  1.
      99926    2    1    2    0    0  0.62172489379E-14  0.14210854715E-13 -0.52935170378E+02  0.46236683772E+03  0.45932663798E+03 0.  0.
      99925    2    3    3    0    0 -0.38204331110E+00 -0.11489043876E+03 -0.10855470024E+02  0.28738635836E+03  0.26319787018E+03 0.  0.
         25    1    3    3    0    0  0.38204331110E+00  0.11489043876E+03 -0.42079700354E+02  0.17498047936E+03  0.12509000000E+03 0.  0.
         25    1    4    4    0    0 -0.34144397335E+02 -0.76768077448E+02  0.86072959175E+01  0.15093300245E+03  0.12509000000E+03 0.  0.
         25    1    4    4    0    0  0.33762354024E+02 -0.38122361310E+02 -0.19462765942E+02  0.13645335591E+03  0.12509000000E+03 0.  0.
<mgrwt>
<rscale>  2 0.45932664E+03</rscale>
<asrwt>0</asrwt>
<pdfrwt beam="1">  1       21 0.30105270E-01 0.45932664E+03</pdfrwt>
<pdfrwt beam="2">  1       21 0.37889854E-01 0.45932664E+03</pdfrwt>
<totfact> 0.65711536E+04</totfact>
</mgrwt>
</event>
<event>
 7    0  0.4709932E-002  0.4542470E+03  0.7546771E-02  0.1026463E+00
         21   -1    0    0  502  501  0.00000000000E+00  0.00000000000E+00  0.13315494044E+03  0.13315494044E+03  0.00000000000E+00 0.  1.
         21   -1    0    0  501  502 -0.00000000000E+00 -0.00000000000E+00 -0.38740637684E+03  0.38740637684E+03  0.00000000000E+00 0.  1.
      99926    2    1    2    0    0  0.00000000000E+00 -0.35527136788E-14 -0.25425143640E+03  0.52056131728E+03  0.45424695062E+03 0.  0.
      99925    2    3    3    0    0  0.26715681681E+02  0.17562605086E+02 -0.36519086497E+02  0.26742685294E+03  0.26298537079E+03 0.  0.
         25    1    4    4    0    0 -0.25364452466E+01  0.45757520404E+02 -0.23287592375E+02  0.13524054232E+03  0.12509000000E+03 0.  0.
         25    1    4    4    0    0  0.29252126927E+02 -0.28194915318E+02 -0.13231494122E+02  0.13218631062E+03  0.12509000000E+03 0.  0.
         25    1    3    3    0    0 -0.26715681681E+02 -0.17562605086E+02 -0.21773234990E+03  0.25313446434E+03  0.12509000000E+03 0.  0.
<mgrwt>
<rscale>  2 0.45424695E+03</rscale>
<asrwt>0</asrwt>
<pdfrwt beam="1">  1       21 0.19581609E-01 0.45424695E+03</pdfrwt>
<pdfrwt beam="2">  1       21 0.56971525E-01 0.45424695E+03</pdfrwt>
<totfact> 0.64231917E+04</totfact>
</mgrwt>
</event>
<event>
 7    0  0.4709932E-002  0.4536601E+03  0.7546771E-02  0.1026636E+00
         21   -1    0    0  502  501  0.00000000000E+00  0.00000000000E+00  0.13674762156E+03  0.13674762156E+03  0.00000000000E+00 0.  1.
         21   -1    0    0  501  502 -0.00000000000E+00 -0.00000000000E+00 -0.37625415640E+03  0.37625415640E+03  0.00000000000E+00 0.  1.
      99926    2    1    2    0    0  0.39968028887E-14  0.00000000000E+00 -0.23950653484E+03  0.51300177796E+03  0.45366005330E+03 0.  0.
      99925    2    3    3    0    0 -0.38302230054E+01  0.82957144166E+02 -0.23571953682E+03  0.36280721138E+03  0.26299964680E+03 0.  0.
         25    1    3    3    0    0  0.38302230054E+01 -0.82957144166E+02 -0.37869980271E+01  0.15019456658E+03  0.12509000000E+03 0.  0.
         25    1    4    4    0    0 -0.38734557547E+02  0.24817884388E+02 -0.10660779338E+03  0.17067226794E+03  0.12509000000E+03 0.  0.
         25    1    4    4    0    0  0.34904334542E+02  0.58139259779E+02 -0.12911174344E+03  0.19213494344E+03  0.12509000000E+03 0.  0.
<mgrwt>
<rscale>  2 0.45366005E+03</rscale>
<asrwt>0</asrwt>
<pdfrwt beam="1">  1       21 0.20109944E-01 0.45366005E+03</pdfrwt>
<pdfrwt beam="2">  1       21 0.55331494E-01 0.45366005E+03</pdfrwt>
<totfact> 0.65055553E+04</totfact>
</mgrwt>
</event>
<event>
 7    0  0.4709932E-002  0.3978977E+03  0.7546771E-02  0.1044510E+00
         21   -1    0    0  502  501  0.00000000000E+00  0.00000000000E+00  0.13663907654E+02  0.13663907654E+02  0.00000000000E+00 0.  1.
         21   -1    0    0  501  502 -0.00000000000E+00 -0.00000000000E+00 -0.28967292843E+04  0.28967292843E+04  0.00000000000E+00 0.  1.
      99926    2    1    2    0    0  0.00000000000E+00  0.17763568394E-14 -0.28830653767E+04  0.29103931920E+04  0.39789768252E+03 0.  0.
      99925    2    3    3    0    0 -0.39304821462E+02  0.98074113620E+01 -0.18807586292E+04  0.18994988461E+04  0.26306233272E+03 0.  0.
         25    1    3    3    0    0  0.39304821462E+02 -0.98074113620E+01 -0.10023067475E+04  0.10108943458E+04  0.12509000000E+03 0.  0.
         25    1    4    4    0    0 -0.20852186090E+02 -0.19757863447E+02 -0.70463709253E+03  0.71623049858E+03  0.12509000000E+03 0.  0.
         25    1    4    4    0    0 -0.18452635373E+02  0.29565274809E+02 -0.11761215366E+04  0.11832683475E+04  0.12509000000E+03 0.  0.
<mgrwt>
<rscale>  2 0.39789768E+03</rscale>
<asrwt>0</asrwt>
<pdfrwt beam="1">  1       21 0.20093979E-02 0.39789768E+03</pdfrwt>
<pdfrwt beam="2">  1       21 0.42598966E+00 0.39789768E+03</pdfrwt>
<totfact> 0.60558402E+03</totfact>
</mgrwt>
</event>
<event>
 7    0  0.4709932E-002  0.4537999E+03  0.7546771E-02  0.1026595E+00
         21   -1    0    0  502  501  0.00000000000E+00  0.00000000000E+00  0.12040130761E+03  0.12040130761E+03  0.00000000000E+00 0.  1.
         21   -1    0    0  501  502 -0.00000000000E+00 -0.00000000000E+00 -0.42759983799E+03  0.42759983799E+03  0.00000000000E+00 0.  1.
      99926    2    1    2    0    0  0.00000000000E+00  0.00000000000E+00 -0.30719853038E+03  0.54800114561E+03  0.45379986615E+03 0.  0.
      99925    2    3    3    0    0  0.89367822133E+02  0.59344378334E+02 -0.23225001708E+03  0.36696758347E+03  0.26309080944E+03 0.  0.
         25    1    4    4    0    0  0.24988797984E+02  0.17803676888E+02 -0.15383547137E+03  0.20063467120E+03  0.12509000000E+03 0.  0.
         25    1    3    3    0    0 -0.89367822133E+02 -0.59344378334E+02 -0.74948513302E+02  0.18103356213E+03  0.12509000000E+03 0.  0.
         25    1    4    4    0    0  0.64379024148E+02  0.41540701446E+02 -0.78414545711E+02  0.16633291228E+03  0.12509000000E+03 0.  0.
<mgrwt>
<rscale>  2 0.45379987E+03</rscale>
<asrwt>0</asrwt>
<pdfrwt beam="1">  1       21 0.17706074E-01 0.45379987E+03</pdfrwt>
<pdfrwt beam="2">  1       21 0.62882330E-01 0.45379987E+03</pdfrwt>
<totfact> 0.62591029E+04</totfact>
</mgrwt>
</event>
<event>
 7    0  0.4709932E-002  0.4557310E+03  0.7546771E-02  0.1026027E+00
         21   -1    0    0  502  501  0.00000000000E+00  0.00000000000E+00  0.22374266300E+03  0.22374266300E+03  0.00000000000E+00 0.  1.
         21   -1    0    0  501  502 -0.00000000000E+00 -0.00000000000E+00 -0.23206433271E+03  0.23206433271E+03  0.00000000000E+00 0.  1.
      99926    2    1    2    0    0 -0.17763568394E-14  0.00000000000E+00 -0.83216697034E+01  0.45580699571E+03  0.45573102500E+03 0.  0.
      99925    2    3    3    0    0  0.46236862989E+01  0.17713250804E+02 -0.11764352095E+03  0.28867257978E+03  0.26297665783E+03 0.  0.
         25    1    4    4    0    0 -0.30629832247E+02  0.30118884675E+02 -0.47971967732E+02  0.14069168997E+03  0.12509000000E+03 0.  0.
         25    1    4    4    0    0  0.35253518546E+02 -0.12405633870E+02 -0.69671553217E+02  0.14798088981E+03  0.12509000000E+03 0.  0.
         25    1    3    3    0    0 -0.46236862989E+01 -0.17713250804E+02  0.10932185125E+03  0.16713441593E+03  0.12509000000E+03 0.  0.
<mgrwt>
<rscale>  2 0.45573103E+03</rscale>
<asrwt>0</asrwt>
<pdfrwt beam="1">  1       21 0.32903333E-01 0.45573103E+03</pdfrwt>
<pdfrwt beam="2">  1       21 0.34127107E-01 0.45573103E+03</pdfrwt>
<totfact> 0.68088699E+04</totfact>
</mgrwt>
</event>
<event>
 7    0  0.4709932E-002  0.4535328E+03  0.7546771E-02  0.1026674E+00
         21   -1    0    0  502  501  0.00000000000E+00  0.00000000000E+00  0.51802322869E+02  0.51802322869E+02  0.00000000000E+00 0.  1.
         21   -1    0    0  501  502 -0.00000000000E+00 -0.00000000000E+00 -0.99267748592E+03  0.99267748592E+03  0.00000000000E+00 0.  1.
      99926    2    1    2    0    0  0.00000000000E+00  0.00000000000E+00 -0.94087516305E+03  0.10444798088E+04  0.45353279762E+03 0.  0.
      99925    2    3    3    0    0 -0.10053032642E+03  0.40953666631E+02 -0.53255978300E+03  0.60385240721E+03  0.26312403516E+03 0.  0.
         25    1    3    3    0    0  0.10053032642E+03 -0.40953666631E+02 -0.40831538005E+03  0.44062740158E+03  0.12509000000E+03 0.  0.
         25    1    4    4    0    0 -0.15382445174E+02  0.30852215297E+02 -0.20082674196E+03  0.23909698283E+03  0.12509000000E+03 0.  0.
         25    1    4    4    0    0 -0.85147881244E+02  0.10101451335E+02 -0.33173304104E+03  0.36475542438E+03  0.12509000000E+03 0.  0.
<mgrwt>
<rscale>  2 0.45353280E+03</rscale>
<asrwt>0</asrwt>
<pdfrwt beam="1">  1       21 0.76179895E-02 0.45353280E+03</pdfrwt>
<pdfrwt beam="2">  1       21 0.14598197E+00 0.45353280E+03</pdfrwt>
<totfact> 0.37912939E+04</totfact>
</mgrwt>
</event>
<event>
 7    0  0.4709932E-002  0.4529092E+03  0.7546771E-02  0.1026858E+00
         21   -1    0    0  502  501  0.00000000000E+00  0.00000000000E+00  0.14322226541E+04  0.14322226541E+04  0.00000000000E+00 0. -1.
         21   -1    0    0  501  502 -0.00000000000E+00 -0.00000000000E+00 -0.35805667088E+02  0.35805667088E+02  0.00000000000E+00 0. -1.
      99926    2    1    2    0    0  0.00000000000E+00  0.00000000000E+00  0.13964169870E+04  0.14680283212E+04  0.45290920745E+03 0.  0.
      99925    2    3    3    0    0  0.31138341760E+02 -0.86657634989E+02  0.67765935375E+03  0.73267861833E+03  0.26290039177E+03 0.  0.
         25    1    4    4    0    0  0.29077883334E+02 -0.56656675280E+02  0.25762687179E+03  0.29338475645E+03  0.12509000000E+03 0.  0.
         25    1    4    4    0    0  0.20604584260E+01 -0.30000959709E+02  0.42003248197E+03  0.43929386188E+03  0.12509000000E+03 0.  0.
         25    1    3    3    0    0 -0.31138341760E+02  0.86657634989E+02  0.71875763325E+03  0.73534970285E+03  0.12509000000E+03 0.  0.
<mgrwt>
<rscale>  2 0.45290921E+03</rscale>
<asrwt>0</asrwt>
<pdfrwt beam="1">  1       21 0.21062094E+00 0.45290921E+03</pdfrwt>
<pdfrwt beam="2">  1       21 0.52655403E-02 0.45290921E+03</pdfrwt>
<totfact> 0.24976880E+04</totfact>
</mgrwt>
</event>
<event>
 7    0  0.4709932E-002  0.4485008E+03  0.7546771E-02  0.1028170E+00
         21   -1    0    0  502  501  0.00000000000E+00  0.00000000000E+00  0.33750374099E+03  0.33750374099E+03  0.00000000000E+00 0.  1.
         21   -1    0    0  501  502 -0.00000000000E+00 -0.00000000000E+00 -0.14900057617E+03  0.14900057617E+03  0.00000000000E+00 0.  1.
      99926    2    1    2    0    0  0.00000000000E+00  0.00000000000E+00  0.18850316482E+03  0.48650431717E+03  0.44850084445E+03 0.  0.
      99925    2    3    3    0    0 -0.22270053028E+02  0.37782029442E+02  0.22481344282E+03  0.34906567122E+03  0.26340524243E+03 0.  0.
         25    1    3    3    0    0  0.22270053028E+02 -0.37782029442E+02 -0.36310278004E+02  0.13743864595E+03  0.12509000000E+03 0.  0.
         25    1    4    4    0    0  0.13091385902E+02 -0.96591076526E+01  0.83458855864E+02  0.15125333539E+03  0.12509000000E+03 0.  0.
         25    1    4    4    0    0 -0.35361438929E+02  0.47441137094E+02  0.14135458696E+03  0.19781233583E+03  0.12509000000E+03 0.  0.
<mgrwt>
<rscale>  2 0.44850084E+03</rscale>
<asrwt>0</asrwt>
<pdfrwt beam="1">  1       21 0.49632903E-01 0.44850084E+03</pdfrwt>
<pdfrwt beam="2">  1       21 0.21911849E-01 0.44850084E+03</pdfrwt>
<totfact> 0.69759955E+04</totfact>
</mgrwt>
</event>
<event>
 7    0  0.4709932E-002  0.4586834E+03  0.7546771E-02  0.1025164E+00
         21   -1    0    0  502  501  0.00000000000E+00  0.00000000000E+00  0.12951934084E+04  0.12951934084E+04  0.00000000000E+00 0. -1.
         21   -1    0    0  501  502 -0.00000000000E+00 -0.00000000000E+00 -0.40609853261E+02  0.40609853261E+02  0.00000000000E+00 0. -1.
      99926    2    1    2    0    0  0.35527136788E-14  0.44408920985E-15  0.12545835552E+04  0.13358032617E+04  0.45868339521E+03 0.  0.
      99925    2    3    3    0    0 -0.29446334805E+02  0.36809899050E+01  0.45906446612E+03  0.52996285227E+03  0.26313457471E+03 0.  0.
         25    1    4    4    0    0 -0.22845818638E+02 -0.89845131931E+01  0.15384762513E+03  0.19979802993E+03  0.12509000000E+03 0.  0.
         25    1    4    4    0    0 -0.66005161677E+01  0.12665503098E+02  0.30521684099E+03  0.33016482234E+03  0.12509000000E+03 0.  0.
         25    1    3    3    0    0  0.29446334805E+02 -0.36809899050E+01  0.79551908906E+03  0.80584040943E+03  0.12509000000E+03 0.  0.
<mgrwt>
<rscale>  2 0.45868340E+03</rscale>
<asrwt>0</asrwt>
<pdfrwt beam="1">  1       21 0.19046959E+00 0.45868340E+03</pdfrwt>
<pdfrwt beam="2">  1       21 0.59720381E-02 0.45868340E+03</pdfrwt>
<totfact> 0.27302102E+04</totfact>
</mgrwt>
</event>
<event>
 7    0  0.4709932E-002  0.4561945E+03  0.7546771E-02  0.1025891E+00
         21   -1    0    0  502  501  0.00000000000E+00  0.00000000000E+00  0.62032371575E+03  0.62032371575E+03  0.00000000000E+00 0.  1.
         21   -1    0    0  501  502 -0.00000000000E+00 -0.00000000000E+00 -0.83872896567E+02  0.83872896567E+02  0.00000000000E+00 0.  1.
      99926    2    1    2    0    0  0.88817841970E-15 -0.14210854715E-13  0.53645081919E+03  0.70419661232E+03  0.45619446226E+03 0.  0.
      99925    2    3    3    0    0  0.54732703423E+01 -0.10512436537E+03  0.26836860066E+03  0.39019554087E+03  0.26296342980E+03 0.  0.
         25    1    4    4    0    0 -0.39065411140E+01 -0.31645498954E+02  0.17483500050E+03  0.21732805656E+03  0.12509000000E+03 0.  0.
         25    1    3    3    0    0 -0.54732703423E+01  0.10512436537E+03  0.26808221852E+03  0.31400107145E+03  0.12509000000E+03 0.  0.
         25    1    4    4    0    0  0.93798114563E+01 -0.73478866416E+02  0.93533600159E+02  0.17286748431E+03  0.12509000000E+03 0.  0.
<mgrwt>
<rscale>  2 0.45619446E+03</rscale>
<asrwt>0</asrwt>
<pdfrwt beam="1">  1       21 0.91224073E-01 0.45619446E+03</pdfrwt>
<pdfrwt beam="2">  1       21 0.12334250E-01 0.45619446E+03</pdfrwt>
<totfact> 0.52183486E+04</totfact>
</mgrwt>
</event>
<event>
 7    0  0.4709932E-002  0.4565550E+03  0.7546771E-02  0.1025785E+00
         21   -1    0    0  502  501  0.00000000000E+00  0.00000000000E+00  0.96948377179E+03  0.96948377179E+03  0.00000000000E+00 0. -1.
         21   -1    0    0  501  502 -0.00000000000E+00 -0.00000000000E+00 -0.53750893530E+02  0.53750893530E+02  0.00000000000E+00 0. -1.
      99926    2    1    2    0    0  0.00000000000E+00  0.00000000000E+00  0.91573287826E+03  0.10232346653E+04  0.45655500872E+03 0.  0.
      99925    2    3    3    0    0 -0.10341503122E+02 -0.88592510195E+02  0.73679250219E+03  0.78738991588E+03  0.26299070098E+03 0.  0.
         25    1    3    3    0    0  0.10341503122E+02  0.88592510195E+02  0.17894037607E+03  0.23584474944E+03  0.12509000000E+03 0.  0.
         25    1    4    4    0    0 -0.12837666639E+02 -0.77502594369E+02  0.46673609866E+03  0.48955239935E+03  0.12509000000E+03 0.  0.
         25    1    4    4    0    0  0.24961635171E+01 -0.11089915825E+02  0.27005640354E+03  0.29783751654E+03  0.12509000000E+03 0.  0.
<mgrwt>
<rscale>  2 0.45655501E+03</rscale>
<asrwt>0</asrwt>
<pdfrwt beam="1">  1       21 0.14257113E+00 0.45655501E+03</pdfrwt>
<pdfrwt beam="2">  1       21 0.79045437E-02 0.45655501E+03</pdfrwt>
<totfact> 0.37813891E+04</totfact>
</mgrwt>
</event>
<event>
 7    0  0.4709932E-002  0.4544259E+03  0.7546771E-02  0.1026410E+00
         21   -1    0    0  502  501  0.00000000000E+00  0.00000000000E+00  0.33455992237E+03  0.33455992237E+03  0.00000000000E+00 0. -1.
         21   -1    0    0  501  502 -0.00000000000E+00 -0.00000000000E+00 -0.15430934660E+03  0.15430934660E+03  0.00000000000E+00 0. -1.
      99926    2    1    2    0    0  0.00000000000E+00  0.00000000000E+00  0.18025057576E+03  0.48886926897E+03  0.45442589284E+03 0.  0.
      99925    2    3    3    0    0  0.20046101148E+02 -0.10699565874E+03  0.82608543427E+02  0.29643384671E+03  0.26305690804E+03 0.  0.
         25    1    4    4    0    0 -0.18547347504E+02 -0.49325858933E+02  0.10242776590E+02  0.13612298495E+03  0.12509000000E+03 0.  0.
         25    1    3    3    0    0 -0.20046101148E+02  0.10699565874E+03  0.97642032334E+02  0.19243542226E+03  0.12509000000E+03 0.  0.
         25    1    4    4    0    0  0.38593448653E+02 -0.57669799811E+02  0.72365766837E+02  0.16031086176E+03  0.12509000000E+03 0.  0.
<mgrwt>
<rscale>  2 0.45442589E+03</rscale>
<asrwt>0</asrwt>
<pdfrwt beam="1">  1       21 0.49199989E-01 0.45442589E+03</pdfrwt>
<pdfrwt beam="2">  1       21 0.22692551E-01 0.45442589E+03</pdfrwt>
<totfact> 0.66361868E+04</totfact>
</mgrwt>
</event>
<event>
 7    0  0.4709932E-002  0.4546298E+03  0.7546771E-02  0.1026350E+00
         21   -1    0    0  502  501  0.00000000000E+00  0.00000000000E+00  0.59052228029E+03  0.59052228029E+03  0.00000000000E+00 0.  1.
         21   -1    0    0  501  502 -0.00000000000E+00 -0.00000000000E+00 -0.87502314458E+02  0.87502314458E+02  0.00000000000E+00 0.  1.
      99926    2    1    2    0    0  0.00000000000E+00  0.00000000000E+00  0.50301996583E+03  0.67802459474E+03  0.45462981101E+03 0.  0.
      99925    2    3    3    0    0  0.87944109218E+01  0.74900278108E+02  0.44181271660E+03  0.51965405208E+03  0.26297236352E+03 0.  0.
         25    1    3    3    0    0 -0.87944109218E+01 -0.74900278108E+02  0.61207249229E+02  0.15837054266E+03  0.12509000000E+03 0.  0.
         25    1    4    4    0    0  0.42572833398E+02  0.26620704057E+02  0.23393241324E+03  0.26998701838E+03  0.12509000000E+03 0.  0.
         25    1    4    4    0    0 -0.33778422476E+02  0.48279574051E+02  0.20788030336E+03  0.24966703371E+03  0.12509000000E+03 0.  0.
<mgrwt>
<rscale>  2 0.45462981E+03</rscale>
<asrwt>0</asrwt>
<pdfrwt beam="1">  1       21 0.86841509E-01 0.45462981E+03</pdfrwt>
<pdfrwt beam="2">  1       21 0.12867988E-01 0.45462981E+03</pdfrwt>
<totfact> 0.54270949E+04</totfact>
</mgrwt>
</event>
<event>
 7    0  0.4709932E-002  0.4555996E+03  0.7546771E-02  0.1026065E+00
         21   -1    0    0  502  501  0.00000000000E+00  0.00000000000E+00  0.25052757277E+03  0.25052757277E+03  0.00000000000E+00 0. -1.
         21   -1    0    0  501  502 -0.00000000000E+00 -0.00000000000E+00 -0.20713387481E+03  0.20713387481E+03  0.00000000000E+00 0. -1.
      99926    2    1    2    0    0  0.71054273576E-14 -0.14210854715E-13  0.43393697960E+02  0.45766144757E+03  0.45559959127E+03 0.  0.
      99925    2    3    3    0    0  0.41353793093E+02 -0.81392660688E+02  0.95331073350E+02  0.29432161630E+03  0.26306329820E+03 0.  0.
         25    1    4    4    0    0  0.21569766809E+02 -0.14757181597E+02  0.11111847501E+02  0.12827318700E+03  0.12509000000E+03 0.  0.
         25    1    4    4    0    0  0.19784026285E+02 -0.66635479090E+02  0.84219225849E+02  0.16604842930E+03  0.12509000000E+03 0.  0.
         25    1    3    3    0    0 -0.41353793093E+02  0.81392660688E+02 -0.51937375389E+02  0.16333983127E+03  0.12509000000E+03 0.  0.
<mgrwt>
<rscale>  2 0.45559959E+03</rscale>
<asrwt>0</asrwt>
<pdfrwt beam="1">  1       21 0.36842290E-01 0.45559959E+03</pdfrwt>
<pdfrwt beam="2">  1       21 0.30460864E-01 0.45559959E+03</pdfrwt>
<totfact> 0.68025252E+04</totfact>
</mgrwt>
</event>
<event>
 7    0  0.4709932E-002  0.4521705E+03  0.7546771E-02  0.1027077E+00
         21   -1    0    0  502  501  0.00000000000E+00  0.00000000000E+00  0.13272731930E+03  0.13272731930E+03  0.00000000000E+00 0.  1.
         21   -1    0    0  501  502 -0.00000000000E+00 -0.00000000000E+00 -0.38510949709E+03  0.38510949709E+03  0.00000000000E+00 0.  1.
      99926    2    1    2    0    0  0.00000000000E+00  0.00000000000E+00 -0.25238217778E+03  0.51783681639E+03  0.45217054830E+03 0.  0.
      99925    2    3    3    0    0  0.80921143227E+02 -0.72741574165E+02 -0.13702941541E+03  0.31586321435E+03  0.26296946869E+03 0.  0.
         25    1    4    4    0    0  0.55708934827E+02 -0.34437034726E+01 -0.87035417662E+02  0.16228991509E+03  0.12509000000E+03 0.  0.
         25    1    4    4    0    0  0.25212208399E+02 -0.69297870693E+02 -0.49993997747E+02  0.15357329926E+03  0.12509000000E+03 0.  0.
         25    1    3    3    0    0 -0.80921143227E+02  0.72741574165E+02 -0.11535276237E+03  0.20197360204E+03  0.12509000000E+03 0.  0.
<mgrwt>
<rscale>  2 0.45217055E+03</rscale>
<asrwt>0</asrwt>
<pdfrwt beam="1">  1       21 0.19518724E-01 0.45217055E+03</pdfrwt>
<pdfrwt beam="2">  1       21 0.56633749E-01 0.45217055E+03</pdfrwt>
<totfact> 0.65492807E+04</totfact>
</mgrwt>
</event>
<event>
 7    0  0.4709932E-002  0.4580219E+03  0.7546771E-02  0.1025356E+00
         21   -1    0    0  502  501  0.00000000000E+00  0.00000000000E+00  0.21444833273E+03  0.21444833273E+03  0.00000000000E+00 0.  1.
         21   -1    0    0  501  502 -0.00000000000E+00 -0.00000000000E+00 -0.24456250603E+03  0.24456250603E+03  0.00000000000E+00 0.  1.
      99926    2    1    2    0    0  0.00000000000E+00  0.26645352591E-14 -0.30114173306E+02  0.45901083876E+03  0.45802192815E+03 0.  0.
      99925    2    3    3    0    0 -0.11062552036E+02  0.51734203572E+01 -0.13391359170E+03  0.29600479073E+03  0.26369839165E+03 0.  0.
         25    1    4    4    0    0  0.14254277963E+02 -0.31763287309E+02 -0.51679500489E+02  0.13975109921E+03  0.12509000000E+03 0.  0.
         25    1    4    4    0    0 -0.25316829998E+02  0.36936707666E+02 -0.82234091214E+02  0.15625369152E+03  0.12509000000E+03 0.  0.
         25    1    3    3    0    0  0.11062552036E+02 -0.51734203572E+01  0.10379941840E+03  0.16300604803E+03  0.12509000000E+03 0.  0.
<mgrwt>
<rscale>  2 0.45802193E+03</rscale>
<asrwt>0</asrwt>
<pdfrwt beam="1">  1       21 0.31536520E-01 0.45802193E+03</pdfrwt>
<pdfrwt beam="2">  1       21 0.35965074E-01 0.45802193E+03</pdfrwt>
<totfact> 0.66631858E+04</totfact>
</mgrwt>
</event>
<event>
 7    0  0.4709932E-002  0.4574232E+03  0.7546771E-02  0.1025531E+00
         21   -1    0    0  502  501  0.00000000000E+00  0.00000000000E+00  0.23918050686E+03  0.23918050686E+03  0.00000000000E+00 0. -1.
         21   -1    0    0  501  502 -0.00000000000E+00 -0.00000000000E+00 -0.21870094820E+03  0.21870094820E+03  0.00000000000E+00 0. -1.
      99926    2    1    2    0    0  0.00000000000E+00  0.00000000000E+00  0.20479558660E+02  0.45788145506E+03  0.45742323352E+03 0.  0.
      99925    2    3    3    0    0  0.53814015130E+02 -0.94493187068E+02  0.51557631686E+02  0.28924496627E+03  0.26302005722E+03 0.  0.
         25    1    4    4    0    0  0.59011857372E+01 -0.15740670778E+02  0.44036291836E+02  0.13367608540E+03  0.12509000000E+03 0.  0.
         25    1    3    3    0    0 -0.53814015130E+02  0.94493187068E+02 -0.31078073026E+02  0.16863648879E+03  0.12509000000E+03 0.  0.
         25    1    4    4    0    0  0.47912829392E+02 -0.78752516291E+02  0.75213398506E+01  0.15556888087E+03  0.12509000000E+03 0.  0.
<mgrwt>
<rscale>  2 0.45742323E+03</rscale>
<asrwt>0</asrwt>
<pdfrwt beam="1">  1       21 0.35173604E-01 0.45742323E+03</pdfrwt>
<pdfrwt beam="2">  1       21 0.32161904E-01 0.45742323E+03</pdfrwt>
<totfact> 0.67029830E+04</totfact>
</mgrwt>
</event>
<event>
 7    0  0.4709932E-002  0.4522660E+03  0.7546771E-02  0.1027048E+00
         21   -1    0    0  502  501  0.00000000000E+00  0.00000000000E+00  0.45761488165E+03  0.45761488165E+03  0.00000000000E+00 0. -1.
         21   -1    0    0  501  502 -0.00000000000E+00 -0.00000000000E+00 -0.11174492221E+03  0.11174492221E+03  0.00000000000E+00 0. -1.
      99926    2    1    2    0    0  0.00000000000E+00  0.00000000000E+00  0.34586995944E+03  0.56935980386E+03  0.45226602504E+03 0.  0.
      99925    2    3    3    0    0  0.54464471391E+02 -0.65119321313E+02  0.12879590614E+03  0.30483086902E+03  0.26291931960E+03 0.  0.
         25    1    4    4    0    0  0.57951415083E+02 -0.34628014839E+02  0.37658536068E+02  0.14704808520E+03  0.12509000000E+03 0.  0.
         25    1    4    4    0    0 -0.34869436927E+01 -0.30491306474E+02  0.91137370076E+02  0.15778278382E+03  0.12509000000E+03 0.  0.
         25    1    3    3    0    0 -0.54464471391E+02  0.65119321313E+02  0.21707405330E+03  0.26452893484E+03  0.12509000000E+03 0.  0.
<mgrwt>
<rscale>  2 0.45226603E+03</rscale>
<asrwt>0</asrwt>
<pdfrwt beam="1">  1       21 0.67296306E-01 0.45226603E+03</pdfrwt>
<pdfrwt beam="2">  1       21 0.16433077E-01 0.45226603E+03</pdfrwt>
<totfact> 0.61933212E+04</totfact>
</mgrwt>
</event>
<event>
 7    0  0.4709932E-002  0.4552623E+03  0.7546771E-02  0.1026164E+00
         21   -1    0    0  502  501  0.00000000000E+00  0.00000000000E+00  0.24728017311E+03  0.24728017311E+03  0.00000000000E+00 0.  1.
         21   -1    0    0  501  502 -0.00000000000E+00 -0.00000000000E+00 -0.20954347498E+03  0.20954347498E+03  0.00000000000E+00 0.  1.
      99926    2    1    2    0    0  0.14210854715E-13  0.00000000000E+00  0.37736698132E+02  0.45682364808E+03  0.45526232774E+03 0.  0.
      99925    2    3    3    0    0  0.72439444557E+02 -0.75275296451E+02  0.67915246461E+02  0.29107656285E+03  0.26305748679E+03 0.  0.
         25    1    3    3    0    0 -0.72439444557E+02  0.75275296451E+02 -0.30178548329E+02  0.16574708523E+03  0.12509000000E+03 0.  0.
         25    1    4    4    0    0  0.15315173361E+02 -0.26959103409E+02  0.67143758181E+02  0.14531737733E+03  0.12509000000E+03 0.  0.
         25    1    4    4    0    0  0.57124271196E+02 -0.48316193042E+02  0.77148828020E+00  0.14575918552E+03  0.12509000000E+03 0.  0.
<mgrwt>
<rscale>  2 0.45526233E+03</rscale>
<asrwt>0</asrwt>
<pdfrwt beam="1">  1       21 0.36364732E-01 0.45526233E+03</pdfrwt>
<pdfrwt beam="2">  1       21 0.30815217E-01 0.45526233E+03</pdfrwt>
<totfact> 0.68269427E+04</totfact>
</mgrwt>
</event>
<event>
 7    0  0.4709932E-002  0.4556786E+03  0.7546771E-02  0.1026042E+00
         21   -1    0    0  502  501  0.00000000000E+00  0.00000000000E+00  0.67023220825E+03  0.67023220825E+03  0.00000000000E+00 0. -1.
         21   -1    0    0  501  502 -0.00000000000E+00 -0.00000000000E+00 -0.77451878273E+02  0.77451878273E+02  0.00000000000E+00 0. -1.
      99926    2    1    2    0    0  0.71054273576E-14  0.00000000000E+00  0.59278032997E+03  0.74768408652E+03  0.45567858588E+03 0.  0.
      99925    2    3    3    0    0 -0.60421870166E+02 -0.96222478557E+02  0.38299820951E+03  0.47830403169E+03  0.26301625514E+03 0.  0.
         25    1    3    3    0    0  0.60421870166E+02  0.96222478557E+02  0.20978212046E+03  0.26938005483E+03  0.12509000000E+03 0.  0.
         25    1    4    4    0    0 -0.41799597062E+01 -0.31157554257E+02  0.22397120073E+03  0.25845477768E+03  0.12509000000E+03 0.  0.
         25    1    4    4    0    0 -0.56241910460E+02 -0.65064924300E+02  0.15902700878E+03  0.21984925401E+03  0.12509000000E+03 0.  0.
<mgrwt>
<rscale>  2 0.45567859E+03</rscale>
<asrwt>0</asrwt>
<pdfrwt beam="1">  1       21 0.98563557E-01 0.45567859E+03</pdfrwt>
<pdfrwt beam="2">  1       21 0.11389982E-01 0.45567859E+03</pdfrwt>
<totfact> 0.50121434E+04</totfact>
</mgrwt>
</event>
<event>
 7    0  0.4709932E-002  0.4632147E+03  0.7546771E-02  0.1023853E+00
         21   -1    0    0  502  501  0.00000000000E+00  0.00000000000E+00  0.40500590418E+03  0.40500590418E+03  0.00000000000E+00 0. -1.
         21   -1    0    0  501  502 -0.00000000000E+00 -0.00000000000E+00 -0.13244735804E+03  0.13244735804E+03  0.00000000000E+00 0. -1.
      99926    2    1    2    0    0  0.00000000000E+00  0.00000000000E+00  0.27255854614E+03  0.53745326222E+03  0.46321468888E+03 0.  0.
      99925    2    3    3    0    0  0.62651999574E+02  0.67589313662E+02  0.26067901665E+03  0.38162573034E+03  0.26304193574E+03 0.  0.
         25    1    4    4    0    0  0.61199659410E+02  0.18441281099E+02  0.16469051816E+03  0.21646236170E+03  0.12509000000E+03 0.  0.
         25    1    3    3    0    0 -0.62651999574E+02 -0.67589313662E+02  0.11879529483E+02  0.15582753188E+03  0.12509000000E+03 0.  0.
         25    1    4    4    0    0  0.14523401631E+01  0.49148032562E+02  0.95988498497E+02  0.16516336864E+03  0.12509000000E+03 0.  0.
<mgrwt>
<rscale>  2 0.46321469E+03</rscale>
<asrwt>0</asrwt>
<pdfrwt beam="1">  1       21 0.59559692E-01 0.46321469E+03</pdfrwt>
<pdfrwt beam="2">  1       21 0.19477553E-01 0.46321469E+03</pdfrwt>
<totfact> 0.58783414E+04</totfact>
</mgrwt>
</event>
<event>
 7    0  0.4709932E-002  0.4596109E+03  0.7546771E-02  0.1024894E+00
         21   -1    0    0  502  501  0.00000000000E+00  0.00000000000E+00  0.11226789152E+03  0.11226789152E+03  0.00000000000E+00 0.  1.
         21   -1    0    0  501  502 -0.00000000000E+00 -0.00000000000E+00 -0.47039752277E+03  0.47039752277E+03  0.00000000000E+00 0.  1.
      99926    2    1    2    0    0  0.00000000000E+00 -0.17763568394E-14 -0.35812963125E+03  0.58266541429E+03  0.45961087045E+03 0.  0.
      99925    2    3    3    0    0 -0.11381873179E+03  0.15709903040E+02 -0.19296622366E+03  0.34575200381E+03  0.26288206463E+03 0.  0.
         25    1    3    3    0    0  0.11381873179E+03 -0.15709903040E+02 -0.16516340759E+03  0.23691341048E+03  0.12509000000E+03 0.  0.
         25    1    4    4    0    0 -0.95427519384E+02 -0.78392346397E+01 -0.11866513946E+03  0.19722268754E+03  0.12509000000E+03 0.  0.
         25    1    4    4    0    0 -0.18391212407E+02  0.23549137680E+02 -0.74301084196E+02  0.14852931627E+03  0.12509000000E+03 0.  0.
<mgrwt>
<rscale>  2 0.45961087E+03</rscale>
<asrwt>0</asrwt>
<pdfrwt beam="1">  1       21 0.16509984E-01 0.45961087E+03</pdfrwt>
<pdfrwt beam="2">  1       21 0.69176107E-01 0.45961087E+03</pdfrwt>
<totfact> 0.57628671E+04</totfact>
</mgrwt>
</event>
<event>
 7    0  0.4709932E-002  0.4516491E+03  0.7546771E-02  0.1027231E+00
         21   -1    0    0  502  501  0.00000000000E+00  0.00000000000E+00  0.18269770663E+04  0.18269770663E+04  0.00000000000E+00 0. -1.
         21   -1    0    0  501  502 -0.00000000000E+00 -0.00000000000E+00 -0.27913178286E+02  0.27913178286E+02  0.00000000000E+00 0. -1.
      99926    2    1    2    0    0 -0.14210854715E-13  0.00000000000E+00  0.17990638880E+04  0.18548902446E+04  0.45164914070E+03 0.  0.
      99925    2    3    3    0    0 -0.85768763804E+02 -0.59372860326E+02  0.12770831839E+04  0.13080879211E+04  0.26319409828E+03 0.  0.
         25    1    4    4    0    0 -0.99634688219E+01 -0.45176226913E+02  0.69965952455E+03  0.71225776274E+03  0.12509000000E+03 0.  0.
         25    1    4    4    0    0 -0.75805294982E+02 -0.14196633412E+02  0.57742365938E+03  0.59583015840E+03  0.12509000000E+03 0.  0.
         25    1    3    3    0    0  0.85768763804E+02  0.59372860326E+02  0.52198070405E+03  0.54680232341E+03  0.12509000000E+03 0.  0.
<mgrwt>
<rscale>  2 0.45164914E+03</rscale>
<asrwt>0</asrwt>
<pdfrwt beam="1">  1       21 0.26867302E+00 0.45164914E+03</pdfrwt>
<pdfrwt beam="2">  1       21 0.41048804E-02 0.45164914E+03</pdfrwt>
<totfact> 0.16656078E+04</totfact>
</mgrwt>
</event>
<event>
 7    0  0.4709932E-002  0.4563871E+03  0.7546771E-02  0.1025834E+00
         21   -1    0    0  502  501  0.00000000000E+00  0.00000000000E+00  0.53790852459E+03  0.53790852459E+03  0.00000000000E+00 0.  1.
         21   -1    0    0  501  502 -0.00000000000E+00 -0.00000000000E+00 -0.96805120051E+02  0.96805120051E+02  0.00000000000E+00 0.  1.
      99926    2    1    2    0    0  0.00000000000E+00  0.00000000000E+00  0.44110340454E+03  0.63471364464E+03  0.45638711331E+03 0.  0.
      99925    2    3    3    0    0 -0.67135565418E+02  0.88621214507E+02  0.31524396496E+03  0.42531209156E+03  0.26296523339E+03 0.  0.
         25    1    3    3    0    0  0.67135565418E+02 -0.88621214507E+02  0.12585943958E+03  0.20940155309E+03  0.12509000000E+03 0.  0.
         25    1    4    4    0    0 -0.21895699333E+02  0.72771675324E+02  0.12406957090E+03  0.19187471147E+03  0.12509000000E+03 0.  0.
         25    1    4    4    0    0 -0.45239866084E+02  0.15849539183E+02  0.19117439406E+03  0.23343738008E+03  0.12509000000E+03 0.  0.
<mgrwt>
<rscale>  2 0.45638711E+03</rscale>
<asrwt>0</asrwt>
<pdfrwt beam="1">  1       21 0.79104194E-01 0.45638711E+03</pdfrwt>
<pdfrwt beam="2">  1       21 0.14236047E-01 0.45638711E+03</pdfrwt>
<totfact> 0.55975477E+04</totfact>
</mgrwt>
</event>
<event>
 7    0  0.4709932E-002  0.4479101E+03  0.7546771E-02  0.1028347E+00
         21   -1    0    0  502  501  0.00000000000E+00  0.00000000000E+00  0.88405633777E+03  0.88405633777E+03  0.00000000000E+00 0. -1.
         21   -1    0    0  501  502 -0.00000000000E+00 -0.00000000000E+00 -0.56733782042E+02  0.56733782042E+02  0.00000000000E+00 0. -1.
      99926    2    1    2    0    0  0.00000000000E+00  0.00000000000E+00  0.82732255572E+03  0.94079011981E+03  0.44791007838E+03 0.  0.
      99925    2    3    3    0    0 -0.61020113717E+02  0.50119999687E+02  0.37422031000E+03  0.46415123991E+03  0.26298301171E+03 0.  0.
         25    1    4    4    0    0 -0.69048257930E+02  0.11280756393E+02  0.19875187237E+03  0.24504026661E+03  0.12509000000E+03 0.  0.
         25    1    4    4    0    0  0.80281442127E+01  0.38839243293E+02  0.17546843763E+03  0.21911097330E+03  0.12509000000E+03 0.  0.
         25    1    3    3    0    0  0.61020113717E+02 -0.50119999687E+02  0.45310224572E+03  0.47663887989E+03  0.12509000000E+03 0.  0.
<mgrwt>
<rscale>  2 0.44791008E+03</rscale>
<asrwt>0</asrwt>
<pdfrwt beam="1">  1       21 0.13000828E+00 0.44791008E+03</pdfrwt>
<pdfrwt beam="2">  1       21 0.83432038E-02 0.44791008E+03</pdfrwt>
<totfact> 0.43900034E+04</totfact>
</mgrwt>
</event>
<event>
 7    0  0.4709932E-002  0.4363783E+03  0.7546771E-02  0.1031864E+00
         21   -1    0    0  502  501  0.00000000000E+00  0.00000000000E+00  0.79345728135E+02  0.79345728135E+02  0.00000000000E+00 0. -1.
         21   -1    0    0  501  502 -0.00000000000E+00 -0.00000000000E+00 -0.59998823395E+03  0.59998823395E+03  0.00000000000E+00 0. -1.
      99926    2    1    2    0    0  0.00000000000E+00  0.71054273576E-14 -0.52064250582E+03  0.67933396209E+03  0.43637829137E+03 0.  0.
      99925    2    3    3    0    0  0.23041879952E+02  0.62416054224E+02 -0.43844657509E+03  0.51553417215E+03  0.26289425894E+03 0.  0.
         25    1    4    4    0    0  0.29437455993E+02  0.60601897745E+02 -0.27574473053E+03  0.31019641897E+03  0.12509000000E+03 0.  0.
         25    1    3    3    0    0 -0.23041879952E+02 -0.62416054224E+02 -0.82195930723E+02  0.16379978994E+03  0.12509000000E+03 0.  0.
         25    1    4    4    0    0 -0.63955760413E+01  0.18141564792E+01 -0.16270184456E+03  0.20533775318E+03  0.12509000000E+03 0.  0.
<mgrwt>
<rscale>  2 0.43637829E+03</rscale>
<asrwt>0</asrwt>
<pdfrwt beam="1">  1       21 0.11668489E-01 0.43637829E+03</pdfrwt>
<pdfrwt beam="2">  1       21 0.88233564E-01 0.43637829E+03</pdfrwt>
<totfact> 0.62746389E+04</totfact>
</mgrwt>
</event>
<event>
 7    0  0.4709932E-002  0.4550457E+03  0.7546771E-02  0.1026228E+00
         21   -1    0    0  502  501  0.00000000000E+00  0.00000000000E+00  0.56850062941E+02  0.56850062941E+02  0.00000000000E+00 0.  1.
         21   -1    0    0  501  502 -0.00000000000E+00 -0.00000000000E+00 -0.91058190259E+03  0.91058190259E+03  0.00000000000E+00 0.  1.
      99926    2    1    2    0    0  0.71054273576E-14  0.00000000000E+00 -0.85373183965E+03  0.96743196553E+03  0.45504566134E+03 0.  0.
      99925    2    3    3    0    0  0.33448464756E+02  0.83385709267E+02 -0.39142169508E+03  0.48014339171E+03  0.26316298547E+03 0.  0.
         25    1    4    4    0    0  0.46955176640E+02  0.30269553789E+02 -0.15295106527E+03  0.20533526479E+03  0.12509000000E+03 0.  0.
         25    1    3    3    0    0 -0.33448464756E+02 -0.83385709267E+02 -0.46231014457E+03  0.48728857382E+03  0.12509000000E+03 0.  0.
         25    1    4    4    0    0 -0.13506711884E+02  0.53116155478E+02 -0.23847062981E+03  0.27480812692E+03  0.12509000000E+03 0.  0.
<mgrwt>
<rscale>  2 0.45504566E+03</rscale>
<asrwt>0</asrwt>
<pdfrwt beam="1">  1       21 0.83603035E-02 0.45504566E+03</pdfrwt>
<pdfrwt beam="2">  1       21 0.13390910E+00 0.45504566E+03</pdfrwt>
<totfact> 0.40428472E+04</totfact>
</mgrwt>
</event>
<event>
 7    0  0.4709932E-002  0.4594492E+03  0.7546771E-02  0.1024941E+00
         21   -1    0    0  502  501  0.00000000000E+00  0.00000000000E+00  0.20012941838E+03  0.20012941838E+03  0.00000000000E+00 0.  1.
         21   -1    0    0  501  502 -0.00000000000E+00 -0.00000000000E+00 -0.26369638076E+03  0.26369638076E+03  0.00000000000E+00 0.  1.
      99926    2    1    2    0    0  0.00000000000E+00  0.00000000000E+00 -0.63566962378E+02  0.46382579913E+03  0.45944924990E+03 0.  0.
      99925    2    3    3    0    0  0.69724877513E+02 -0.71368873737E+02  0.24352359307E+02  0.28125419699E+03  0.26183164675E+03 0.  0.
         25    1    4    4    0    0  0.42038774283E+02 -0.28622749200E+01  0.31827015002E+02  0.13577893115E+03  0.12509000000E+03 0.  0.
         25    1    3    3    0    0 -0.69724877513E+02  0.71368873737E+02 -0.87919321686E+02  0.18257160214E+03  0.12509000000E+03 0.  0.
         25    1    4    4    0    0  0.27686103230E+02 -0.68506598817E+02 -0.74746556948E+01  0.14547526584E+03  0.12509000000E+03 0.  0.
<mgrwt>
<rscale>  2 0.45944925E+03</rscale>
<asrwt>0</asrwt>
<pdfrwt beam="1">  1       21 0.29430797E-01 0.45944925E+03</pdfrwt>
<pdfrwt beam="2">  1       21 0.38778879E-01 0.45944925E+03</pdfrwt>
<totfact> 0.65545910E+04</totfact>
</mgrwt>
</event>
<event>
 7    0  0.4709932E-002  0.4455723E+03  0.7546771E-02  0.1029051E+00
         21   -1    0    0  502  501  0.00000000000E+00  0.00000000000E+00  0.17191594557E+03  0.17191594557E+03  0.00000000000E+00 0.  1.
         21   -1    0    0  501  502 -0.00000000000E+00 -0.00000000000E+00 -0.28870896127E+03  0.28870896127E+03  0.00000000000E+00 0.  1.
      99926    2    1    2    0    0  0.00000000000E+00  0.00000000000E+00 -0.11679301570E+03  0.46062490684E+03  0.44557232442E+03 0.  0.
      99925    2    3    3    0    0 -0.77799079814E+02 -0.24007836664E+02 -0.73013369572E+01  0.27551680638E+03  0.26311048637E+03 0.  0.
         25    1    4    4    0    0  0.70373694731E+00  0.37623798229E+01 -0.30673996782E+01  0.12518613257E+03  0.12509000000E+03 0.  0.
         25    1    3    3    0    0  0.77799079814E+02  0.24007836664E+02 -0.10949167875E+03  0.18510810046E+03  0.12509000000E+03 0.  0.
         25    1    4    4    0    0 -0.78502816762E+02 -0.27770216487E+02 -0.42339372791E+01  0.15033067381E+03  0.12509000000E+03 0.  0.
<mgrwt>
<rscale>  2 0.44557232E+03</rscale>
<asrwt>0</asrwt>
<pdfrwt beam="1">  1       21 0.25281757E-01 0.44557232E+03</pdfrwt>
<pdfrwt beam="2">  1       21 0.42457200E-01 0.44557232E+03</pdfrwt>
<totfact> 0.73482982E+04</totfact>
</mgrwt>
</event>
<event>
 7    0  0.4709932E-002  0.4589443E+03  0.7546771E-02  0.1025088E+00
         21   -1    0    0  502  501  0.00000000000E+00  0.00000000000E+00  0.12005074300E+03  0.12005074300E+03  0.00000000000E+00 0. -1.
         21   -1    0    0  501  502 -0.00000000000E+00 -0.00000000000E+00 -0.43862673884E+03  0.43862673884E+03  0.00000000000E+00 0. -1.
      99926    2    1    2    0    0  0.00000000000E+00  0.22204460493E-14 -0.31857599584E+03  0.55867748184E+03  0.45894429247E+03 0.  0.
      99925    2    3    3    0    0 -0.63925244893E+02  0.37466595385E+01 -0.80537032795E+02  0.28225293442E+03  0.26283080288E+03 0.  0.
         25    1    4    4    0    0 -0.29092345316E+02 -0.32569372471E+02 -0.18306385557E+02  0.13375260906E+03  0.12509000000E+03 0.  0.
         25    1    3    3    0    0  0.63925244893E+02 -0.37466595385E+01 -0.23803896304E+03  0.27642454742E+03  0.12509000000E+03 0.  0.
         25    1    4    4    0    0 -0.34832899577E+02  0.36316032010E+02 -0.62230647238E+02  0.14850032535E+03  0.12509000000E+03 0.  0.
<mgrwt>
<rscale>  2 0.45894429E+03</rscale>
<asrwt>0</asrwt>
<pdfrwt beam="1">  1       21 0.17654521E-01 0.45894429E+03</pdfrwt>
<pdfrwt beam="2">  1       21 0.64503931E-01 0.45894429E+03</pdfrwt>
<totfact> 0.59420950E+04</totfact>
</mgrwt>
</event>
<event>
 7    0  0.4709932E-002  0.4537964E+03  0.7546771E-02  0.1026596E+00
         21   -1    0    0  502  501  0.00000000000E+00  0.00000000000E+00  0.20337218809E+03  0.20337218809E+03  0.00000000000E+00 0.  1.
         21   -1    0    0  501  502 -0.00000000000E+00 -0.00000000000E+00 -0.25314566613E+03  0.25314566613E+03  0.00000000000E+00 0.  1.
      99926    2    1    2    0    0  0.00000000000E+00  0.00000000000E+00 -0.49773478047E+02  0.45651785422E+03  0.45379637736E+03 0.  0.
      99925    2    3    3    0    0  0.82170706819E+02  0.72282243850E+02 -0.72580514710E+01  0.28496081580E+03  0.26300805956E+03 0.  0.
         25    1    4    4    0    0  0.57929400990E+02  0.60074818977E+02 -0.34062943493E+02  0.15418362946E+03  0.12509000000E+03 0.  0.
         25    1    4    4    0    0  0.24241305829E+02  0.12207424872E+02  0.26804892022E+02  0.13077718634E+03  0.12509000000E+03 0.  0.
         25    1    3    3    0    0 -0.82170706819E+02 -0.72282243850E+02 -0.42515426576E+02  0.17155703842E+03  0.12509000000E+03 0.  0.
<mgrwt>
<rscale>  2 0.45379638E+03</rscale>
<asrwt>0</asrwt>
<pdfrwt beam="1">  1       21 0.29907675E-01 0.45379638E+03</pdfrwt>
<pdfrwt beam="2">  1       21 0.37227304E-01 0.45379638E+03</pdfrwt>
<totfact> 0.69095840E+04</totfact>
</mgrwt>
</event>
<event>
 7    0  0.4709932E-002  0.4576246E+03  0.7546771E-02  0.1025472E+00
         21   -1    0    0  502  501  0.00000000000E+00  0.00000000000E+00  0.95735934113E+02  0.95735934113E+02  0.00000000000E+00 0. -1.
         21   -1    0    0  501  502 -0.00000000000E+00 -0.00000000000E+00 -0.54686962038E+03  0.54686962038E+03  0.00000000000E+00 0. -1.
      99926    2    1    2    0    0  0.14210854715E-13  0.00000000000E+00 -0.45113368626E+03  0.64260555449E+03  0.45762462322E+03 0.  0.
      99925    2    3    3    0    0  0.74400787508E+02 -0.87319598142E+02 -0.26304230792E+03  0.38925586709E+03  0.26299940095E+03 0.  0.
         25    1    4    4    0    0  0.22350989354E+02 -0.25412941570E+02 -0.16949492089E+03  0.21335749490E+03  0.12509000000E+03 0.  0.
         25    1    4    4    0    0  0.52049798154E+02 -0.61906656572E+02 -0.93547387037E+02  0.17589837218E+03  0.12509000000E+03 0.  0.
         25    1    3    3    0    0 -0.74400787508E+02  0.87319598142E+02 -0.18809137834E+03  0.25334968740E+03  0.12509000000E+03 0.  0.
<mgrwt>
<rscale>  2 0.45762462E+03</rscale>
<asrwt>0</asrwt>
<pdfrwt beam="1">  1       21 0.14078814E-01 0.45762462E+03</pdfrwt>
<pdfrwt beam="2">  1       21 0.80422000E-01 0.45762462E+03</pdfrwt>
<totfact> 0.54981895E+04</totfact>
</mgrwt>
</event>
<event>
 6    0  0.4709932E-002  0.4544624E+03  0.7546771E-02  0.1026400E+00
         21   -1    0    0  502  501  0.00000000000E+00  0.00000000000E+00  0.42300353367E+03  0.42300353367E+03  0.00000000000E+00 0. -1.
         21   -1    0    0  501  502 -0.00000000000E+00 -0.00000000000E+00 -0.12206524068E+03  0.12206524068E+03  0.00000000000E+00 0. -1.
      99926    2    1    2    0    0 -0.15543122345E-14  0.00000000000E+00  0.30093829299E+03  0.54506877435E+03  0.45446244353E+03 0.  0.
         25    1    3    3    0    0  0.15049606094E+01  0.74858952018E+02  0.20433625033E+03  0.25101183020E+03  0.12509000000E+03 0.  0.
         25    1    3    3    0    0 -0.25249045044E+02 -0.91657646678E+00  0.23846337417E+02  0.12982492171E+03  0.12509000000E+03 0.  0.
         25    1    3    3    0    0  0.23744084435E+02 -0.73942375551E+02  0.72755705247E+02  0.16423202244E+03  0.12509000000E+03 0.  0.
<mgrwt>
<rscale>  2 0.45446244E+03</rscale>
<asrwt>0</asrwt>
<pdfrwt beam="1">  1       21 0.62206402E-01 0.45446244E+03</pdfrwt>
<pdfrwt beam="2">  1       21 0.17950771E-01 0.45446244E+03</pdfrwt>
<totfact> 0.62458805E+04</totfact>
</mgrwt>
</event>
<event>
 7    0  0.4709932E-002  0.4403695E+03  0.7546771E-02  0.1030634E+00
         21   -1    0    0  502  501  0.00000000000E+00  0.00000000000E+00  0.30033439570E+03  0.30033439570E+03  0.00000000000E+00 0. -1.
         21   -1    0    0  501  502 -0.00000000000E+00 -0.00000000000E+00 -0.16142447651E+03  0.16142447651E+03  0.00000000000E+00 0. -1.
      99926    2    1    2    0    0  0.00000000000E+00  0.00000000000E+00  0.13890991918E+03  0.46175887221E+03  0.44036949306E+03 0.  0.
      99925    2    3    3    0    0 -0.97198103972E+02 -0.13488832354E+02  0.76249636579E+02  0.29086931978E+03  0.26298580589E+03 0.  0.
         25    1    4    4    0    0 -0.69796243267E+02 -0.80653494756E+01  0.35489130532E+01  0.14351539402E+03  0.12509000000E+03 0.  0.
         25    1    4    4    0    0 -0.27401860705E+02 -0.54234828788E+01  0.72700723526E+02  0.14735392576E+03  0.12509000000E+03 0.  0.
         25    1    3    3    0    0  0.97198103972E+02  0.13488832354E+02  0.62660282603E+02  0.17088955243E+03  0.12509000000E+03 0.  0.
<mgrwt>
<rscale>  2 0.44036949E+03</rscale>
<asrwt>0</asrwt>
<pdfrwt beam="1">  1       21 0.44166823E-01 0.44036949E+03</pdfrwt>
<pdfrwt beam="2">  1       21 0.23738894E-01 0.44036949E+03</pdfrwt>
<totfact> 0.76562221E+04</totfact>
</mgrwt>
</event>
<event>
 7    0  0.4709932E-002  0.4355800E+03  0.7546771E-02  0.1032112E+00
         21   -1    0    0  502  501  0.00000000000E+00  0.00000000000E+00  0.10426371648E+04  0.10426371648E+04  0.00000000000E+00 0.  1.
         21   -1    0    0  501  502 -0.00000000000E+00 -0.00000000000E+00 -0.45492806705E+02  0.45492806705E+02  0.00000000000E+00 0.  1.
      99926    2    1    2    0    0 -0.14210854715E-13  0.00000000000E+00  0.99714435811E+03  0.10881299715E+04  0.43558003170E+03 0.  0.
      99925    2    3    3    0    0 -0.77976482935E+02  0.13677250556E+02  0.51359020031E+03  0.58242301023E+03  0.26301001866E+03 0.  0.
         25    1    4    4    0    0 -0.57847143013E+02  0.19685904503E+02  0.19574217030E+03  0.24020060809E+03  0.12509000000E+03 0.  0.
         25    1    4    4    0    0 -0.20129339922E+02 -0.60086539464E+01  0.31784803001E+03  0.34222240214E+03  0.12509000000E+03 0.  0.
         25    1    3    3    0    0  0.77976482935E+02 -0.13677250556E+02  0.48355415780E+03  0.50570696130E+03  0.12509000000E+03 0.  0.
<mgrwt>
<rscale>  2 0.43558003E+03</rscale>
<asrwt>0</asrwt>
<pdfrwt beam="1">  1       21 0.15332898E+00 0.43558003E+03</pdfrwt>
<pdfrwt beam="2">  1       21 0.66901193E-02 0.43558003E+03</pdfrwt>
<totfact> 0.41907021E+04</totfact>
</mgrwt>
</event>
<event>
 6    0  0.4709932E-002  0.4557765E+03  0.7546771E-02  0.1026013E+00
         21   -1    0    0  502  501  0.00000000000E+00  0.00000000000E+00  0.45229049803E+03  0.45229049803E+03  0.00000000000E+00 0. -1.
         21   -1    0    0  501  502 -0.00000000000E+00 -0.00000000000E+00 -0.11482236030E+03  0.11482236030E+03  0.00000000000E+00 0. -1.
      99926    2    1    2    0    0 -0.14210854715E-13  0.71054273576E-14  0.33746813773E+03  0.56711285834E+03  0.45577653528E+03 0.  0.
         25    1    3    3    0    0 -0.63295098330E+01  0.25137517733E+02  0.96158953268E+02  0.15989374561E+03  0.12509000000E+03 0.  0.
         25    1    3    3    0    0 -0.74078043582E+02  0.22411924736E+02  0.39947330857E+02  0.15242423775E+03  0.12509000000E+03 0.  0.
         25    1    3    3    0    0  0.80407553415E+02 -0.47549442469E+02  0.20136185361E+03  0.25479487497E+03  0.12509000000E+03 0.  0.
<mgrwt>
<rscale>  2 0.45577654E+03</rscale>
<asrwt>0</asrwt>
<pdfrwt beam="1">  1       21 0.66513308E-01 0.45577654E+03</pdfrwt>
<pdfrwt beam="2">  1       21 0.16885641E-01 0.45577654E+03</pdfrwt>
<totfact> 0.60377997E+04</totfact>
</mgrwt>
</event>
<event>
 7    0  0.4709932E-002  0.4507217E+03  0.7546771E-02  0.1027507E+00
         21   -1    0    0  502  501  0.00000000000E+00  0.00000000000E+00  0.61964011122E+03  0.61964011122E+03  0.00000000000E+00 0.  1.
         21   -1    0    0  501  502 -0.00000000000E+00 -0.00000000000E+00 -0.81962913255E+02  0.81962913255E+02  0.00000000000E+00 0.  1.
      99926    2    1    2    0    0  0.17763568394E-14 -0.14210854715E-13  0.53767719797E+03  0.70160302448E+03  0.45072168213E+03 0.  0.
      99925    2    3    3    0    0 -0.92263689569E+01  0.10469997191E+03  0.29523563118E+03  0.40924599718E+03  0.26319384166E+03 0.  0.
         25    1    4    4    0    0  0.13511018368E+02  0.19410409067E+02  0.16390353138E+03  0.20753599036E+03  0.12509000000E+03 0.  0.
         25    1    4    4    0    0 -0.22737387325E+02  0.85289562845E+02  0.13133209980E+03  0.20171000682E+03  0.12509000000E+03 0.  0.
         25    1    3    3    0    0  0.92263689569E+01 -0.10469997191E+03  0.24244156679E+03  0.29235702730E+03  0.12509000000E+03 0.  0.
<mgrwt>
<rscale>  2 0.45072168E+03</rscale>
<asrwt>0</asrwt>
<pdfrwt beam="1">  1       21 0.91123544E-01 0.45072168E+03</pdfrwt>
<pdfrwt beam="2">  1       21 0.12053370E-01 0.45072168E+03</pdfrwt>
<totfact> 0.54632242E+04</totfact>
</mgrwt>
</event>
<event>
 7    0  0.4709932E-002  0.4419926E+03  0.7546771E-02  0.1030137E+00
         21   -1    0    0  502  501  0.00000000000E+00  0.00000000000E+00  0.12890250313E+03  0.12890250313E+03  0.00000000000E+00 0.  1.
         21   -1    0    0  501  502 -0.00000000000E+00 -0.00000000000E+00 -0.37888608448E+03  0.37888608448E+03  0.00000000000E+00 0.  1.
      99926    2    1    2    0    0  0.00000000000E+00  0.00000000000E+00 -0.24998358135E+03  0.50778858761E+03  0.44199260035E+03 0.  0.
      99925    2    3    3    0    0 -0.71154920894E+02  0.48519548292E+02 -0.98371659265E+02  0.29319396431E+03  0.26242817689E+03 0.  0.
         25    1    3    3    0    0  0.71154920894E+02 -0.48519548292E+02 -0.15161192208E+03  0.21459462330E+03  0.12509000000E+03 0.  0.
         25    1    4    4    0    0 -0.29319894550E+02  0.50033517847E+02 -0.81619178654E+02  0.16022548970E+03  0.12509000000E+03 0.  0.
         25    1    4    4    0    0 -0.41835026344E+02 -0.15139695555E+01 -0.16752480611E+02  0.13296847461E+03  0.12509000000E+03 0.  0.
<mgrwt>
<rscale>  2 0.44199260E+03</rscale>
<asrwt>0</asrwt>
<pdfrwt beam="1">  1       21 0.18956251E-01 0.44199260E+03</pdfrwt>
<pdfrwt beam="2">  1       21 0.55718540E-01 0.44199260E+03</pdfrwt>
<totfact> 0.71862483E+04</totfact>
</mgrwt>
</event>
<event>
 7    0  0.4709932E-002  0.4563595E+03  0.7546771E-02  0.1025842E+00
         21   -1    0    0  502  501  0.00000000000E+00  0.00000000000E+00  0.31875793260E+03  0.31875793260E+03  0.00000000000E+00 0. -1.
         21   -1    0    0  501  502 -0.00000000000E+00 -0.00000000000E+00 -0.16334021392E+03  0.16334021392E+03  0.00000000000E+00 0. -1.
      99926    2    1    2    0    0  0.00000000000E+00  0.00000000000E+00  0.15541771868E+03  0.48209814651E+03  0.45635945875E+03 0.  0.
      99925    2    3    3    0    0 -0.93046050464E+02  0.44317042769E+02  0.44623626246E+02  0.28577085140E+03  0.26277774584E+03 0.  0.
         25    1    4    4    0    0 -0.61901292363E+02 -0.80020175303E+01  0.42778838540E+00  0.13979804499E+03  0.12509000000E+03 0.  0.
         25    1    3    3    0    0  0.93046050464E+02 -0.44317042769E+02  0.11079409243E+03  0.19632729511E+03  0.12509000000E+03 0.  0.
         25    1    4    4    0    0 -0.31144758101E+02  0.52319060299E+02  0.44195837861E+02  0.14597280641E+03  0.12509000000E+03 0.  0.
<mgrwt>
<rscale>  2 0.45635946E+03</rscale>
<asrwt>0</asrwt>
<pdfrwt beam="1">  1       21 0.46876167E-01 0.45635946E+03</pdfrwt>
<pdfrwt beam="2">  1       21 0.24020620E-01 0.45635946E+03</pdfrwt>
<totfact> 0.65834390E+04</totfact>
</mgrwt>
</event>
<event>
 7    0  0.4709932E-002  0.4601794E+03  0.7546771E-02  0.1024729E+00
         21   -1    0    0  502  501  0.00000000000E+00  0.00000000000E+00  0.27993162261E+03  0.27993162261E+03  0.00000000000E+00 0. -1.
         21   -1    0    0  501  502 -0.00000000000E+00 -0.00000000000E+00 -0.18912218918E+03  0.18912218918E+03  0.00000000000E+00 0. -1.
      99926    2    1    2    0    0 -0.71054273576E-14  0.00000000000E+00  0.90809433437E+02  0.46905381179E+03  0.46017944886E+03 0.  0.
      99925    2    3    3    0    0  0.62225438401E+02 -0.58778144574E+02 -0.24999668314E+02  0.27830232002E+03  0.26362913809E+03 0.  0.
         25    1    4    4    0    0  0.72383914296E+02 -0.27992556367E+02 -0.31307963570E+01  0.14724239962E+03  0.12509000000E+03 0.  0.
         25    1    3    3    0    0 -0.62225438401E+02  0.58778144574E+02  0.11580910175E+03  0.19075149177E+03  0.12509000000E+03 0.  0.
         25    1    4    4    0    0 -0.10158475894E+02 -0.30785588207E+02 -0.21868871957E+02  0.13105992040E+03  0.12509000000E+03 0.  0.
<mgrwt>
<rscale>  2 0.46017945E+03</rscale>
<asrwt>0</asrwt>
<pdfrwt beam="1">  1       21 0.41166415E-01 0.46017945E+03</pdfrwt>
<pdfrwt beam="2">  1       21 0.27812087E-01 0.46017945E+03</pdfrwt>
<totfact> 0.64800960E+04</totfact>
</mgrwt>
</event>
<event>
 7    0  0.4709932E-002  0.4522115E+03  0.7546771E-02  0.1027065E+00
         21   -1    0    0  502  501  0.00000000000E+00  0.00000000000E+00  0.60686372934E+03  0.60686372934E+03  0.00000000000E+00 0. -1.
         21   -1    0    0  501  502 -0.00000000000E+00 -0.00000000000E+00 -0.84242634775E+02  0.84242634775E+02  0.00000000000E+00 0. -1.
      99926    2    1    2    0    0  0.00000000000E+00  0.00000000000E+00  0.52262109457E+03  0.69110636412E+03  0.45221145279E+03 0.  0.
      99925    2    3    3    0    0  0.47124678552E+02 -0.97401479640E+02  0.36347369851E+03  0.46157818429E+03  0.26312260856E+03 0.  0.
         25    1    4    4    0    0  0.18813667977E+02 -0.89415225217E+02  0.17843040836E+03  0.23629209748E+03  0.12509000000E+03 0.  0.
         25    1    3    3    0    0 -0.47124678552E+02  0.97401479640E+02  0.15914739605E+03  0.22952817983E+03  0.12509000000E+03 0.  0.
         25    1    4    4    0    0  0.28311010574E+02 -0.79862544230E+01  0.18504329015E+03  0.22528608681E+03  0.12509000000E+03 0.  0.
<mgrwt>
<rscale>  2 0.45221145E+03</rscale>
<asrwt>0</asrwt>
<pdfrwt beam="1">  1       21 0.89244664E-01 0.45221145E+03</pdfrwt>
<pdfrwt beam="2">  1       21 0.12388623E-01 0.45221145E+03</pdfrwt>
<totfact> 0.54576729E+04</totfact>
</mgrwt>
</event>
<event>
 7    0  0.4709932E-002  0.4508791E+03  0.7546771E-02  0.1027460E+00
         21   -1    0    0  502  501  0.00000000000E+00  0.00000000000E+00  0.86043023803E+02  0.86043023803E+02  0.00000000000E+00 0.  1.
         21   -1    0    0  501  502 -0.00000000000E+00 -0.00000000000E+00 -0.59066943058E+03  0.59066943058E+03  0.00000000000E+00 0.  1.
      99926    2    1    2    0    0  0.00000000000E+00  0.00000000000E+00 -0.50462640678E+03  0.67671245438E+03  0.45087906971E+03 0.  0.
      99925    2    3    3    0    0 -0.32187334729E+02  0.10413832920E+03 -0.30865445267E+03  0.41993758991E+03  0.26305739325E+03 0.  0.
         25    1    4    4    0    0 -0.54693573219E+02  0.67493677616E+02 -0.15787040286E+03  0.21935668594E+03  0.12509000000E+03 0.  0.
         25    1    4    4    0    0  0.22506238490E+02  0.36644651584E+02 -0.15078404981E+03  0.20058090397E+03  0.12509000000E+03 0.  0.
         25    1    3    3    0    0  0.32187334729E+02 -0.10413832920E+03 -0.19597195411E+03  0.25677486447E+03  0.12509000000E+03 0.  0.
<mgrwt>
<rscale>  2 0.45087907E+03</rscale>
<asrwt>0</asrwt>
<pdfrwt beam="1">  1       21 0.12653385E-01 0.45087907E+03</pdfrwt>
<pdfrwt beam="2">  1       21 0.86863154E-01 0.45087907E+03</pdfrwt>
<totfact> 0.55980905E+04</totfact>
</mgrwt>
</event>
<event>
 7    0  0.4709932E-002  0.4573775E+03  0.7546771E-02  0.1025545E+00
         21   -1    0    0  502  501  0.00000000000E+00  0.00000000000E+00  0.23826817561E+03  0.23826817561E+03  0.00000000000E+00 0.  1.
         21   -1    0    0  501  502 -0.00000000000E+00 -0.00000000000E+00 -0.21949448102E+03  0.21949448102E+03  0.00000000000E+00 0.  1.
      99926    2    1    2    0    0  0.71054273576E-14  0.00000000000E+00  0.18773694596E+02  0.45776265663E+03  0.45737752262E+03 0.  0.
      99925    2    3    3    0    0  0.28502008265E+02 -0.97091057375E+02 -0.43371330829E+02  0.28528497639E+03  0.26318702004E+03 0.  0.
         25    1    4    4    0    0 -0.16934575140E+02 -0.75625751122E+02 -0.23899657034E+02  0.14907962897E+03  0.12509000000E+03 0.  0.
         25    1    3    3    0    0 -0.28502008265E+02  0.97091057375E+02  0.62145025425E+02  0.17247768024E+03  0.12509000000E+03 0.  0.
         25    1    4    4    0    0  0.45436583404E+02 -0.21465306253E+02 -0.19471673795E+02  0.13620534741E+03  0.12509000000E+03 0.  0.
<mgrwt>
<rscale>  2 0.45737752E+03</rscale>
<asrwt>0</asrwt>
<pdfrwt beam="1">  1       21 0.35039438E-01 0.45737752E+03</pdfrwt>
<pdfrwt beam="2">  1       21 0.32278600E-01 0.45737752E+03</pdfrwt>
<totfact> 0.67062658E+04</totfact>
</mgrwt>
</event>
<event>
 7    0  0.4709932E-002  0.4570416E+03  0.7546771E-02  0.1025643E+00
         21   -1    0    0  502  501  0.00000000000E+00  0.00000000000E+00  0.42793898920E+03  0.42793898920E+03  0.00000000000E+00 0. -1.
         21   -1    0    0  501  502 -0.00000000000E+00 -0.00000000000E+00 -0.12203083871E+03  0.12203083871E+03  0.00000000000E+00 0. -1.
      99926    2    1    2    0    0  0.00000000000E+00  0.00000000000E+00  0.30590815049E+03  0.54996982792E+03  0.45704159010E+03 0.  0.
      99925    2    3    3    0    0 -0.29373964152E+02 -0.64251548613E+02  0.30144653802E+03  0.40623915842E+03  0.26300027999E+03 0.  0.
         25    1    3    3    0    0  0.29373964152E+02  0.64251548613E+02  0.44616124693E+01  0.14373066950E+03  0.12509000000E+03 0.  0.
         25    1    4    4    0    0  0.14203012682E+02 -0.29256778676E+02  0.10390368755E+03  0.16583476431E+03  0.12509000000E+03 0.  0.
         25    1    4    4    0    0 -0.43576976835E+02 -0.34994769937E+02  0.19754285047E+03  0.24040439410E+03  0.12509000000E+03 0.  0.
<mgrwt>
<rscale>  2 0.45704159E+03</rscale>
<asrwt>0</asrwt>
<pdfrwt beam="1">  1       21 0.62932204E-01 0.45704159E+03</pdfrwt>
<pdfrwt beam="2">  1       21 0.17945712E-01 0.45704159E+03</pdfrwt>
<totfact> 0.60879152E+04</totfact>
</mgrwt>
</event>
<event>
 7    0  0.4709932E-002  0.4483845E+03  0.7546771E-02  0.1028205E+00
         21   -1    0    0  502  501  0.00000000000E+00  0.00000000000E+00  0.59768519430E+02  0.59768519430E+02  0.00000000000E+00 0. -1.
         21   -1    0    0  501  502 -0.00000000000E+00 -0.00000000000E+00 -0.84094713483E+03  0.84094713483E+03  0.00000000000E+00 0. -1.
      99926    2    1    2    0    0  0.00000000000E+00 -0.44408920985E-15 -0.78117861540E+03  0.90071565426E+03  0.44838450093E+03 0.  0.
      99925    2    3    3    0    0  0.82093517660E+02  0.38160406441E+01 -0.35739853037E+03  0.45128159194E+03  0.26299706824E+03 0.  0.
         25    1    4    4    0    0  0.12350786720E+02 -0.25675038635E+02 -0.14774578226E+03  0.19567338556E+03  0.12509000000E+03 0.  0.
         25    1    3    3    0    0 -0.82093517660E+02 -0.38160406441E+01 -0.42378008503E+03  0.44943406233E+03  0.12509000000E+03 0.  0.
         25    1    4    4    0    0  0.69742730940E+02  0.29491079280E+02 -0.20965274811E+03  0.25560820638E+03  0.12509000000E+03 0.  0.
<mgrwt>
<rscale>  2 0.44838450E+03</rscale>
<asrwt>0</asrwt>
<pdfrwt beam="1">  1       21 0.87894886E-02 0.44838450E+03</pdfrwt>
<pdfrwt beam="2">  1       21 0.12366869E+00 0.44838450E+03</pdfrwt>
<totfact> 0.45514194E+04</totfact>
</mgrwt>
</event>
<event>
 7    0  0.4709932E-002  0.4612085E+03  0.7546771E-02  0.1024431E+00
         21   -1    0    0  502  501  0.00000000000E+00  0.00000000000E+00  0.45879721296E+02  0.45879721296E+02  0.00000000000E+00 0. -1.
         21   -1    0    0  501  502 -0.00000000000E+00 -0.00000000000E+00 -0.11590812147E+04  0.11590812147E+04  0.00000000000E+00 0. -1.
      99926    2    1    2    0    0  0.00000000000E+00  0.53290705182E-14 -0.11132014934E+04  0.12049609360E+04  0.46120851288E+03 0.  0.
      99925    2    3    3    0    0  0.11695392664E+03  0.14735698468E+02 -0.73452672222E+03  0.78910344574E+03  0.26317177026E+03 0.  0.
         25    1    4    4    0    0  0.44146266635E+02  0.38904137149E+02 -0.41683264562E+03  0.43915758823E+03  0.12509000000E+03 0.  0.
         25    1    4    4    0    0  0.72807660006E+02 -0.24168438681E+02 -0.31769407659E+03  0.34994585751E+03  0.12509000000E+03 0.  0.
         25    1    3    3    0    0 -0.11695392664E+03 -0.14735698468E+02 -0.37867477115E+03  0.41585749022E+03  0.12509000000E+03 0.  0.
<mgrwt>
<rscale>  2 0.46120851E+03</rscale>
<asrwt>0</asrwt>
<pdfrwt beam="1">  1       21 0.67470190E-02 0.46120851E+03</pdfrwt>
<pdfrwt beam="2">  1       21 0.17045309E+00 0.46120851E+03</pdfrwt>
<totfact> 0.30497296E+04</totfact>
</mgrwt>
</event>
<event>
 7    0  0.4709932E-002  0.4566973E+03  0.7546771E-02  0.1025743E+00
         21   -1    0    0  502  501  0.00000000000E+00  0.00000000000E+00  0.19585732411E+04  0.19585732411E+04  0.00000000000E+00 0. -1.
         21   -1    0    0  501  502 -0.00000000000E+00 -0.00000000000E+00 -0.26623009692E+02  0.26623009692E+02  0.00000000000E+00 0. -1.
      99926    2    1    2    0    0  0.00000000000E+00 -0.71054273576E-14  0.19319502314E+04  0.19851962508E+04  0.45669733689E+03 0.  0.
      99925    2    3    3    0    0 -0.21511338630E+02 -0.32571021799E+02  0.16829443984E+04  0.17038156862E+04  0.26298751934E+03 0.  0.
         25    1    3    3    0    0  0.21511338630E+02  0.32571021799E+02  0.24900583299E+03  0.28138056457E+03  0.12509000000E+03 0.  0.
         25    1    4    4    0    0 -0.34441596881E+02 -0.11066946929E+02  0.64125810967E+03  0.65434560610E+03  0.12509000000E+03 0.  0.
         25    1    4    4    0    0  0.12930258251E+02 -0.21504074870E+02  0.10416862887E+04  0.10494700801E+04  0.12509000000E+03 0.  0.
<mgrwt>
<rscale>  2 0.45669734E+03</rscale>
<asrwt>0</asrwt>
<pdfrwt beam="1">  1       21 0.28802538E+00 0.45669734E+03</pdfrwt>
<pdfrwt beam="2">  1       21 0.39151498E-02 0.45669734E+03</pdfrwt>
<totfact> 0.13770642E+04</totfact>
</mgrwt>
</event>
<event>
 7    0  0.4709932E-002  0.4334202E+03  0.7546771E-02  0.1032785E+00
         21   -1    0    0  502  501  0.00000000000E+00  0.00000000000E+00  0.44509313855E+02  0.44509313855E+02  0.00000000000E+00 0.  1.
         21   -1    0    0  501  502 -0.00000000000E+00 -0.00000000000E+00 -0.10551334940E+04  0.10551334940E+04  0.00000000000E+00 0.  1.
      99926    2    1    2    0    0  0.00000000000E+00  0.00000000000E+00 -0.10106241801E+04  0.10996428078E+04  0.43342020185E+03 0.  0.
      99925    2    3    3    0    0 -0.59041615779E+02 -0.58599257747E+02 -0.74453528080E+03  0.79407678249E+03  0.26325912469E+03 0.  0.
         25    1    3    3    0    0  0.59041615779E+02  0.58599257747E+02 -0.26608889933E+03  0.30556602535E+03  0.12509000000E+03 0.  0.
         25    1    4    4    0    0  0.10945431273E+02 -0.23293464322E+02 -0.31618769815E+03  0.34100521478E+03  0.12509000000E+03 0.  0.
         25    1    4    4    0    0 -0.69987047052E+02 -0.35305793425E+02 -0.42834758265E+03  0.45307156771E+03  0.12509000000E+03 0.  0.
<mgrwt>
<rscale>  2 0.43342020E+03</rscale>
<asrwt>0</asrwt>
<pdfrwt beam="1">  1       21 0.65454873E-02 0.43342020E+03</pdfrwt>
<pdfrwt beam="2">  1       21 0.15516669E+00 0.43342020E+03</pdfrwt>
<totfact> 0.42170651E+04</totfact>
</mgrwt>
</event>
<event>
 7    0  0.4709932E-002  0.4540627E+03  0.7546771E-02  0.1026517E+00
         21   -1    0    0  502  501  0.00000000000E+00  0.00000000000E+00  0.17214229276E+02  0.17214229276E+02  0.00000000000E+00 0.  1.
         21   -1    0    0  501  502 -0.00000000000E+00 -0.00000000000E+00 -0.29942219541E+04  0.29942219541E+04  0.00000000000E+00 0.  1.
      99926    2    1    2    0    0  0.00000000000E+00  0.00000000000E+00 -0.29770077248E+04  0.30114361833E+04  0.45406265303E+03 0.  0.
      99925    2    3    3    0    0 -0.58149681718E+02 -0.95818597815E+02 -0.19173423258E+04  0.19385425003E+04  0.26302631434E+03 0.  0.
         25    1    3    3    0    0  0.58149681718E+02  0.95818597815E+02 -0.10596653990E+04  0.10728936831E+04  0.12509000000E+03 0.  0.
         25    1    4    4    0    0 -0.42957488550E+02 -0.87304506660E+02 -0.98029158203E+03  0.99301889035E+03  0.12509000000E+03 0.  0.
         25    1    4    4    0    0 -0.15192193168E+02 -0.85140911548E+01 -0.93705074373E+03  0.94552360991E+03  0.12509000000E+03 0.  0.
<mgrwt>
<rscale>  2 0.45406265E+03</rscale>
<asrwt>0</asrwt>
<pdfrwt beam="1">  1       21 0.25315059E-02 0.45406265E+03</pdfrwt>
<pdfrwt beam="2">  1       21 0.44032648E+00 0.45406265E+03</pdfrwt>
<totfact> 0.32075095E+03</totfact>
</mgrwt>
</event>
<event>
 7    0  0.4709932E-002  0.4762447E+03  0.7546771E-02  0.1020172E+00
         21   -1    0    0  502  501  0.00000000000E+00  0.00000000000E+00  0.24304754023E+03  0.24304754023E+03  0.00000000000E+00 0. -1.
         21   -1    0    0  501  502 -0.00000000000E+00 -0.00000000000E+00 -0.23329692416E+03  0.23329692416E+03  0.00000000000E+00 0. -1.
      99926    2    1    2    0    0  0.00000000000E+00  0.00000000000E+00  0.97506160688E+01  0.47634446438E+03  0.47624465796E+03 0.  0.
      99925    2    3    3    0    0 -0.73716785332E+02  0.11087497127E+02 -0.10308004706E+03  0.29212892847E+03  0.26297664861E+03 0.  0.
         25    1    4    4    0    0 -0.78387017661E+02  0.18612716534E+01 -0.61114572969E+02  0.15978262734E+03  0.12509000000E+03 0.  0.
         25    1    4    4    0    0  0.46702323290E+01  0.92262254740E+01 -0.41965474089E+02  0.13234630113E+03  0.12509000000E+03 0.  0.
         25    1    3    3    0    0  0.73716785332E+02 -0.11087497127E+02  0.11283066313E+03  0.18421553592E+03  0.12509000000E+03 0.  0.
<mgrwt>
<rscale>  2 0.47624466E+03</rscale>
<asrwt>0</asrwt>
<pdfrwt beam="1">  1       21 0.35742286E-01 0.47624466E+03</pdfrwt>
<pdfrwt beam="2">  1       21 0.34308371E-01 0.47624466E+03</pdfrwt>
<totfact> 0.56760493E+04</totfact>
</mgrwt>
</event>
<event>
 7    0  0.4709932E-002  0.4676370E+03  0.7546771E-02  0.1022589E+00
         21   -1    0    0  502  501  0.00000000000E+00  0.00000000000E+00  0.56439977130E+02  0.56439977130E+02  0.00000000000E+00 0. -1.
         21   -1    0    0  501  502 -0.00000000000E+00 -0.00000000000E+00 -0.96865894599E+03  0.96865894599E+03  0.00000000000E+00 0. -1.
      99926    2    1    2    0    0  0.71054273576E-14  0.00000000000E+00 -0.91221896886E+03  0.10250989231E+04  0.46763699066E+03 0.  0.
      99925    2    3    3    0    0  0.55635839024E+02 -0.95096484250E+02 -0.43987712397E+03  0.52420670474E+03  0.26298687648E+03 0.  0.
         25    1    3    3    0    0 -0.55635839024E+02  0.95096484250E+02 -0.47234184488E+03  0.50089221837E+03  0.12509000000E+03 0.  0.
         25    1    4    4    0    0 -0.59773427596E+01 -0.41990544953E+02 -0.24968242550E+03  0.28246726571E+03  0.12509000000E+03 0.  0.
         25    1    4    4    0    0  0.61613181783E+02 -0.53105939297E+02 -0.19019469847E+03  0.24173943904E+03  0.12509000000E+03 0.  0.
<mgrwt>
<rscale>  2 0.46763699E+03</rscale>
<asrwt>0</asrwt>
<pdfrwt beam="1">  1       21 0.82999965E-02 0.46763699E+03</pdfrwt>
<pdfrwt beam="2">  1       21 0.14244985E+00 0.46763699E+03</pdfrwt>
<totfact> 0.34656824E+04</totfact>
</mgrwt>
</event>
<event>
 7    0  0.4709932E-002  0.4424548E+03  0.7546771E-02  0.1029996E+00
         21   -1    0    0  502  501  0.00000000000E+00  0.00000000000E+00  0.51862003321E+03  0.51862003321E+03  0.00000000000E+00 0. -1.
         21   -1    0    0  501  502 -0.00000000000E+00 -0.00000000000E+00 -0.94368825044E+02  0.94368825044E+02  0.00000000000E+00 0. -1.
      99926    2    1    2    0    0  0.00000000000E+00  0.00000000000E+00  0.42425120817E+03  0.61298885826E+03  0.44245480302E+03 0.  0.
      99925    2    3    3    0    0  0.82197253652E+02 -0.40585944372E+02  0.21333893271E+03  0.35119675863E+03  0.26348065522E+03 0.  0.
         25    1    4    4    0    0  0.39385532561E+02 -0.47358009773E+02  0.14879136384E+03  0.20391267571E+03  0.12509000000E+03 0.  0.
         25    1    4    4    0    0  0.42811721091E+02  0.67720654003E+01  0.64547568874E+02  0.14728408292E+03  0.12509000000E+03 0.  0.
         25    1    3    3    0    0 -0.82197253652E+02  0.40585944372E+02  0.21091227546E+03  0.26179209963E+03  0.12509000000E+03 0.  0.
<mgrwt>
<rscale>  2 0.44245480E+03</rscale>
<asrwt>0</asrwt>
<pdfrwt beam="1">  1       21 0.76267651E-01 0.44245480E+03</pdfrwt>
<pdfrwt beam="2">  1       21 0.13877769E-01 0.44245480E+03</pdfrwt>
<totfact> 0.63994410E+04</totfact>
</mgrwt>
</event>
<event>
 7    0  0.4709932E-002  0.4550913E+03  0.7546771E-02  0.1026215E+00
         21   -1    0    0  502  501  0.00000000000E+00  0.00000000000E+00  0.39971548651E+03  0.39971548651E+03  0.00000000000E+00 0.  1.
         21   -1    0    0  501  502 -0.00000000000E+00 -0.00000000000E+00 -0.12953469206E+03  0.12953469206E+03  0.00000000000E+00 0.  1.
      99926    2    1    2    0    0  0.00000000000E+00 -0.17763568394E-14  0.27018079445E+03  0.52925017857E+03  0.45509129834E+03 0.  0.
      99925    2    3    3    0    0  0.28304437075E+02  0.86044520880E+01  0.43136224315E+02  0.26834421336E+03  0.26319708441E+03 0.  0.
         25    1    3    3    0    0 -0.28304437075E+02 -0.86044520880E+01  0.22704457014E+03  0.26090596521E+03  0.12509000000E+03 0.  0.
         25    1    4    4    0    0  0.26051194469E+01 -0.98655650593E+01  0.58373265080E+02  0.13841626421E+03  0.12509000000E+03 0.  0.
         25    1    4    4    0    0  0.25699317628E+02  0.18470017147E+02 -0.15237040765E+02  0.12992794915E+03  0.12509000000E+03 0.  0.
<mgrwt>
<rscale>  2 0.45509130E+03</rscale>
<asrwt>0</asrwt>
<pdfrwt beam="1">  1       21 0.58781689E-01 0.45509130E+03</pdfrwt>
<pdfrwt beam="2">  1       21 0.19049219E-01 0.45509130E+03</pdfrwt>
<totfact> 0.63211568E+04</totfact>
</mgrwt>
</event>
<event>
 6    0  0.4709932E-002  0.4563028E+03  0.7546771E-02  0.1025859E+00
         21   -1    0    0  502  501  0.00000000000E+00  0.00000000000E+00  0.16726515697E+03  0.16726515697E+03  0.00000000000E+00 0.  1.
         21   -1    0    0  501  502 -0.00000000000E+00 -0.00000000000E+00 -0.31120082490E+03  0.31120082490E+03  0.00000000000E+00 0.  1.
      99926    2    1    2    0    0 -0.88817841970E-15  0.00000000000E+00 -0.14393566793E+03  0.47846598186E+03  0.45630277152E+03 0.  0.
         25    1    3    3    0    0 -0.23143141367E+02 -0.31721677584E+02 -0.59241831686E+02  0.14387137499E+03  0.12509000000E+03 0.  0.
         25    1    3    3    0    0  0.30304665119E+02 -0.42192216652E+02 -0.12428844489E+03  0.18383057827E+03  0.12509000000E+03 0.  0.
         25    1    3    3    0    0 -0.71615237522E+01  0.73913894236E+02  0.39594608650E+02  0.15076402859E+03  0.12509000000E+03 0.  0.
<mgrwt>
<rscale>  2 0.45630277E+03</rscale>
<asrwt>0</asrwt>
<pdfrwt beam="1">  1       21 0.24597817E-01 0.45630277E+03</pdfrwt>
<pdfrwt beam="2">  1       21 0.45764827E-01 0.45630277E+03</pdfrwt>
<totfact> 0.66125554E+04</totfact>
</mgrwt>
</event>
<event>
 7    0  0.4709932E-002  0.4422919E+03  0.7546771E-02  0.1030046E+00
         21   -1    0    0  502  501  0.00000000000E+00  0.00000000000E+00  0.54176901444E+03  0.54176901444E+03  0.00000000000E+00 0. -1.
         21   -1    0    0  501  502 -0.00000000000E+00 -0.00000000000E+00 -0.90270062846E+02  0.90270062846E+02  0.00000000000E+00 0. -1.
      99926    2    1    2    0    0  0.71054273576E-14 -0.14210854715E-13  0.45149895159E+03  0.63203907728E+03  0.44229186283E+03 0.  0.
      99925    2    3    3    0    0 -0.36193833181E+02  0.83202371688E+02  0.35024314939E+03  0.44728823481E+03  0.26299025284E+03 0.  0.
         25    1    4    4    0    0  0.42381550549E+01  0.54585933483E+02  0.22660561122E+03  0.26456605457E+03  0.12509000000E+03 0.  0.
         25    1    4    4    0    0 -0.40431988236E+02  0.28616438205E+02  0.12363753817E+03  0.18272218025E+03  0.12509000000E+03 0.  0.
         25    1    3    3    0    0  0.36193833181E+02 -0.83202371688E+02  0.10125580220E+03  0.18475084247E+03  0.12509000000E+03 0.  0.
<mgrwt>
<rscale>  2 0.44229186E+03</rscale>
<asrwt>0</asrwt>
<pdfrwt beam="1">  1       21 0.79671912E-01 0.44229186E+03</pdfrwt>
<pdfrwt beam="2">  1       21 0.13275010E-01 0.44229186E+03</pdfrwt>
<totfact> 0.62815721E+04</totfact>
</mgrwt>
</event>
<event>
 7    0  0.4709932E-002  0.4396551E+03  0.7546771E-02  0.1030853E+00
         21   -1    0    0  502  501  0.00000000000E+00  0.00000000000E+00  0.25142140648E+03  0.25142140648E+03  0.00000000000E+00 0.  1.
         21   -1    0    0  501  502 -0.00000000000E+00 -0.00000000000E+00 -0.19220379868E+03  0.19220379868E+03  0.00000000000E+00 0.  1.
      99926    2    1    2    0    0  0.17763568394E-14  0.00000000000E+00  0.59217607796E+02  0.44362520516E+03  0.43965508933E+03 0.  0.
      99925    2    3    3    0    0 -0.95850859176E+01  0.51680710095E+02  0.12121981004E+03  0.29444561255E+03  0.26313723936E+03 0.  0.
         25    1    3    3    0    0  0.95850859176E+01 -0.51680710095E+02 -0.62002202241E+02  0.14917959261E+03  0.12509000000E+03 0.  0.
         25    1    4    4    0    0 -0.26133928085E+02 -0.87236681004E+01  0.65502795884E+02  0.14386524581E+03  0.12509000000E+03 0.  0.
         25    1    4    4    0    0  0.16548842167E+02  0.60404378195E+02  0.55717014152E+02  0.15058036674E+03  0.12509000000E+03 0.  0.
<mgrwt>
<rscale>  2 0.43965509E+03</rscale>
<asrwt>0</asrwt>
<pdfrwt beam="1">  1       21 0.36973736E-01 0.43965509E+03</pdfrwt>
<pdfrwt beam="2">  1       21 0.28265264E-01 0.43965509E+03</pdfrwt>
<totfact> 0.78574833E+04</totfact>
</mgrwt>
</event>
<event>
 6    0  0.4709932E-002  0.4603285E+03  0.7546771E-02  0.1024686E+00
         21   -1    0    0  502  501  0.00000000000E+00  0.00000000000E+00  0.78111322711E+03  0.78111322711E+03  0.00000000000E+00 0. -1.
         21   -1    0    0  501  502 -0.00000000000E+00 -0.00000000000E+00 -0.67820606071E+02  0.67820606071E+02  0.00000000000E+00 0. -1.
      99926    2    1    2    0    0  0.00000000000E+00  0.00000000000E+00  0.71329262104E+03  0.84893383318E+03  0.46032845870E+03 0.  0.
         25    1    3    3    0    0  0.13350505655E+02  0.50262440431E+02  0.17596472160E+03  0.22207125043E+03  0.12509000000E+03 0.  0.
         25    1    3    3    0    0 -0.43219853005E+02  0.31405718342E+02  0.11576025649E+03  0.17861192547E+03  0.12509000000E+03 0.  0.
         25    1    3    3    0    0  0.29869347350E+02 -0.81668158772E+02  0.42156764296E+03  0.44825065729E+03  0.12509000000E+03 0.  0.
<mgrwt>
<rscale>  2 0.46032846E+03</rscale>
<asrwt>0</asrwt>
<pdfrwt beam="1">  1       21 0.11486959E+00 0.46032846E+03</pdfrwt>
<pdfrwt beam="2">  1       21 0.99736190E-02 0.46032846E+03</pdfrwt>
<totfact> 0.43634378E+04</totfact>
</mgrwt>
</event>
<event>
 7    0  0.4709932E-002  0.4593940E+03  0.7546771E-02  0.1024957E+00
         21   -1    0    0  502  501  0.00000000000E+00  0.00000000000E+00  0.74446012584E+02  0.74446012584E+02  0.00000000000E+00 0.  1.
         21   -1    0    0  501  502 -0.00000000000E+00 -0.00000000000E+00 -0.70871112453E+03  0.70871112453E+03  0.00000000000E+00 0.  1.
      99926    2    1    2    0    0  0.00000000000E+00  0.00000000000E+00 -0.63426511195E+03  0.78315713712E+03  0.45939402388E+03 0.  0.
      99925    2    3    3    0    0  0.28914327657E+02  0.93251672994E+02 -0.50842675016E+03  0.58063623879E+03  0.26288546681E+03 0.  0.
         25    1    4    4    0    0  0.31587531603E+02  0.73566005629E+02 -0.21788850514E+03  0.26369042097E+03  0.12509000000E+03 0.  0.
         25    1    3    3    0    0 -0.28914327657E+02 -0.93251672994E+02 -0.12583836179E+03  0.20252089832E+03  0.12509000000E+03 0.  0.
         25    1    4    4    0    0 -0.26732039461E+01  0.19685667365E+02 -0.29053824502E+03  0.31694581783E+03  0.12509000000E+03 0.  0.
<mgrwt>
<rscale>  2 0.45939402E+03</rscale>
<asrwt>0</asrwt>
<pdfrwt beam="1">  1       21 0.10947943E-01 0.45939402E+03</pdfrwt>
<pdfrwt beam="2">  1       21 0.10422223E+00 0.45939402E+03</pdfrwt>
<totfact> 0.46950020E+04</totfact>
</mgrwt>
</event>
<event>
 7    0  0.4709932E-002  0.4517079E+03  0.7546771E-02  0.1027214E+00
         21   -1    0    0  502  501  0.00000000000E+00  0.00000000000E+00  0.63887783974E+03  0.63887783974E+03  0.00000000000E+00 0.  1.
         21   -1    0    0  501  502 -0.00000000000E+00 -0.00000000000E+00 -0.79843139935E+02  0.79843139935E+02  0.00000000000E+00 0.  1.
      99926    2    1    2    0    0  0.00000000000E+00 -0.71054273576E-14  0.55903469980E+03  0.71872097967E+03  0.45170792669E+03 0.  0.
      99925    2    3    3    0    0  0.93947398862E+02  0.36162800382E+02  0.42414193355E+03  0.50901301995E+03  0.26280032876E+03 0.  0.
         25    1    3    3    0    0 -0.93947398862E+02 -0.36162800382E+02  0.13489276625E+03  0.20970795972E+03  0.12509000000E+03 0.  0.
         25    1    4    4    0    0  0.78126064596E+02  0.44865131187E+02  0.25292962682E+03  0.29620510831E+03  0.12509000000E+03 0.  0.
         25    1    4    4    0    0  0.15821334265E+02 -0.87023308049E+01  0.17121230673E+03  0.21280791164E+03  0.12509000000E+03 0.  0.
<mgrwt>
<rscale>  2 0.45170793E+03</rscale>
<asrwt>0</asrwt>
<pdfrwt beam="1">  1       21 0.93952621E-01 0.45170793E+03</pdfrwt>
<pdfrwt beam="2">  1       21 0.11741639E-01 0.45170793E+03</pdfrwt>
<totfact> 0.53264250E+04</totfact>
</mgrwt>
</event>
<event>
 7    0  0.4709932E-002  0.4376824E+03  0.7546771E-02  0.1031460E+00
         21   -1    0    0  502  501  0.00000000000E+00  0.00000000000E+00  0.41810634499E+02  0.41810634499E+02  0.00000000000E+00 0. -1.
         21   -1    0    0  501  502 -0.00000000000E+00 -0.00000000000E+00 -0.11454373689E+04  0.11454373689E+04  0.00000000000E+00 0. -1.
      99926    2    1    2    0    0  0.71054273576E-14  0.00000000000E+00 -0.11036267344E+04  0.11872480034E+04  0.43768236506E+03 0.  0.
      99925    2    3    3    0    0  0.43233748955E+02 -0.85580926140E+02 -0.68246448880E+03  0.73756100426E+03  0.26276454208E+03 0.  0.
         25    1    4    4    0    0  0.57990697930E+02 -0.37839973667E+02 -0.30688711440E+03  0.33855870058E+03  0.12509000000E+03 0.  0.
         25    1    4    4    0    0 -0.14756948974E+02 -0.47740952473E+02 -0.37557737439E+03  0.39900230368E+03  0.12509000000E+03 0.  0.
         25    1    3    3    0    0 -0.43233748955E+02  0.85580926140E+02 -0.42116224558E+03  0.44968699911E+03  0.12509000000E+03 0.  0.
<mgrwt>
<rscale>  2 0.43768237E+03</rscale>
<asrwt>0</asrwt>
<pdfrwt beam="1">  1       21 0.61486226E-02 0.43768237E+03</pdfrwt>
<pdfrwt beam="2">  1       21 0.16844668E+00 0.43768237E+03</pdfrwt>
<totfact> 0.37353661E+04</totfact>
</mgrwt>
</event>
<event>
 7    0  0.4709932E-002  0.4562450E+03  0.7546771E-02  0.1025876E+00
         21   -1    0    0  502  501  0.00000000000E+00  0.00000000000E+00  0.73894985715E+03  0.73894985715E+03  0.00000000000E+00 0. -1.
         21   -1    0    0  501  502 -0.00000000000E+00 -0.00000000000E+00 -0.70424091005E+02  0.70424091005E+02  0.00000000000E+00 0. -1.
      99926    2    1    2    0    0  0.00000000000E+00 -0.14210854715E-13  0.66852576614E+03  0.80937394815E+03  0.45624498677E+03 0.  0.
      99925    2    3    3    0    0  0.67315610833E+02 -0.92283946662E+02  0.42490586160E+03  0.51264868084E+03  0.26308926331E+03 0.  0.
         25    1    4    4    0    0  0.91907891751E+01 -0.79017060686E+02  0.21840989317E+03  0.26396696009E+03  0.12509000000E+03 0.  0.
         25    1    4    4    0    0  0.58124821658E+02 -0.13266885976E+02  0.20649596843E+03  0.24868172075E+03  0.12509000000E+03 0.  0.
         25    1    3    3    0    0 -0.67315610833E+02  0.92283946662E+02  0.24361990454E+03  0.29672526732E+03  0.12509000000E+03 0.  0.
<mgrwt>
<rscale>  2 0.45624499E+03</rscale>
<asrwt>0</asrwt>
<pdfrwt beam="1">  1       21 0.10866909E+00 0.45624499E+03</pdfrwt>
<pdfrwt beam="2">  1       21 0.10356484E-01 0.45624499E+03</pdfrwt>
<totfact> 0.46855299E+04</totfact>
</mgrwt>
</event>
<event>
 7    0  0.4709932E-002  0.4544675E+03  0.7546771E-02  0.1026398E+00
         21   -1    0    0  502  501  0.00000000000E+00  0.00000000000E+00  0.15655847074E+03  0.15655847074E+03  0.00000000000E+00 0. -1.
         21   -1    0    0  501  502 -0.00000000000E+00 -0.00000000000E+00 -0.32981398085E+03  0.32981398085E+03  0.00000000000E+00 0. -1.
      99926    2    1    2    0    0  0.00000000000E+00  0.00000000000E+00 -0.17325551010E+03  0.48637245159E+03  0.45446747946E+03 0.  0.
      99925    2    3    3    0    0 -0.80904193511E+02  0.76875805027E+02 -0.94487804488E+02  0.30115032150E+03  0.26326449251E+03 0.  0.
         25    1    4    4    0    0 -0.19873389186E+02  0.15539767200E+02 -0.74443113843E+02  0.14773530811E+03  0.12509000000E+03 0.  0.
         25    1    3    3    0    0  0.80904193511E+02 -0.76875805027E+02 -0.78767705616E+02  0.18522213009E+03  0.12509000000E+03 0.  0.
         25    1    4    4    0    0 -0.61030804324E+02  0.61336037827E+02 -0.20044690646E+02  0.15341501340E+03  0.12509000000E+03 0.  0.
<mgrwt>
<rscale>  2 0.45446748E+03</rscale>
<asrwt>0</asrwt>
<pdfrwt beam="1">  1       21 0.23023305E-01 0.45446748E+03</pdfrwt>
<pdfrwt beam="2">  1       21 0.48502055E-01 0.45446748E+03</pdfrwt>
<totfact> 0.66519843E+04</totfact>
</mgrwt>
</event>
<event>
 7    0  0.4709932E-002  0.4624733E+03  0.7546771E-02  0.1024066E+00
         21   -1    0    0  502  501  0.00000000000E+00  0.00000000000E+00  0.91029051547E+03  0.91029051547E+03  0.00000000000E+00 0. -1.
         21   -1    0    0  501  502 -0.00000000000E+00 -0.00000000000E+00 -0.58739922888E+02  0.58739922888E+02  0.00000000000E+00 0. -1.
      99926    2    1    2    0    0 -0.35527136788E-14  0.00000000000E+00  0.85155059258E+03  0.96903043835E+03  0.46247332759E+03 0.  0.
      99925    2    3    3    0    0  0.83946242165E+01 -0.35418531044E+02  0.29292879437E+03  0.39541840606E+03  0.26310358269E+03 0.  0.
         25    1    4    4    0    0  0.34121806819E+02 -0.26657777005E+01  0.17981633326E+03  0.22170436594E+03  0.12509000000E+03 0.  0.
         25    1    4    4    0    0 -0.25727182603E+02 -0.32752753343E+02  0.11311246112E+03  0.17371404012E+03  0.12509000000E+03 0.  0.
         25    1    3    3    0    0 -0.83946242165E+01  0.35418531044E+02  0.55862179821E+03  0.57361203229E+03  0.12509000000E+03 0.  0.
<mgrwt>
<rscale>  2 0.46247333E+03</rscale>
<asrwt>0</asrwt>
<pdfrwt beam="1">  1       21 0.13386624E+00 0.46247333E+03</pdfrwt>
<pdfrwt beam="2">  1       21 0.86382245E-02 0.46247333E+03</pdfrwt>
<totfact> 0.38104145E+04</totfact>
</mgrwt>
</event>
<event>
 7    0  0.4709932E-002  0.4592737E+03  0.7546771E-02  0.1024992E+00
         21   -1    0    0  502  501  0.00000000000E+00  0.00000000000E+00  0.75109397355E+02  0.75109397355E+02  0.00000000000E+00 0.  1.
         21   -1    0    0  501  502 -0.00000000000E+00 -0.00000000000E+00 -0.70208357123E+03  0.70208357123E+03  0.00000000000E+00 0.  1.
      99926    2    1    2    0    0 -0.77715611724E-15  0.35527136788E-14 -0.62697417388E+03  0.77719296858E+03  0.45927366103E+03 0.  0.
      99925    2    3    3    0    0  0.98739716971E+00 -0.27633835539E+02 -0.20076204725E+03  0.33214365806E+03  0.26315281901E+03 0.  0.
         25    1    4    4    0    0  0.31250006712E+02 -0.14431487320E+02 -0.13416495000E+03  0.18663486452E+03  0.12509000000E+03 0.  0.
         25    1    3    3    0    0 -0.98739716971E+00  0.27633835539E+02 -0.42621212662E+03  0.44504931052E+03  0.12509000000E+03 0.  0.
         25    1    4    4    0    0 -0.30262609543E+02 -0.13202348219E+02 -0.66597097252E+02  0.14550879354E+03  0.12509000000E+03 0.  0.
<mgrwt>
<rscale>  2 0.45927366E+03</rscale>
<asrwt>0</asrwt>
<pdfrwt beam="1">  1       21 0.11045499E-01 0.45927366E+03</pdfrwt>
<pdfrwt beam="2">  1       21 0.10324759E+00 0.45927366E+03</pdfrwt>
<totfact> 0.47281615E+04</totfact>
</mgrwt>
</event>
<event>
 7    0  0.4709932E-002  0.4428452E+03  0.7546771E-02  0.1029877E+00
         21   -1    0    0  502  501  0.00000000000E+00  0.00000000000E+00  0.14026479309E+03  0.14026479309E+03  0.00000000000E+00 0. -1.
         21   -1    0    0  501  502 -0.00000000000E+00 -0.00000000000E+00 -0.34953865698E+03  0.34953865698E+03  0.00000000000E+00 0. -1.
      99926    2    1    2    0    0  0.35527136788E-14 -0.88817841970E-15 -0.20927386389E+03  0.48980345007E+03  0.44284519822E+03 0.  0.
      99925    2    3    3    0    0 -0.11570623848E+02  0.41525793316E+01 -0.21904627309E+02  0.26418017518E+03  0.26298332459E+03 0.  0.
         25    1    4    4    0    0  0.28718839407E+02  0.20809160182E+02 -0.68740260564E+00  0.13002220390E+03  0.12509000000E+03 0.  0.
         25    1    4    4    0    0 -0.40289463255E+02 -0.16656580851E+02 -0.21217224703E+02  0.13415797128E+03  0.12509000000E+03 0.  0.
         25    1    3    3    0    0  0.11570623848E+02 -0.41525793316E+01 -0.18736923658E+03  0.22562327488E+03  0.12509000000E+03 0.  0.
<mgrwt>
<rscale>  2 0.44284520E+03</rscale>
<asrwt>0</asrwt>
<pdfrwt beam="1">  1       21 0.20627176E-01 0.44284520E+03</pdfrwt>
<pdfrwt beam="2">  1       21 0.51402743E-01 0.44284520E+03</pdfrwt>
<totfact> 0.72764697E+04</totfact>
</mgrwt>
</event>
<event>
 7    0  0.4709932E-002  0.4784436E+03  0.7546771E-02  0.1019564E+00
         21   -1    0    0  502  501  0.00000000000E+00  0.00000000000E+00  0.89660542942E+02  0.89660542942E+02  0.00000000000E+00 0.  1.
         21   -1    0    0  501  502 -0.00000000000E+00 -0.00000000000E+00 -0.63826380224E+03  0.63826380224E+03  0.00000000000E+00 0.  1.
      99926    2    1    2    0    0  0.00000000000E+00  0.00000000000E+00 -0.54860325930E+03  0.72792434518E+03  0.47844363952E+03 0.  0.
      99925    2    3    3    0    0  0.43377653165E+01 -0.55764465767E+02 -0.15335900224E+03  0.30960147623E+03  0.26306957001E+03 0.  0.
         25    1    3    3    0    0 -0.43377653165E+01  0.55764465767E+02 -0.39524425706E+03  0.41832286895E+03  0.12509000000E+03 0.  0.
         25    1    4    4    0    0 -0.37008297604E+02 -0.20258262258E+02 -0.84756399808E+02  0.15687946548E+03  0.12509000000E+03 0.  0.
         25    1    4    4    0    0  0.41346062920E+02 -0.35506203509E+02 -0.68602602429E+02  0.15272201075E+03  0.12509000000E+03 0.  0.
<mgrwt>
<rscale>  2 0.47844364E+03</rscale>
<asrwt>0</asrwt>
<pdfrwt beam="1">  1       21 0.13185374E-01 0.47844364E+03</pdfrwt>
<pdfrwt beam="2">  1       21 0.93862324E-01 0.47844364E+03</pdfrwt>
<totfact> 0.42931411E+04</totfact>
</mgrwt>
</event>
<event>
 7    0  0.4709932E-002  0.4171878E+03  0.7546771E-02  0.1037985E+00
         21   -1    0    0  502  501  0.00000000000E+00  0.00000000000E+00  0.24701438135E+03  0.24701438135E+03  0.00000000000E+00 0.  1.
         21   -1    0    0  501  502 -0.00000000000E+00 -0.00000000000E+00 -0.17614928596E+03  0.17614928596E+03  0.00000000000E+00 0.  1.
      99926    2    1    2    0    0  0.44408920985E-14  0.00000000000E+00  0.70865095387E+02  0.42316366731E+03  0.41718776060E+03 0.  0.
      99925    2    3    3    0    0  0.10149293395E+01  0.62485764710E+02  0.96371033849E+01  0.27051414724E+03  0.26302001678E+03 0.  0.
         25    1    3    3    0    0 -0.10149293395E+01 -0.62485764710E+02  0.61227992003E+02  0.15264952007E+03  0.12509000000E+03 0.  0.
         25    1    4    4    0    0  0.40287424667E+02  0.39552540366E+02  0.44877617187E+01  0.13731397650E+03  0.12509000000E+03 0.  0.
         25    1    4    4    0    0 -0.39272495328E+02  0.22933224343E+02  0.51493416662E+01  0.13320017075E+03  0.12509000000E+03 0.  0.
<mgrwt>
<rscale>  2 0.41718776E+03</rscale>
<asrwt>0</asrwt>
<pdfrwt beam="1">  1       21 0.36325644E-01 0.41718776E+03</pdfrwt>
<pdfrwt beam="2">  1       21 0.25904307E-01 0.41718776E+03</pdfrwt>
<totfact> 0.97080226E+04</totfact>
</mgrwt>
</event>
<event>
 7    0  0.4709932E-002  0.3937647E+03  0.7546771E-02  0.1045960E+00
         21   -1    0    0  502  501  0.00000000000E+00  0.00000000000E+00  0.21527659246E+02  0.21527659246E+02  0.00000000000E+00 0.  1.
         21   -1    0    0  501  502 -0.00000000000E+00 -0.00000000000E+00 -0.18005977548E+04  0.18005977548E+04  0.00000000000E+00 0.  1.
      99926    2    1    2    0    0  0.00000000000E+00  0.00000000000E+00 -0.17790700955E+04  0.18221254140E+04  0.39376467543E+03 0.  0.
      99925    2    3    3    0    0 -0.12838730013E+02 -0.75100299471E+01 -0.13236590879E+04  0.13496130570E+04  0.26298438963E+03 0.  0.
         25    1    4    4    0    0  0.10445541463E+02  0.24985106030E+02 -0.53507289042E+03  0.55016713008E+03  0.12509000000E+03 0.  0.
         25    1    3    3    0    0  0.12838730013E+02  0.75100299471E+01 -0.45541100764E+03  0.47251235700E+03  0.12509000000E+03 0.  0.
         25    1    4    4    0    0 -0.23284271476E+02 -0.32495135977E+02 -0.78858619745E+03  0.79944592692E+03  0.12509000000E+03 0.  0.
<mgrwt>
<rscale>  2 0.39376468E+03</rscale>
<asrwt>0</asrwt>
<pdfrwt beam="1">  1       21 0.31658302E-02 0.39376468E+03</pdfrwt>
<pdfrwt beam="2">  1       21 0.26479396E+00 0.39376468E+03</pdfrwt>
<totfact> 0.27953603E+04</totfact>
</mgrwt>
</event>
<event>
 7    0  0.4709932E-002  0.4536664E+03  0.7546771E-02  0.1026634E+00
         21   -1    0    0  502  501  0.00000000000E+00  0.00000000000E+00  0.77778430405E+02  0.77778430405E+02  0.00000000000E+00 0. -1.
         21   -1    0    0  501  502 -0.00000000000E+00 -0.00000000000E+00 -0.66153694579E+03  0.66153694579E+03  0.00000000000E+00 0. -1.
      99926    2    1    2    0    0  0.14210854715E-13  0.17763568394E-14 -0.58375851539E+03  0.73931537620E+03  0.45366642062E+03 0.  0.
      99925    2    3    3    0    0  0.78630831289E+02  0.96775085708E+01 -0.24040592248E+03  0.36539697206E+03  0.26352130430E+03 0.  0.
         25    1    4    4    0    0  0.44055134829E+02  0.10477139054E+01 -0.17566459060E+03  0.22010794874E+03  0.12509000000E+03 0.  0.
         25    1    4    4    0    0  0.34575696459E+02  0.86297946653E+01 -0.64741331887E+02  0.14528902332E+03  0.12509000000E+03 0.  0.
         25    1    3    3    0    0 -0.78630831289E+02 -0.96775085708E+01 -0.34335259290E+03  0.37391840414E+03  0.12509000000E+03 0.  0.
<mgrwt>
<rscale>  2 0.45366642E+03</rscale>
<asrwt>0</asrwt>
<pdfrwt beam="1">  1       21 0.11438004E-01 0.45366642E+03</pdfrwt>
<pdfrwt beam="2">  1       21 0.97284846E-01 0.45366642E+03</pdfrwt>
<totfact> 0.51356135E+04</totfact>
</mgrwt>
</event>
<event>
 7    0  0.4709932E-002  0.4460309E+03  0.7546771E-02  0.1028912E+00
         21   -1    0    0  502  501  0.00000000000E+00  0.00000000000E+00  0.66434065687E+03  0.66434065687E+03  0.00000000000E+00 0.  1.
         21   -1    0    0  501  502 -0.00000000000E+00 -0.00000000000E+00 -0.74865045595E+02  0.74865045595E+02  0.00000000000E+00 0.  1.
      99926    2    1    2    0    0 -0.35527136788E-14 -0.71054273576E-14  0.58947561128E+03  0.73920570247E+03  0.44603091179E+03 0.  0.
      99925    2    3    3    0    0  0.26986683131E+02  0.38377294735E+02  0.52882210828E+03  0.59248333422E+03  0.26302581871E+03 0.  0.
         25    1    3    3    0    0 -0.26986683131E+02 -0.38377294735E+02  0.60653502997E+02  0.14672236824E+03  0.12509000000E+03 0.  0.
         25    1    4    4    0    0 -0.26155232754E+02  0.28282717482E+02  0.26093528749E+03  0.29192249085E+03  0.12509000000E+03 0.  0.
         25    1    4    4    0    0  0.53141915885E+02  0.10094577253E+02  0.26788682079E+03  0.30056084337E+03  0.12509000000E+03 0.  0.
<mgrwt>
<rscale>  2 0.44603091E+03</rscale>
<asrwt>0</asrwt>
<pdfrwt beam="1">  1       21 0.97697152E-01 0.44603091E+03</pdfrwt>
<pdfrwt beam="2">  1       21 0.11009566E-01 0.44603091E+03</pdfrwt>
<totfact> 0.54572898E+04</totfact>
</mgrwt>
</event>
<event>
 7    0  0.4709932E-002  0.4582828E+03  0.7546771E-02  0.1025280E+00
         21   -1    0    0  502  501  0.00000000000E+00  0.00000000000E+00  0.32758682929E+03  0.32758682929E+03  0.00000000000E+00 0. -1.
         21   -1    0    0  501  502 -0.00000000000E+00 -0.00000000000E+00 -0.16028049056E+03  0.16028049056E+03  0.00000000000E+00 0. -1.
      99926    2    1    2    0    0  0.00000000000E+00 -0.17763568394E-14  0.16730633873E+03  0.48786731984E+03  0.45828278475E+03 0.  0.
      99925    2    3    3    0    0  0.85352509831E+02  0.13335637140E+02  0.23210940552E+02  0.27840638786E+03  0.26364460717E+03 0.  0.
         25    1    4    4    0    0  0.58603902378E+02  0.18076822883E+02 -0.25155219599E+02  0.14156794154E+03  0.12509000000E+03 0.  0.
         25    1    4    4    0    0  0.26748607453E+02 -0.47411857430E+01  0.48366160152E+02  0.13683844632E+03  0.12509000000E+03 0.  0.
         25    1    3    3    0    0 -0.85352509831E+02 -0.13335637140E+02  0.14409539817E+03  0.20946093198E+03  0.12509000000E+03 0.  0.
<mgrwt>
<rscale>  2 0.45828278E+03</rscale>
<asrwt>0</asrwt>
<pdfrwt beam="1">  1       21 0.48174534E-01 0.45828278E+03</pdfrwt>
<pdfrwt beam="2">  1       21 0.23570660E-01 0.45828278E+03</pdfrwt>
<totfact> 0.64436063E+04</totfact>
</mgrwt>
</event>
<event>
 7    0  0.4709932E-002  0.4537128E+03  0.7546771E-02  0.1026621E+00
         21   -1    0    0  502  501  0.00000000000E+00  0.00000000000E+00  0.72574605942E+02  0.72574605942E+02  0.00000000000E+00 0.  1.
         21   -1    0    0  501  502 -0.00000000000E+00 -0.00000000000E+00 -0.70911602266E+03  0.70911602266E+03  0.00000000000E+00 0.  1.
      99926    2    1    2    0    0  0.00000000000E+00  0.00000000000E+00 -0.63654141672E+03  0.78169062860E+03  0.45371275456E+03 0.  0.
      99925    2    3    3    0    0 -0.44538511489E+02 -0.88943072996E+02 -0.31250257544E+03  0.42038296470E+03  0.26300081390E+03 0.  0.
         25    1    3    3    0    0  0.44538511489E+02  0.88943072996E+02 -0.32403884128E+03  0.36130766391E+03  0.12509000000E+03 0.  0.
         25    1    4    4    0    0 -0.13943321562E+02 -0.43682015785E+02 -0.95130545820E+02  0.16370663874E+03  0.12509000000E+03 0.  0.
         25    1    4    4    0    0 -0.30595189927E+02 -0.45261057211E+02 -0.21737202962E+03  0.25667632596E+03  0.12509000000E+03 0.  0.
<mgrwt>
<rscale>  2 0.45371275E+03</rscale>
<asrwt>0</asrwt>
<pdfrwt beam="1">  1       21 0.10672736E-01 0.45371275E+03</pdfrwt>
<pdfrwt beam="2">  1       21 0.10428177E+00 0.45371275E+03</pdfrwt>
<totfact> 0.49158000E+04</totfact>
</mgrwt>
</event>
<event>
 7    0  0.4709932E-002  0.4545071E+03  0.7546771E-02  0.1026386E+00
         21   -1    0    0  502  501  0.00000000000E+00  0.00000000000E+00  0.52771557699E+03  0.52771557699E+03  0.00000000000E+00 0.  1.
         21   -1    0    0  501  502 -0.00000000000E+00 -0.00000000000E+00 -0.97863644037E+02  0.97863644037E+02  0.00000000000E+00 0.  1.
      99926    2    1    2    0    0  0.00000000000E+00  0.00000000000E+00  0.42985193295E+03  0.62557922103E+03  0.45450707092E+03 0.  0.
      99925    2    3    3    0    0 -0.95418090151E+02 -0.32606061527E+02  0.33983883313E+03  0.44141181507E+03  0.26303268011E+03 0.  0.
         25    1    3    3    0    0  0.95418090151E+02  0.32606061527E+02  0.90013099821E+02  0.18416740595E+03  0.12509000000E+03 0.  0.
         25    1    4    4    0    0 -0.71571505787E+02 -0.44859548204E+02  0.15256100928E+03  0.21460948059E+03  0.12509000000E+03 0.  0.
         25    1    4    4    0    0 -0.23846584364E+02  0.12253486678E+02  0.18727782385E+03  0.22680233448E+03  0.12509000000E+03 0.  0.
<mgrwt>
<rscale>  2 0.45450707E+03</rscale>
<asrwt>0</asrwt>
<pdfrwt beam="1">  1       21 0.77605231E-01 0.45450707E+03</pdfrwt>
<pdfrwt beam="2">  1       21 0.14391713E-01 0.45450707E+03</pdfrwt>
<totfact> 0.57353669E+04</totfact>
</mgrwt>
</event>
<event>
 7    0  0.4709932E-002  0.4465801E+03  0.7546771E-02  0.1028747E+00
         21   -1    0    0  502  501  0.00000000000E+00  0.00000000000E+00  0.71069892713E+02  0.71069892713E+02  0.00000000000E+00 0.  1.
         21   -1    0    0  501  502 -0.00000000000E+00 -0.00000000000E+00 -0.70154111011E+03  0.70154111011E+03  0.00000000000E+00 0.  1.
      99926    2    1    2    0    0  0.00000000000E+00 -0.17763568394E-14 -0.63047121740E+03  0.77261100282E+03  0.44658012240E+03 0.  0.
      99925    2    3    3    0    0  0.10451195300E+03  0.12800550245E+02 -0.41593669091E+03  0.50287191859E+03  0.26227892264E+03 0.  0.
         25    1    3    3    0    0 -0.10451195300E+03 -0.12800550245E+02 -0.21453452649E+03  0.26973908423E+03  0.12509000000E+03 0.  0.
         25    1    4    4    0    0  0.67919589223E+02  0.17886716320E+02 -0.27921785135E+03  0.31391578781E+03  0.12509000000E+03 0.  0.
         25    1    4    4    0    0  0.36592363775E+02 -0.50861660744E+01 -0.13671883956E+03  0.18895613079E+03  0.12509000000E+03 0.  0.
<mgrwt>
<rscale>  2 0.44658012E+03</rscale>
<asrwt>0</asrwt>
<pdfrwt beam="1">  1       21 0.10451455E-01 0.44658012E+03</pdfrwt>
<pdfrwt beam="2">  1       21 0.10316781E+00 0.44658012E+03</pdfrwt>
<totfact> 0.52503296E+04</totfact>
</mgrwt>
</event>
<event>
 6    0  0.4709932E-002  0.4559560E+03  0.7546771E-02  0.1025961E+00
         21   -1    0    0  502  501  0.00000000000E+00  0.00000000000E+00  0.17113833170E+03  0.17113833170E+03  0.00000000000E+00 0. -1.
         21   -1    0    0  501  502 -0.00000000000E+00 -0.00000000000E+00 -0.30369571809E+03  0.30369571809E+03  0.00000000000E+00 0. -1.
      99926    2    1    2    0    0  0.00000000000E+00  0.00000000000E+00 -0.13255738638E+03  0.47483404979E+03  0.45595604411E+03 0.  0.
         25    1    3    3    0    0  0.35944355171E+02  0.62821217252E+02 -0.85664138577E+02  0.16800105578E+03  0.12509000000E+03 0.  0.
         25    1    3    3    0    0 -0.89304543490E+02 -0.40740885597E+02 -0.56443024803E+02  0.16872594464E+03  0.12509000000E+03 0.  0.
         25    1    3    3    0    0  0.53360188319E+02 -0.22080331655E+02  0.95497769976E+01  0.13810704936E+03  0.12509000000E+03 0.  0.
<mgrwt>
<rscale>  2 0.45595604E+03</rscale>
<asrwt>0</asrwt>
<pdfrwt beam="1">  1       21 0.25167402E-01 0.45595604E+03</pdfrwt>
<pdfrwt beam="2">  1       21 0.44661134E-01 0.45595604E+03</pdfrwt>
<totfact> 0.66571629E+04</totfact>
</mgrwt>
</event>
<event>
 7    0  0.4709932E-002  0.4584866E+03  0.7546771E-02  0.1025221E+00
         21   -1    0    0  502  501  0.00000000000E+00  0.00000000000E+00  0.10540917804E+04  0.10540917804E+04  0.00000000000E+00 0. -1.
         21   -1    0    0  501  502 -0.00000000000E+00 -0.00000000000E+00 -0.49855706400E+02  0.49855706400E+02  0.00000000000E+00 0. -1.
      99926    2    1    2    0    0  0.00000000000E+00  0.44408920985E-15  0.10042360740E+04  0.11039474868E+04  0.45848659881E+03 0.  0.
      99925    2    3    3    0    0  0.23287655686E+02 -0.29813310392E+01  0.90449404596E+03  0.94224657926E+03  0.26299797282E+03 0.  0.
         25    1    4    4    0    0  0.12072811874E+02  0.30590526907E+02  0.36262535532E+03  0.38500154486E+03  0.12509000000E+03 0.  0.
         25    1    4    4    0    0  0.11214843812E+02 -0.33571857947E+02  0.54186869064E+03  0.55724503440E+03  0.12509000000E+03 0.  0.
         25    1    3    3    0    0 -0.23287655686E+02  0.29813310392E+01  0.99742028041E+02  0.16170090754E+03  0.12509000000E+03 0.  0.
<mgrwt>
<rscale>  2 0.45848660E+03</rscale>
<asrwt>0</asrwt>
<pdfrwt beam="1">  1       21 0.15501348E+00 0.45848660E+03</pdfrwt>
<pdfrwt beam="2">  1       21 0.73317222E-02 0.45848660E+03</pdfrwt>
<totfact> 0.34412099E+04</totfact>
</mgrwt>
</event>
<event>
 7    0  0.4709932E-002  0.4577203E+03  0.7546771E-02  0.1025444E+00
         21   -1    0    0  502  501  0.00000000000E+00  0.00000000000E+00  0.64429106604E+02  0.64429106604E+02  0.00000000000E+00 0. -1.
         21   -1    0    0  501  502 -0.00000000000E+00 -0.00000000000E+00 -0.81293956689E+03  0.81293956689E+03  0.00000000000E+00 0. -1.
      99926    2    1    2    0    0  0.00000000000E+00  0.00000000000E+00 -0.74851046029E+03  0.87736867350E+03  0.45772030769E+03 0.  0.
      99925    2    3    3    0    0  0.78517762882E+02 -0.54390228876E+02 -0.59541661405E+03  0.65780417285E+03  0.26279659332E+03 0.  0.
         25    1    4    4    0    0  0.29453624247E+02 -0.44146263385E+02 -0.38153405606E+03  0.40500883025E+03  0.12509000000E+03 0.  0.
         25    1    3    3    0    0 -0.78517762882E+02  0.54390228876E+02 -0.15309384625E+03  0.21956450064E+03  0.12509000000E+03 0.  0.
         25    1    4    4    0    0  0.49064138635E+02 -0.10243965491E+02 -0.21388255799E+03  0.25279534260E+03  0.12509000000E+03 0.  0.
<mgrwt>
<rscale>  2 0.45772031E+03</rscale>
<asrwt>0</asrwt>
<pdfrwt beam="1">  1       21 0.94748687E-02 0.45772031E+03</pdfrwt>
<pdfrwt beam="2">  1       21 0.11954994E+00 0.45772031E+03</pdfrwt>
<totfact> 0.43296799E+04</totfact>
</mgrwt>
</event>
<event>
 7    0  0.4709932E-002  0.4551841E+03  0.7546771E-02  0.1026187E+00
         21   -1    0    0  502  501  0.00000000000E+00  0.00000000000E+00  0.31557366015E+03  0.31557366015E+03  0.00000000000E+00 0.  1.
         21   -1    0    0  501  502 -0.00000000000E+00 -0.00000000000E+00 -0.16413961861E+03  0.16413961861E+03  0.00000000000E+00 0.  1.
      99926    2    1    2    0    0  0.00000000000E+00  0.00000000000E+00  0.15143404154E+03  0.47971327876E+03  0.45518409559E+03 0.  0.
      99925    2    3    3    0    0 -0.72491768811E+02  0.54397144112E+02  0.16661895164E+03  0.32449667066E+03  0.26329091969E+03 0.  0.
         25    1    3    3    0    0  0.72491768811E+02 -0.54397144112E+02 -0.15184910097E+02  0.15521660809E+03  0.12509000000E+03 0.  0.
         25    1    4    4    0    0 -0.33568403645E+02 -0.94607693988E+01  0.10172992097E+03  0.16496311346E+03  0.12509000000E+03 0.  0.
         25    1    4    4    0    0 -0.38923365166E+02  0.63857913511E+02  0.64889030673E+02  0.15953355721E+03  0.12509000000E+03 0.  0.
<mgrwt>
<rscale>  2 0.45518410E+03</rscale>
<asrwt>0</asrwt>
<pdfrwt beam="1">  1       21 0.46407891E-01 0.45518410E+03</pdfrwt>
<pdfrwt beam="2">  1       21 0.24138179E-01 0.45518410E+03</pdfrwt>
<totfact> 0.66623568E+04</totfact>
</mgrwt>
</event>
<event>
 7    0  0.4709932E-002  0.4639733E+03  0.7546771E-02  0.1023635E+00
         21   -1    0    0  502  501  0.00000000000E+00  0.00000000000E+00  0.13203757692E+03  0.13203757692E+03  0.00000000000E+00 0.  1.
         21   -1    0    0  501  502 -0.00000000000E+00 -0.00000000000E+00 -0.40759468829E+03  0.40759468829E+03  0.00000000000E+00 0.  1.
      99926    2    1    2    0    0  0.00000000000E+00  0.00000000000E+00 -0.27555711137E+03  0.53963226521E+03  0.46397333978E+03 0.  0.
      99925    2    3    3    0    0  0.70019209992E+02 -0.94751277132E+02 -0.20646128293E+03  0.35442363719E+03  0.26288658954E+03 0.  0.
         25    1    3    3    0    0 -0.70019209992E+02  0.94751277132E+02 -0.69095828446E+02  0.18520862802E+03  0.12509000000E+03 0.  0.
         25    1    4    4    0    0  0.44176525119E+02 -0.80997101614E+01 -0.10890412947E+03  0.17182778644E+03  0.12509000000E+03 0.  0.
         25    1    4    4    0    0  0.25842684873E+02 -0.86651566971E+02 -0.97557153462E+02  0.18259585075E+03  0.12509000000E+03 0.  0.
<mgrwt>
<rscale>  2 0.46397334E+03</rscale>
<asrwt>0</asrwt>
<pdfrwt beam="1">  1       21 0.19417291E-01 0.46397334E+03</pdfrwt>
<pdfrwt beam="2">  1       21 0.59940395E-01 0.46397334E+03</pdfrwt>
<totfact> 0.58301391E+04</totfact>
</mgrwt>
</event>
<event>
 7    0  0.4709932E-002  0.4561559E+03  0.7546771E-02  0.1025902E+00
         21   -1    0    0  502  501  0.00000000000E+00  0.00000000000E+00  0.22779574108E+03  0.22779574108E+03  0.00000000000E+00 0. -1.
         21   -1    0    0  501  502 -0.00000000000E+00 -0.00000000000E+00 -0.22836048430E+03  0.22836048430E+03  0.00000000000E+00 0. -1.
      99926    2    1    2    0    0  0.17763568394E-14  0.00000000000E+00 -0.56474321829E+00  0.45615622539E+03  0.45615587580E+03 0.  0.
      99925    2    3    3    0    0  0.88769704494E+01  0.64779555469E+02 -0.93918874669E+02  0.28692947404E+03  0.26312084038E+03 0.  0.
         25    1    4    4    0    0 -0.31468917610E+02  0.51540070511E+02 -0.52386271039E+02  0.14845370031E+03  0.12509000000E+03 0.  0.
         25    1    4    4    0    0  0.40345888059E+02  0.13239484958E+02 -0.41532603631E+02  0.13847577373E+03  0.12509000000E+03 0.  0.
         25    1    3    3    0    0 -0.88769704494E+01 -0.64779555469E+02  0.93354131451E+02  0.16922675134E+03  0.12509000000E+03 0.  0.
<mgrwt>
<rscale>  2 0.45615588E+03</rscale>
<asrwt>0</asrwt>
<pdfrwt beam="1">  1       21 0.33499374E-01 0.45615588E+03</pdfrwt>
<pdfrwt beam="2">  1       21 0.33582424E-01 0.45615588E+03</pdfrwt>
<totfact> 0.67833400E+04</totfact>
</mgrwt>
</event>
<event>
 7    0  0.4709932E-002  0.4496125E+03  0.7546771E-02  0.1027838E+00
         21   -1    0    0  502  501  0.00000000000E+00  0.00000000000E+00  0.28827786893E+03  0.28827786893E+03  0.00000000000E+00 0. -1.
         21   -1    0    0  501  502 -0.00000000000E+00 -0.00000000000E+00 -0.17530949807E+03  0.17530949807E+03  0.00000000000E+00 0. -1.
      99926    2    1    2    0    0  0.00000000000E+00  0.00000000000E+00  0.11296837086E+03  0.46358736700E+03  0.44961249318E+03 0.  0.
      99925    2    3    3    0    0  0.89005054720E+02  0.48140880403E+01  0.10425878383E+02  0.27890508287E+03  0.26407247319E+03 0.  0.
         25    1    3    3    0    0 -0.89005054720E+02 -0.48140880403E+01  0.10254249248E+03  0.18468228413E+03  0.12509000000E+03 0.  0.
         25    1    4    4    0    0  0.85060434283E+02  0.11026262853E+01 -0.11825243102E+02  0.15173607923E+03  0.12509000000E+03 0.  0.
         25    1    4    4    0    0  0.39446204367E+01  0.37114617550E+01  0.22251121485E+02  0.12716900364E+03  0.12509000000E+03 0.  0.
<mgrwt>
<rscale>  2 0.44961249E+03</rscale>
<asrwt>0</asrwt>
<pdfrwt beam="1">  1       21 0.42393804E-01 0.44961249E+03</pdfrwt>
<pdfrwt beam="2">  1       21 0.25780808E-01 0.44961249E+03</pdfrwt>
<totfact> 0.70897492E+04</totfact>
</mgrwt>
</event>
<event>
 7    0  0.4709932E-002  0.4493924E+03  0.7546771E-02  0.1027903E+00
         21   -1    0    0  502  501  0.00000000000E+00  0.00000000000E+00  0.18812846598E+03  0.18812846598E+03  0.00000000000E+00 0. -1.
         21   -1    0    0  501  502 -0.00000000000E+00 -0.00000000000E+00 -0.26837184982E+03  0.26837184982E+03  0.00000000000E+00 0. -1.
      99926    2    1    2    0    0  0.00000000000E+00  0.00000000000E+00 -0.80243383843E+02  0.45650031580E+03  0.44939240945E+03 0.  0.
      99925    2    3    3    0    0  0.40313788795E+02 -0.66038868752E+02 -0.12734503992E+03  0.30205806815E+03  0.26274699540E+03 0.  0.
         25    1    3    3    0    0 -0.40313788795E+02  0.66038868752E+02  0.47101656075E+02  0.15444224765E+03  0.12509000000E+03 0.  0.
         25    1    4    4    0    0 -0.57433985871E+00 -0.17052591319E+01 -0.78270117202E+02  0.14757017694E+03  0.12509000000E+03 0.  0.
         25    1    4    4    0    0  0.40888128653E+02 -0.64333609620E+02 -0.49074922717E+02  0.15448789121E+03  0.12509000000E+03 0.  0.
<mgrwt>
<rscale>  2 0.44939241E+03</rscale>
<asrwt>0</asrwt>
<pdfrwt beam="1">  1       21 0.27665951E-01 0.44939241E+03</pdfrwt>
<pdfrwt beam="2">  1       21 0.39466448E-01 0.44939241E+03</pdfrwt>
<totfact> 0.71583913E+04</totfact>
</mgrwt>
</event>
<event>
 7    0  0.4709932E-002  0.4100120E+03  0.7546771E-02  0.1040367E+00
         21   -1    0    0  502  501  0.00000000000E+00  0.00000000000E+00  0.10817218161E+03  0.10817218161E+03  0.00000000000E+00 0.  1.
         21   -1    0    0  501  502 -0.00000000000E+00 -0.00000000000E+00 -0.38852365235E+03  0.38852365235E+03  0.00000000000E+00 0.  1.
      99926    2    1    2    0    0  0.00000000000E+00  0.00000000000E+00 -0.28035147074E+03  0.49669583396E+03  0.41001195633E+03 0.  0.
      99925    2    3    3    0    0  0.21589121518E+02 -0.34153950896E+01 -0.11376246918E+03  0.28722708061E+03  0.26283025197E+03 0.  0.
         25    1    4    4    0    0 -0.29336738584E+02 -0.10568897924E+01 -0.50314290004E+02  0.13798839489E+03  0.12509000000E+03 0.  0.
         25    1    4    4    0    0  0.50925860102E+02 -0.23585052972E+01 -0.63448179180E+02  0.14923868572E+03  0.12509000000E+03 0.  0.
         25    1    3    3    0    0 -0.21589121518E+02  0.34153950896E+01 -0.16658900155E+03  0.20946875335E+03  0.12509000000E+03 0.  0.
<mgrwt>
<rscale>  2 0.41001196E+03</rscale>
<asrwt>0</asrwt>
<pdfrwt beam="1">  1       21 0.15907674E-01 0.41001196E+03</pdfrwt>
<pdfrwt beam="2">  1       21 0.57135831E-01 0.41001196E+03</pdfrwt>
<totfact> 0.95189125E+04</totfact>
</mgrwt>
</event>
<event>
 7    0  0.4709932E-002  0.4534624E+03  0.7546771E-02  0.1026695E+00
         21   -1    0    0  502  501  0.00000000000E+00  0.00000000000E+00  0.76748891567E+02  0.76748891567E+02  0.00000000000E+00 0. -1.
         21   -1    0    0  501  502 -0.00000000000E+00 -0.00000000000E+00 -0.66980824990E+03  0.66980824990E+03  0.00000000000E+00 0. -1.
      99926    2    1    2    0    0  0.00000000000E+00  0.35527136788E-14 -0.59305935833E+03  0.74655714146E+03  0.45346241627E+03 0.  0.
      99925    2    3    3    0    0  0.65820316685E+02 -0.10229032369E+02 -0.22586717890E+03  0.35296528188E+03  0.26292881265E+03 0.  0.
         25    1    4    4    0    0  0.43920682025E+02  0.26340043399E+02 -0.84297801083E+02  0.15929987936E+03  0.12509000000E+03 0.  0.
         25    1    3    3    0    0 -0.65820316685E+02  0.10229032369E+02 -0.36719217943E+03  0.39359185958E+03  0.12509000000E+03 0.  0.
         25    1    4    4    0    0  0.21899634660E+02 -0.36569075768E+02 -0.14156937781E+03  0.19366540253E+03  0.12509000000E+03 0.  0.
<mgrwt>
<rscale>  2 0.45346242E+03</rscale>
<asrwt>0</asrwt>
<pdfrwt beam="1">  1       21 0.11286601E-01 0.45346242E+03</pdfrwt>
<pdfrwt beam="2">  1       21 0.98501216E-01 0.45346242E+03</pdfrwt>
<totfact> 0.51061334E+04</totfact>
</mgrwt>
</event>
<event>
 7    0  0.4709932E-002  0.4463538E+03  0.7546771E-02  0.1028815E+00
         21   -1    0    0  502  501  0.00000000000E+00  0.00000000000E+00  0.11319433351E+03  0.11319433351E+03  0.00000000000E+00 0. -1.
         21   -1    0    0  501  502 -0.00000000000E+00 -0.00000000000E+00 -0.44002142360E+03  0.44002142360E+03  0.00000000000E+00 0. -1.
      99926    2    1    2    0    0 -0.88817841970E-15  0.00000000000E+00 -0.32682709010E+03  0.55321575711E+03  0.44635381381E+03 0.  0.
      99925    2    3    3    0    0  0.29031624426E+01  0.41311344439E+02 -0.32674607522E+03  0.42144865122E+03  0.26294659612E+03 0.  0.
         25    1    3    3    0    0 -0.29031624426E+01 -0.41311344439E+02 -0.81014874843E-01  0.13176710589E+03  0.12509000000E+03 0.  0.
         25    1    4    4    0    0 -0.80142208165E+01  0.19167122846E+02 -0.22521616171E+03  0.25845973367E+03  0.12509000000E+03 0.  0.
         25    1    4    4    0    0  0.10917383259E+02  0.22144221593E+02 -0.10152991351E+03  0.16298891755E+03  0.12509000000E+03 0.  0.
<mgrwt>
<rscale>  2 0.44635381E+03</rscale>
<asrwt>0</asrwt>
<pdfrwt beam="1">  1       21 0.16646225E-01 0.44635381E+03</pdfrwt>
<pdfrwt beam="2">  1       21 0.64709033E-01 0.44635381E+03</pdfrwt>
<totfact> 0.66058352E+04</totfact>
</mgrwt>
</event>
<event>
 7    0  0.4709932E-002  0.4538906E+03  0.7546771E-02  0.1026568E+00
         21   -1    0    0  502  501  0.00000000000E+00  0.00000000000E+00  0.19122884964E+04  0.19122884964E+04  0.00000000000E+00 0.  1.
         21   -1    0    0  501  502 -0.00000000000E+00 -0.00000000000E+00 -0.26933267785E+02  0.26933267785E+02  0.00000000000E+00 0.  1.
      99926    2    1    2    0    0  0.14210854715E-13 -0.88817841970E-15  0.18853552287E+04  0.19392217642E+04  0.45389063950E+03 0.  0.
      99925    2    3    3    0    0 -0.76773424018E+02  0.74749869935E+01  0.15357390413E+04  0.15599737970E+04  0.26281896882E+03 0.  0.
         25    1    4    4    0    0 -0.58880833754E+02  0.23928265894E+02  0.96753333688E+03  0.97765422342E+03  0.12509000000E+03 0.  0.
         25    1    4    4    0    0 -0.17892590264E+02 -0.16453278900E+02  0.56820570437E+03  0.58231957356E+03  0.12509000000E+03 0.  0.
         25    1    3    3    0    0  0.76773424018E+02 -0.74749869935E+01  0.34961618741E+03  0.37924796725E+03  0.12509000000E+03 0.  0.
<mgrwt>
<rscale>  2 0.45389064E+03</rscale>
<asrwt>0</asrwt>
<pdfrwt beam="1">  1       21 0.28121880E+00 0.45389064E+03</pdfrwt>
<pdfrwt beam="2">  1       21 0.39607760E-02 0.45389064E+03</pdfrwt>
<totfact> 0.14855171E+04</totfact>
</mgrwt>
</event>
<event>
 7    0  0.4709932E-002  0.4533121E+03  0.7546771E-02  0.1026739E+00
         21   -1    0    0  502  501  0.00000000000E+00  0.00000000000E+00  0.76966481164E+02  0.76966481164E+02  0.00000000000E+00 0.  1.
         21   -1    0    0  501  502 -0.00000000000E+00 -0.00000000000E+00 -0.66747187051E+03  0.66747187051E+03  0.00000000000E+00 0.  1.
      99926    2    1    2    0    0  0.14210854715E-13  0.00000000000E+00 -0.59050538934E+03  0.74443835167E+03  0.45331208300E+03 0.  0.
      99925    2    3    3    0    0 -0.87262927982E+02 -0.54068486649E+02 -0.44400940857E+03  0.52615688125E+03  0.26298001622E+03 0.  0.
         25    1    3    3    0    0  0.87262927982E+02  0.54068486649E+02 -0.14649598077E+03  0.21828147042E+03  0.12509000000E+03 0.  0.
         25    1    4    4    0    0 -0.15781745524E+02 -0.46332650265E+01 -0.24466877037E+03  0.27528321040E+03  0.12509000000E+03 0.  0.
         25    1    4    4    0    0 -0.71481182458E+02 -0.49435221623E+02 -0.19934063821E+03  0.25087367084E+03  0.12509000000E+03 0.  0.
<mgrwt>
<rscale>  2 0.45331208E+03</rscale>
<asrwt>0</asrwt>
<pdfrwt beam="1">  1       21 0.11318601E-01 0.45331208E+03</pdfrwt>
<pdfrwt beam="2">  1       21 0.98157622E-01 0.45331208E+03</pdfrwt>
<totfact> 0.51232128E+04</totfact>
</mgrwt>
</event>
<event>
 7    0  0.4709932E-002  0.4522551E+03  0.7546771E-02  0.1027052E+00
         21   -1    0    0  502  501  0.00000000000E+00  0.00000000000E+00  0.25651188753E+03  0.25651188753E+03  0.00000000000E+00 0. -1.
         21   -1    0    0  501  502 -0.00000000000E+00 -0.00000000000E+00 -0.19934225952E+03  0.19934225952E+03  0.00000000000E+00 0. -1.
      99926    2    1    2    0    0  0.00000000000E+00  0.35527136788E-14  0.57169628003E+02  0.45585414705E+03  0.45225505748E+03 0.  0.
      99925    2    3    3    0    0  0.69182066932E+02  0.26855180798E+02  0.11868422439E+03  0.29793355691E+03  0.26300399254E+03 0.  0.
         25    1    4    4    0    0  0.10321733837E+01  0.28939223162E+02  0.76031135679E+02  0.14922059413E+03  0.12509000000E+03 0.  0.
         25    1    4    4    0    0  0.68149893549E+02 -0.20840423633E+01  0.42653088715E+02  0.14871296278E+03  0.12509000000E+03 0.  0.
         25    1    3    3    0    0 -0.69182066932E+02 -0.26855180798E+02 -0.61514596390E+02  0.15792059014E+03  0.12509000000E+03 0.  0.
<mgrwt>
<rscale>  2 0.45225506E+03</rscale>
<asrwt>0</asrwt>
<pdfrwt beam="1">  1       21 0.37722337E-01 0.45225506E+03</pdfrwt>
<pdfrwt beam="2">  1       21 0.29315038E-01 0.45225506E+03</pdfrwt>
<totfact> 0.70003657E+04</totfact>
</mgrwt>
</event>
<event>
 7    0  0.4709932E-002  0.4589632E+03  0.7546771E-02  0.1025082E+00
         21   -1    0    0  502  501  0.00000000000E+00  0.00000000000E+00  0.17945561464E+04  0.17945561464E+04  0.00000000000E+00 0. -1.
         21   -1    0    0  501  502 -0.00000000000E+00 -0.00000000000E+00 -0.29345312632E+02  0.29345312632E+02  0.00000000000E+00 0. -1.
      99926    2    1    2    0    0  0.00000000000E+00  0.00000000000E+00  0.17652108338E+04  0.18239014591E+04  0.45896322795E+03 0.  0.
      99925    2    3    3    0    0 -0.87201086469E+02 -0.59744401518E+02  0.90793052846E+03  0.95111829412E+03  0.26289682748E+03 0.  0.
         25    1    3    3    0    0  0.87201086469E+02  0.59744401518E+02  0.85728030534E+03  0.87278316495E+03  0.12509000000E+03 0.  0.
         25    1    4    4    0    0 -0.58803499920E+02 -0.51007686014E+02  0.59131850874E+03  0.60939701551E+03  0.12509000000E+03 0.  0.
         25    1    4    4    0    0 -0.28397586550E+02 -0.87367155045E+01  0.31661201972E+03  0.34172127861E+03  0.12509000000E+03 0.  0.
<mgrwt>
<rscale>  2 0.45896323E+03</rscale>
<asrwt>0</asrwt>
<pdfrwt beam="1">  1       21 0.26390524E+00 0.45896323E+03</pdfrwt>
<pdfrwt beam="2">  1       21 0.43154883E-02 0.45896323E+03</pdfrwt>
<totfact> 0.16297481E+04</totfact>
</mgrwt>
</event>
<event>
 7    0  0.4709932E-002  0.4393399E+03  0.7546771E-02  0.1030950E+00
         21   -1    0    0  502  501  0.00000000000E+00  0.00000000000E+00  0.10687256636E+03  0.10687256636E+03  0.00000000000E+00 0.  1.
         21   -1    0    0  501  502 -0.00000000000E+00 -0.00000000000E+00 -0.45151792866E+03  0.45151792866E+03  0.00000000000E+00 0.  1.
      99926    2    1    2    0    0  0.71054273576E-14  0.00000000000E+00 -0.34464536230E+03  0.55839049502E+03  0.43933986750E+03 0.  0.
      99925    2    3    3    0    0  0.39803335221E+02  0.74735106853E+01 -0.10700678905E+03  0.28680301657E+03  0.26299307700E+03 0.  0.
         25    1    4    4    0    0  0.26547099252E+02 -0.27869621612E+02 -0.79963284912E+02  0.15337242034E+03  0.12509000000E+03 0.  0.
         25    1    4    4    0    0  0.13256235969E+02  0.35343132298E+02 -0.27043504137E+02  0.13343059622E+03  0.12509000000E+03 0.  0.
         25    1    3    3    0    0 -0.39803335221E+02 -0.74735106853E+01 -0.23763857325E+03  0.27158747845E+03  0.12509000000E+03 0.  0.
<mgrwt>
<rscale>  2 0.43933987E+03</rscale>
<asrwt>0</asrwt>
<pdfrwt beam="1">  1       21 0.15716554E-01 0.43933987E+03</pdfrwt>
<pdfrwt beam="2">  1       21 0.66399695E-01 0.43933987E+03</pdfrwt>
<totfact> 0.69537067E+04</totfact>
</mgrwt>
</event>
<event>
 7    0  0.4709932E-002  0.4578419E+03  0.7546771E-02  0.1025409E+00
         21   -1    0    0  502  501  0.00000000000E+00  0.00000000000E+00  0.30398410240E+03  0.30398410240E+03  0.00000000000E+00 0.  1.
         21   -1    0    0  501  502 -0.00000000000E+00 -0.00000000000E+00 -0.17239320680E+03  0.17239320680E+03  0.00000000000E+00 0.  1.
      99926    2    1    2    0    0  0.00000000000E+00  0.00000000000E+00  0.13159089560E+03  0.47637730920E+03  0.45784186890E+03 0.  0.
      99925    2    3    3    0    0  0.95410024719E+02  0.57804726321E+02  0.11485358972E+03  0.30793709812E+03  0.26303887569E+03 0.  0.
         25    1    4    4    0    0  0.64354157665E+02  0.38103051723E+02  0.99908217870E+02  0.17669878397E+03  0.12509000000E+03 0.  0.
         25    1    4    4    0    0  0.31055867055E+02  0.19701674598E+02  0.14945371850E+02  0.13123831415E+03  0.12509000000E+03 0.  0.
         25    1    3    3    0    0 -0.95410024719E+02 -0.57804726321E+02  0.16737305882E+02  0.16844021108E+03  0.12509000000E+03 0.  0.
<mgrwt>
<rscale>  2 0.45784187E+03</rscale>
<asrwt>0</asrwt>
<pdfrwt beam="1">  1       21 0.44703545E-01 0.45784187E+03</pdfrwt>
<pdfrwt beam="2">  1       21 0.25351942E-01 0.45784187E+03</pdfrwt>
<totfact> 0.65475649E+04</totfact>
</mgrwt>
</event>
<event>
 7    0  0.4709932E-002  0.4571285E+03  0.7546771E-02  0.1025617E+00
         21   -1    0    0  502  501  0.00000000000E+00  0.00000000000E+00  0.23568619516E+03  0.23568619516E+03  0.00000000000E+00 0. -1.
         21   -1    0    0  501  502 -0.00000000000E+00 -0.00000000000E+00 -0.22165754557E+03  0.22165754557E+03  0.00000000000E+00 0. -1.
      99926    2    1    2    0    0  0.00000000000E+00  0.88817841970E-15  0.14028649587E+02  0.45734374073E+03  0.45712853135E+03 0.  0.
      99925    2    3    3    0    0 -0.35436835961E+02  0.39703532810E+01  0.11798831055E+03  0.29083052127E+03  0.26341909123E+03 0.  0.
         25    1    4    4    0    0 -0.22502318368E+02  0.88756917777E+01  0.10349562194E+03  0.16414622779E+03  0.12509000000E+03 0.  0.
         25    1    3    3    0    0  0.35436835961E+02 -0.39703532810E+01 -0.10395966096E+03  0.16651321946E+03  0.12509000000E+03 0.  0.
         25    1    4    4    0    0 -0.12934517594E+02 -0.49053384966E+01  0.14492688610E+02  0.12668429348E+03  0.12509000000E+03 0.  0.
<mgrwt>
<rscale>  2 0.45712853E+03</rscale>
<asrwt>0</asrwt>
<pdfrwt beam="1">  1       21 0.34659735E-01 0.45712853E+03</pdfrwt>
<pdfrwt beam="2">  1       21 0.32596698E-01 0.45712853E+03</pdfrwt>
<totfact> 0.67225452E+04</totfact>
</mgrwt>
</event>
<event>
 7    0  0.4709932E-002  0.4468232E+03  0.7546771E-02  0.1028674E+00
         21   -1    0    0  502  501  0.00000000000E+00  0.00000000000E+00  0.27298504331E+02  0.27298504331E+02  0.00000000000E+00 0. -1.
         21   -1    0    0  501  502 -0.00000000000E+00 -0.00000000000E+00 -0.18284058354E+04  0.18284058354E+04  0.00000000000E+00 0. -1.
      99926    2    1    2    0    0  0.17763568394E-14  0.00000000000E+00 -0.18011073311E+04  0.18557043398E+04  0.44682320717E+03 0.  0.
      99925    2    3    3    0    0 -0.88762047442E+01  0.96471283327E+02 -0.97080129629E+03  0.10104581537E+04  0.26303046967E+03 0.  0.
         25    1    3    3    0    0  0.88762047442E+01 -0.96471283327E+02 -0.83030603480E+03  0.84524618606E+03  0.12509000000E+03 0.  0.
         25    1    4    4    0    0 -0.41041162832E+02  0.30129605978E+02 -0.47727853206E+03  0.49601862411E+03  0.12509000000E+03 0.  0.
         25    1    4    4    0    0  0.32164958088E+02  0.66341677350E+02 -0.49352276423E+03  0.51443952959E+03  0.12509000000E+03 0.  0.
<mgrwt>
<rscale>  2 0.44682321E+03</rscale>
<asrwt>0</asrwt>
<pdfrwt beam="1">  1       21 0.40144853E-02 0.44682321E+03</pdfrwt>
<pdfrwt beam="2">  1       21 0.26888325E+00 0.44682321E+03</pdfrwt>
<totfact> 0.17283102E+04</totfact>
</mgrwt>
</event>
<event>
 7    0  0.4709932E-002  0.4573930E+03  0.7546771E-02  0.1025540E+00
         21   -1    0    0  502  501  0.00000000000E+00  0.00000000000E+00  0.20319391899E+03  0.20319391899E+03  0.00000000000E+00 0. -1.
         21   -1    0    0  501  502 -0.00000000000E+00 -0.00000000000E+00 -0.25739984493E+03  0.25739984493E+03  0.00000000000E+00 0. -1.
      99926    2    1    2    0    0  0.00000000000E+00  0.00000000000E+00 -0.54205925937E+02  0.46059376392E+03  0.45739297432E+03 0.  0.
      99925    2    3    3    0    0 -0.93755915396E+02 -0.63479525253E+02 -0.56491478147E+02  0.29185564242E+03  0.26299925307E+03 0.  0.
         25    1    3    3    0    0  0.93755915396E+02  0.63479525253E+02  0.22855522100E+01  0.16873812150E+03  0.12509000000E+03 0.  0.
         25    1    4    4    0    0 -0.28235872750E+02  0.50779225107E+01 -0.13153036069E+02  0.12900992313E+03  0.12509000000E+03 0.  0.
         25    1    4    4    0    0 -0.65520042646E+02 -0.68557447764E+02 -0.43338442078E+02  0.16284571930E+03  0.12509000000E+03 0.  0.
<mgrwt>
<rscale>  2 0.45739297E+03</rscale>
<asrwt>0</asrwt>
<pdfrwt beam="1">  1       21 0.29881459E-01 0.45739297E+03</pdfrwt>
<pdfrwt beam="2">  1       21 0.37852918E-01 0.45739297E+03</pdfrwt>
<totfact> 0.66852318E+04</totfact>
</mgrwt>
</event>
<event>
 7    0  0.4709932E-002  0.4446654E+03  0.7546771E-02  0.1029325E+00
         21   -1    0    0  502  501  0.00000000000E+00  0.00000000000E+00  0.57558507595E+02  0.57558507595E+02  0.00000000000E+00 0.  1.
         21   -1    0    0  501  502 -0.00000000000E+00 -0.00000000000E+00 -0.85881017339E+03  0.85881017339E+03  0.00000000000E+00 0.  1.
      99926    2    1    2    0    0  0.35527136788E-14  0.00000000000E+00 -0.80125166580E+03  0.91636868099E+03  0.44466541079E+03 0.  0.
      99925    2    3    3    0    0 -0.28884525042E+02  0.13832030735E+02 -0.30724836385E+03  0.40576863076E+03  0.26309880987E+03 0.  0.
         25    1    3    3    0    0  0.28884525042E+02 -0.13832030735E+02 -0.49400330194E+03  0.51060005023E+03  0.12509000000E+03 0.  0.
         25    1    4    4    0    0 -0.45698273019E+02 -0.19195508040E+02 -0.15326986476E+03  0.20395087455E+03  0.12509000000E+03 0.  0.
         25    1    4    4    0    0  0.16813747977E+02  0.33027538775E+02 -0.15397849909E+03  0.20181775621E+03  0.12509000000E+03 0.  0.
<mgrwt>
<rscale>  2 0.44466541E+03</rscale>
<asrwt>0</asrwt>
<pdfrwt beam="1">  1       21 0.84644873E-02 0.44466541E+03</pdfrwt>
<pdfrwt beam="2">  1       21 0.12629560E+00 0.44466541E+03</pdfrwt>
<totfact> 0.46153329E+04</totfact>
</mgrwt>
</event>
<event>
 7    0  0.4709932E-002  0.4426202E+03  0.7546771E-02  0.1029946E+00
         21   -1    0    0  502  501  0.00000000000E+00  0.00000000000E+00  0.56013587579E+03  0.56013587579E+03  0.00000000000E+00 0.  1.
         21   -1    0    0  501  502 -0.00000000000E+00 -0.00000000000E+00 -0.87439768989E+02  0.87439768989E+02  0.00000000000E+00 0.  1.
      99926    2    1    2    0    0  0.00000000000E+00 -0.71054273576E-14  0.47269610680E+03  0.64757564478E+03  0.44262016032E+03 0.  0.
      99925    2    3    3    0    0  0.86262898484E+02 -0.43475606106E+02  0.25700843611E+03  0.38018062731E+03  0.26296873800E+03 0.  0.
         25    1    4    4    0    0  0.45522269753E+02  0.16448779519E+02  0.14310840315E+03  0.19613863093E+03  0.12509000000E+03 0.  0.
         25    1    4    4    0    0  0.40740628731E+02 -0.59924385625E+02  0.11390003296E+03  0.18404199638E+03  0.12509000000E+03 0.  0.
         25    1    3    3    0    0 -0.86262898484E+02  0.43475606106E+02  0.21568767068E+03  0.26739501747E+03  0.12509000000E+03 0.  0.
<mgrwt>
<rscale>  2 0.44262016E+03</rscale>
<asrwt>0</asrwt>
<pdfrwt beam="1">  1       21 0.82372921E-01 0.44262016E+03</pdfrwt>
<pdfrwt beam="2">  1       21 0.12858790E-01 0.44262016E+03</pdfrwt>
<totfact> 0.61644348E+04</totfact>
</mgrwt>
</event>
<event>
 7    0  0.4709932E-002  0.4540270E+03  0.7546771E-02  0.1026528E+00
         21   -1    0    0  502  501  0.00000000000E+00  0.00000000000E+00  0.19979362443E+03  0.19979362443E+03  0.00000000000E+00 0.  1.
         21   -1    0    0  501  502 -0.00000000000E+00 -0.00000000000E+00 -0.25794177193E+03  0.25794177193E+03  0.00000000000E+00 0.  1.
      99926    2    1    2    0    0  0.00000000000E+00 -0.71054273576E-14 -0.58148147497E+02  0.45773539635E+03  0.45402696618E+03 0.  0.
      99925    2    3    3    0    0 -0.74112276925E+02 -0.56612927914E+02 -0.99277597162E+02  0.29637619170E+03  0.26322072963E+03 0.  0.
         25    1    4    4    0    0 -0.26352320413E+02  0.11205360002E+02 -0.57200384357E+02  0.14049696422E+03  0.12509000000E+03 0.  0.
         25    1    4    4    0    0 -0.47759956512E+02 -0.67818287916E+02 -0.42077212805E+02  0.15587922748E+03  0.12509000000E+03 0.  0.
         25    1    3    3    0    0  0.74112276925E+02  0.56612927914E+02  0.41129449666E+02  0.16135920466E+03  0.12509000000E+03 0.  0.
<mgrwt>
<rscale>  2 0.45402697E+03</rscale>
<asrwt>0</asrwt>
<pdfrwt beam="1">  1       21 0.29381416E-01 0.45402697E+03</pdfrwt>
<pdfrwt beam="2">  1       21 0.37932613E-01 0.45402697E+03</pdfrwt>
<totfact> 0.68878839E+04</totfact>
</mgrwt>
</event>
<event>
 7    0  0.4709932E-002  0.4537149E+03  0.7546771E-02  0.1026620E+00
         21   -1    0    0  502  501  0.00000000000E+00  0.00000000000E+00  0.26274983364E+02  0.26274983364E+02  0.00000000000E+00 0. -1.
         21   -1    0    0  501  502 -0.00000000000E+00 -0.00000000000E+00 -0.19586808505E+04  0.19586808505E+04  0.00000000000E+00 0. -1.
      99926    2    1    2    0    0 -0.35527136788E-14  0.00000000000E+00 -0.19324058672E+04  0.19849558339E+04  0.45371491826E+03 0.  0.
      99925    2    3    3    0    0 -0.30980456300E+02  0.88848921897E+02 -0.95266378050E+03  0.99278851732E+03  0.26307193285E+03 0.  0.
         25    1    3    3    0    0  0.30980456300E+02 -0.88848921897E+02 -0.97974208665E+03  0.99216731656E+03  0.12509000000E+03 0.  0.
         25    1    4    4    0    0  0.29103358798E+01  0.64332706462E+01 -0.45827182820E+03  0.47508992164E+03  0.12509000000E+03 0.  0.
         25    1    4    4    0    0 -0.33890792180E+02  0.82415651251E+02 -0.49439195230E+03  0.51769859568E+03  0.12509000000E+03 0.  0.
<mgrwt>
<rscale>  2 0.45371492E+03</rscale>
<asrwt>0</asrwt>
<pdfrwt beam="1">  1       21 0.38639671E-02 0.45371492E+03</pdfrwt>
<pdfrwt beam="2">  1       21 0.28804138E+00 0.45371492E+03</pdfrwt>
<totfact> 0.14096996E+04</totfact>
</mgrwt>
</event>
<event>
 7    0  0.4709932E-002  0.4539858E+03  0.7546771E-02  0.1026540E+00
         21   -1    0    0  502  501  0.00000000000E+00  0.00000000000E+00  0.73088381236E+03  0.73088381236E+03  0.00000000000E+00 0. -1.
         21   -1    0    0  501  502 -0.00000000000E+00 -0.00000000000E+00 -0.70497910117E+02  0.70497910117E+02  0.00000000000E+00 0. -1.
      99926    2    1    2    0    0  0.00000000000E+00  0.00000000000E+00  0.66038590224E+03  0.80138172248E+03  0.45398582053E+03 0.  0.
      99925    2    3    3    0    0 -0.33555122832E+02  0.99774539067E+02  0.34752031890E+03  0.44837565135E+03  0.26303887119E+03 0.  0.
         25    1    4    4    0    0 -0.15037576576E+02  0.83733482755E+02  0.22811580854E+03  0.27371838639E+03  0.12509000000E+03 0.  0.
         25    1    3    3    0    0  0.33555122832E+02 -0.99774539067E+02  0.31286558334E+03  0.35300607113E+03  0.12509000000E+03 0.  0.
         25    1    4    4    0    0 -0.18517546256E+02  0.16041056312E+02  0.11940451037E+03  0.17465726496E+03  0.12509000000E+03 0.  0.
<mgrwt>
<rscale>  2 0.45398582E+03</rscale>
<asrwt>0</asrwt>
<pdfrwt beam="1">  1       21 0.10748291E+00 0.45398582E+03</pdfrwt>
<pdfrwt beam="2">  1       21 0.10367340E-01 0.45398582E+03</pdfrwt>
<totfact> 0.48079573E+04</totfact>
</mgrwt>
</event>
<event>
 7    0  0.4709932E-002  0.4562498E+03  0.7546771E-02  0.1025875E+00
         21   -1    0    0  502  501  0.00000000000E+00  0.00000000000E+00  0.30335782363E+03  0.30335782363E+03  0.00000000000E+00 0. -1.
         21   -1    0    0  501  502 -0.00000000000E+00 -0.00000000000E+00 -0.17154980447E+03  0.17154980447E+03  0.00000000000E+00 0. -1.
      99926    2    1    2    0    0 -0.14210854715E-13  0.00000000000E+00  0.13180801916E+03  0.47490762810E+03  0.45624982335E+03 0.  0.
      99925    2    3    3    0    0  0.81571815678E+02  0.79887104142E+02  0.92309626484E+02  0.30100092424E+03  0.26276335120E+03 0.  0.
         25    1    3    3    0    0 -0.81571815678E+02 -0.79887104142E+02  0.39498392680E+02  0.17390670385E+03  0.12509000000E+03 0.  0.
         25    1    4    4    0    0  0.38152087513E+02  0.40938102668E+02  0.38996786043E+01  0.13709203341E+03  0.12509000000E+03 0.  0.
         25    1    4    4    0    0  0.43419728165E+02  0.38949001474E+02  0.88409947880E+02  0.16390889083E+03  0.12509000000E+03 0.  0.
<mgrwt>
<rscale>  2 0.45624982E+03</rscale>
<asrwt>0</asrwt>
<pdfrwt beam="1">  1       21 0.44611445E-01 0.45624982E+03</pdfrwt>
<pdfrwt beam="2">  1       21 0.25227912E-01 0.45624982E+03</pdfrwt>
<totfact> 0.66411599E+04</totfact>
</mgrwt>
</event>
<event>
 7    0  0.4709932E-002  0.4909005E+03  0.7546771E-02  0.1016182E+00
         21   -1    0    0  502  501  0.00000000000E+00  0.00000000000E+00  0.40333874934E+03  0.40333874934E+03  0.00000000000E+00 0. -1.
         21   -1    0    0  501  502 -0.00000000000E+00 -0.00000000000E+00 -0.14936779014E+03  0.14936779014E+03  0.00000000000E+00 0. -1.
      99926    2    1    2    0    0  0.71054273576E-14  0.00000000000E+00  0.25397095920E+03  0.55270653948E+03  0.49090046921E+03 0.  0.
      99925    2    3    3    0    0  0.51505219933E+02  0.10450345941E+03  0.25095414722E+03  0.38173762428E+03  0.26300545447E+03 0.  0.
         25    1    4    4    0    0 -0.31412829830E+01  0.66437743257E+02  0.15821868456E+03  0.21237820423E+03  0.12509000000E+03 0.  0.
         25    1    3    3    0    0 -0.51505219933E+02 -0.10450345941E+03  0.30168119853E+01  0.17096891520E+03  0.12509000000E+03 0.  0.
         25    1    4    4    0    0  0.54646502916E+02  0.38065716151E+02  0.92735462654E+02  0.16935942005E+03  0.12509000000E+03 0.  0.
<mgrwt>
<rscale>  2 0.49090047E+03</rscale>
<asrwt>0</asrwt>
<pdfrwt beam="1">  1       21 0.59314522E-01 0.49090047E+03</pdfrwt>
<pdfrwt beam="2">  1       21 0.21965852E-01 0.49090047E+03</pdfrwt>
<totfact> 0.46870150E+04</totfact>
</mgrwt>
</event>
<event>
 7    0  0.4709932E-002  0.4310888E+03  0.7546771E-02  0.1033517E+00
         21   -1    0    0  502  501  0.00000000000E+00  0.00000000000E+00  0.87401885039E+02  0.87401885039E+02  0.00000000000E+00 0. -1.
         21   -1    0    0  501  502 -0.00000000000E+00 -0.00000000000E+00 -0.53156040787E+03  0.53156040787E+03  0.00000000000E+00 0. -1.
      99926    2    1    2    0    0  0.00000000000E+00  0.14210854715E-13 -0.44415852283E+03  0.61896229291E+03  0.43108876886E+03 0.  0.
      99925    2    3    3    0    0 -0.50849862692E+02 -0.71090069288E+02 -0.26174380772E+03  0.38113432383E+03  0.26289550288E+03 0.  0.
         25    1    4    4    0    0 -0.25987948659E+02 -0.76728122678E+02 -0.13137185870E+03  0.19866718814E+03  0.12509000000E+03 0.  0.
         25    1    4    4    0    0 -0.24861914032E+02  0.56380533898E+01 -0.13037194902E+03  0.18246713569E+03  0.12509000000E+03 0.  0.
         25    1    3    3    0    0  0.50849862692E+02  0.71090069288E+02 -0.18241471510E+03  0.23782796907E+03  0.12509000000E+03 0.  0.
<mgrwt>
<rscale>  2 0.43108877E+03</rscale>
<asrwt>0</asrwt>
<pdfrwt beam="1">  1       21 0.12853219E-01 0.43108877E+03</pdfrwt>
<pdfrwt beam="2">  1       21 0.78170645E-01 0.43108877E+03</pdfrwt>
<totfact> 0.69798974E+04</totfact>
</mgrwt>
</event>
<event>
 7    0  0.4709932E-002  0.4689743E+03  0.7546771E-02  0.1022210E+00
         21   -1    0    0  502  501  0.00000000000E+00  0.00000000000E+00  0.32099389035E+03  0.32099389035E+03  0.00000000000E+00 0. -1.
         21   -1    0    0  501  502 -0.00000000000E+00 -0.00000000000E+00 -0.17129364167E+03  0.17129364167E+03  0.00000000000E+00 0. -1.
      99926    2    1    2    0    0  0.00000000000E+00  0.00000000000E+00  0.14970024868E+03  0.49228753203E+03  0.46897425274E+03 0.  0.
      99925    2    3    3    0    0  0.10596292865E+03 -0.56319178919E+02  0.13291252702E+03  0.31813435847E+03  0.26295196907E+03 0.  0.
         25    1    4    4    0    0  0.61966819367E+02 -0.68414248071E+02  0.62960290559E+02  0.16772567582E+03  0.12509000000E+03 0.  0.
         25    1    3    3    0    0 -0.10596292865E+03  0.56319178919E+02  0.16787721662E+02  0.17415317356E+03  0.12509000000E+03 0.  0.
         25    1    4    4    0    0  0.43996109287E+02  0.12095069153E+02  0.69952236460E+02  0.15040868265E+03  0.12509000000E+03 0.  0.
<mgrwt>
<rscale>  2 0.46897425E+03</rscale>
<asrwt>0</asrwt>
<pdfrwt beam="1">  1       21 0.47204984E-01 0.46897425E+03</pdfrwt>
<pdfrwt beam="2">  1       21 0.25190241E-01 0.46897425E+03</pdfrwt>
<totfact> 0.58995033E+04</totfact>
</mgrwt>
</event>
<event>
 7    0  0.4709932E-002  0.4460734E+03  0.7546771E-02  0.1028899E+00
         21   -1    0    0  502  501  0.00000000000E+00  0.00000000000E+00  0.12163196394E+04  0.12163196394E+04  0.00000000000E+00 0.  1.
         21   -1    0    0  501  502 -0.00000000000E+00 -0.00000000000E+00 -0.40898275090E+02  0.40898275090E+02  0.00000000000E+00 0.  1.
      99926    2    1    2    0    0  0.14210854715E-13 -0.71054273576E-14  0.11754213644E+04  0.12572179145E+04  0.44607342540E+03 0.  0.
      99925    2    3    3    0    0  0.95943483811E+02 -0.39734401306E+02  0.71160970940E+03  0.76573776834E+03  0.26302466921E+03 0.  0.
         25    1    4    4    0    0  0.83595319694E+02 -0.13501853681E+01  0.34927373398E+03  0.38030205077E+03  0.12509000000E+03 0.  0.
         25    1    4    4    0    0  0.12348164117E+02 -0.38384215938E+02  0.36233597543E+03  0.38543571757E+03  0.12509000000E+03 0.  0.
         25    1    3    3    0    0 -0.95943483811E+02  0.39734401306E+02  0.46381165495E+03  0.49148014619E+03  0.12509000000E+03 0.  0.
<mgrwt>
<rscale>  2 0.44607343E+03</rscale>
<asrwt>0</asrwt>
<pdfrwt beam="1">  1       21 0.17887051E+00 0.44607343E+03</pdfrwt>
<pdfrwt beam="2">  1       21 0.60144530E-02 0.44607343E+03</pdfrwt>
<totfact> 0.32588516E+04</totfact>
</mgrwt>
</event>
<event>
 7    0  0.4709932E-002  0.4582391E+03  0.7546771E-02  0.1025293E+00
         21   -1    0    0  502  501  0.00000000000E+00  0.00000000000E+00  0.53913525303E+03  0.53913525303E+03  0.00000000000E+00 0.  1.
         21   -1    0    0  501  502 -0.00000000000E+00 -0.00000000000E+00 -0.97370303188E+02  0.97370303188E+02  0.00000000000E+00 0.  1.
      99926    2    1    2    0    0  0.14210854715E-13  0.00000000000E+00  0.44176494984E+03  0.63650555621E+03  0.45823907754E+03 0.  0.
      99925    2    3    3    0    0 -0.75628496741E+02 -0.84492940667E+02  0.31284825231E+03  0.42407733412E+03  0.26288558309E+03 0.  0.
         25    1    4    4    0    0 -0.19985660910E+02 -0.44475258932E+02  0.98113605751E+02  0.16628668928E+03  0.12509000000E+03 0.  0.
         25    1    4    4    0    0 -0.55642835831E+02 -0.40017681735E+02  0.21473464656E+03  0.25779064484E+03  0.12509000000E+03 0.  0.
         25    1    3    3    0    0  0.75628496741E+02  0.84492940667E+02  0.12891669753E+03  0.21242822210E+03  0.12509000000E+03 0.  0.
<mgrwt>
<rscale>  2 0.45823908E+03</rscale>
<asrwt>0</asrwt>
<pdfrwt beam="1">  1       21 0.79284595E-01 0.45823908E+03</pdfrwt>
<pdfrwt beam="2">  1       21 0.14319162E-01 0.45823908E+03</pdfrwt>
<totfact> 0.55064406E+04</totfact>
</mgrwt>
</event>
<event>
 7    0  0.4709932E-002  0.4613935E+03  0.7546771E-02  0.1024378E+00
         21   -1    0    0  502  501  0.00000000000E+00  0.00000000000E+00  0.25850765283E+03  0.25850765283E+03  0.00000000000E+00 0.  1.
         21   -1    0    0  501  502 -0.00000000000E+00 -0.00000000000E+00 -0.20587784425E+03  0.20587784425E+03  0.00000000000E+00 0.  1.
      99926    2    1    2    0    0 -0.14210854715E-13  0.71054273576E-14  0.52629808584E+02  0.46438549708E+03  0.46139353392E+03 0.  0.
      99925    2    3    3    0    0 -0.84596008587E+02  0.49216931798E+02 -0.34721071294E+02  0.28312194487E+03  0.26338886049E+03 0.  0.
         25    1    4    4    0    0 -0.83497608589E+02  0.21680890324E+02 -0.72825414558E+01  0.15212644463E+03  0.12509000000E+03 0.  0.
         25    1    3    3    0    0  0.84596008587E+02 -0.49216931798E+02  0.87350879878E+02  0.18126355221E+03  0.12509000000E+03 0.  0.
         25    1    4    4    0    0 -0.10983999988E+01  0.27536041474E+02 -0.27438529838E+02  0.13099550024E+03  0.12509000000E+03 0.  0.
<mgrwt>
<rscale>  2 0.46139353E+03</rscale>
<asrwt>0</asrwt>
<pdfrwt beam="1">  1       21 0.38015831E-01 0.46139353E+03</pdfrwt>
<pdfrwt beam="2">  1       21 0.30276153E-01 0.46139353E+03</pdfrwt>
<totfact> 0.64509533E+04</totfact>
</mgrwt>
</event>
<event>
 7    0  0.4709932E-002  0.4295838E+03  0.7546771E-02  0.1033992E+00
         21   -1    0    0  502  501  0.00000000000E+00  0.00000000000E+00  0.52922822913E+02  0.52922822913E+02  0.00000000000E+00 0. -1.
         21   -1    0    0  501  502 -0.00000000000E+00 -0.00000000000E+00 -0.87175184677E+03  0.87175184677E+03  0.00000000000E+00 0. -1.
      99926    2    1    2    0    0  0.00000000000E+00  0.00000000000E+00 -0.81882902386E+03  0.92467466969E+03  0.42958383867E+03 0.  0.
      99925    2    3    3    0    0 -0.19958311204E+02 -0.71504477438E+02 -0.42990817889E+03  0.50944201655E+03  0.26305684076E+03 0.  0.
         25    1    3    3    0    0  0.19958311204E+02  0.71504477438E+02 -0.38892084497E+03  0.41523265314E+03  0.12509000000E+03 0.  0.
         25    1    4    4    0    0 -0.17028276743E+00 -0.45542780732E+01 -0.24892786658E+03  0.27862763916E+03  0.12509000000E+03 0.  0.
         25    1    4    4    0    0 -0.19788028436E+02 -0.66950199365E+02 -0.18098031231E+03  0.23081437739E+03  0.12509000000E+03 0.  0.
<mgrwt>
<rscale>  2 0.42958384E+03</rscale>
<asrwt>0</asrwt>
<pdfrwt beam="1">  1       21 0.77827680E-02 0.42958384E+03</pdfrwt>
<pdfrwt beam="2">  1       21 0.12819880E+00 0.42958384E+03</pdfrwt>
<totfact> 0.51726596E+04</totfact>
</mgrwt>
</event>
<event>
 7    0  0.4709932E-002  0.4504952E+03  0.7546771E-02  0.1027574E+00
         21   -1    0    0  502  501  0.00000000000E+00  0.00000000000E+00  0.52823060293E+03  0.52823060293E+03  0.00000000000E+00 0.  1.
         21   -1    0    0  501  502 -0.00000000000E+00 -0.00000000000E+00 -0.96049876773E+02  0.96049876773E+02  0.00000000000E+00 0.  1.
      99926    2    1    2    0    0  0.00000000000E+00  0.00000000000E+00  0.43218072615E+03  0.62428047970E+03  0.45049521338E+03 0.  0.
      99925    2    3    3    0    0  0.68890857573E+02 -0.61817364683E+02  0.35237582216E+03  0.44939861204E+03  0.26310274729E+03 0.  0.
         25    1    4    4    0    0  0.60329092693E+02 -0.25305394993E+02  0.13216718175E+03  0.19337950892E+03  0.12509000000E+03 0.  0.
         25    1    3    3    0    0 -0.68890857573E+02  0.61817364683E+02  0.79804903991E+02  0.17488186766E+03  0.12509000000E+03 0.  0.
         25    1    4    4    0    0  0.85617648804E+01 -0.36511969691E+02  0.22020864042E+03  0.25601910312E+03  0.12509000000E+03 0.  0.
<mgrwt>
<rscale>  2 0.45049521E+03</rscale>
<asrwt>0</asrwt>
<pdfrwt beam="1">  1       21 0.77680970E-01 0.45049521E+03</pdfrwt>
<pdfrwt beam="2">  1       21 0.14124982E-01 0.45049521E+03</pdfrwt>
<totfact> 0.59288804E+04</totfact>
</mgrwt>
</event>
<event>
 6    0  0.4709932E-002  0.4503444E+03  0.7546771E-02  0.1027619E+00
         21   -1    0    0  502  501  0.00000000000E+00  0.00000000000E+00  0.24128583831E+03  0.24128583831E+03  0.00000000000E+00 0. -1.
         21   -1    0    0  501  502 -0.00000000000E+00 -0.00000000000E+00 -0.21013463821E+03  0.21013463821E+03  0.00000000000E+00 0. -1.
      99926    2    1    2    0    0  0.14210854715E-13  0.16653345369E-14  0.31151200106E+02  0.45142047652E+03  0.45034436751E+03 0.  0.
         25    1    3    3    0    0  0.35623903994E+02  0.37260815065E+02 -0.24654459060E+02  0.13752374823E+03  0.12509000000E+03 0.  0.
         25    1    3    3    0    0 -0.98639878335E+02  0.44852222495E+00  0.23915272810E+01  0.15932122982E+03  0.12509000000E+03 0.  0.
         25    1    3    3    0    0  0.63015974341E+02 -0.37709337290E+02  0.53414131885E+02  0.15457549847E+03  0.12509000000E+03 0.  0.
<mgrwt>
<rscale>  2 0.45034437E+03</rscale>
<asrwt>0</asrwt>
<pdfrwt beam="1">  1       21 0.35483212E-01 0.45034437E+03</pdfrwt>
<pdfrwt beam="2">  1       21 0.30902153E-01 0.45034437E+03</pdfrwt>
<totfact> 0.71425398E+04</totfact>
</mgrwt>
</event>
<event>
 7    0  0.4709932E-002  0.4845334E+03  0.7546771E-02  0.1017897E+00
         21   -1    0    0  502  501  0.00000000000E+00  0.00000000000E+00  0.26738107464E+03  0.26738107464E+03  0.00000000000E+00 0.  1.
         21   -1    0    0  501  502 -0.00000000000E+00 -0.00000000000E+00 -0.21951126015E+03  0.21951126015E+03  0.00000000000E+00 0.  1.
      99926    2    1    2    0    0  0.00000000000E+00  0.00000000000E+00  0.47869814494E+02  0.48689233479E+03  0.48453341117E+03 0.  0.
      99925    2    3    3    0    0  0.12916605971E+03 -0.22735690967E+02  0.75617236042E+02  0.30353964153E+03  0.26309231264E+03 0.  0.
         25    1    4    4    0    0  0.29257050534E+02  0.10944509280E+02  0.18459378139E+02  0.13024597510E+03  0.12509000000E+03 0.  0.
         25    1    3    3    0    0 -0.12916605971E+03  0.22735690967E+02 -0.27747421548E+02  0.18335269326E+03  0.12509000000E+03 0.  0.
         25    1    4    4    0    0  0.99909009177E+02 -0.33680200246E+02  0.57157857903E+02  0.17329366643E+03  0.12509000000E+03 0.  0.
<mgrwt>
<rscale>  2 0.48453341E+03</rscale>
<asrwt>0</asrwt>
<pdfrwt beam="1">  1       21 0.39320746E-01 0.48453341E+03</pdfrwt>
<pdfrwt beam="2">  1       21 0.32281068E-01 0.48453341E+03</pdfrwt>
<totfact> 0.52710606E+04</totfact>
</mgrwt>
</event>
<event>
 7    0  0.4709932E-002  0.4596243E+03  0.7546771E-02  0.1024890E+00
         21   -1    0    0  502  501  0.00000000000E+00  0.00000000000E+00  0.77734422784E+02  0.77734422784E+02  0.00000000000E+00 0. -1.
         21   -1    0    0  501  502 -0.00000000000E+00 -0.00000000000E+00 -0.67941090921E+03  0.67941090921E+03  0.00000000000E+00 0. -1.
      99926    2    1    2    0    0  0.00000000000E+00  0.00000000000E+00 -0.60167648643E+03  0.75714533200E+03  0.45962425898E+03 0.  0.
      99925    2    3    3    0    0  0.57414289017E+02  0.21219801910E+02 -0.54220562945E+03  0.60571557433E+03  0.26297857670E+03 0.  0.
         25    1    3    3    0    0 -0.57414289017E+02 -0.21219801910E+02 -0.59470856978E+02  0.15142975766E+03  0.12509000000E+03 0.  0.
         25    1    4    4    0    0  0.25312528676E+02  0.32186017696E+02 -0.34965466144E+03  0.37360748682E+03  0.12509000000E+03 0.  0.
         25    1    4    4    0    0  0.32101760341E+02 -0.10966215786E+02 -0.19255096801E+03  0.23210808751E+03  0.12509000000E+03 0.  0.
<mgrwt>
<rscale>  2 0.45962426E+03</rscale>
<asrwt>0</asrwt>
<pdfrwt beam="1">  1       21 0.11431533E-01 0.45962426E+03</pdfrwt>
<pdfrwt beam="2">  1       21 0.99913366E-01 0.45962426E+03</pdfrwt>
<totfact> 0.48134696E+04</totfact>
</mgrwt>
</event>
<event>
 7    0  0.4709932E-002  0.4570195E+03  0.7546771E-02  0.1025649E+00
         21   -1    0    0  502  501  0.00000000000E+00  0.00000000000E+00  0.51301868531E+03  0.51301868531E+03  0.00000000000E+00 0.  1.
         21   -1    0    0  501  502 -0.00000000000E+00 -0.00000000000E+00 -0.10178324210E+03  0.10178324210E+03  0.00000000000E+00 0.  1.
      99926    2    1    2    0    0  0.00000000000E+00  0.00000000000E+00  0.41123544321E+03  0.61480192741E+03  0.45701949650E+03 0.  0.
      99925    2    3    3    0    0 -0.82959563326E+02  0.35585933479E+02  0.35420349125E+03  0.45033673518E+03  0.26304831121E+03 0.  0.
         25    1    4    4    0    0 -0.47722251965E+02  0.55388038200E+02  0.21085632149E+03  0.25583812171E+03  0.12509000000E+03 0.  0.
         25    1    3    3    0    0  0.82959563326E+02 -0.35585933479E+02  0.57031951965E+02  0.16446519223E+03  0.12509000000E+03 0.  0.
         25    1    4    4    0    0 -0.35237311361E+02 -0.19802104721E+02  0.14334716976E+03  0.19449861347E+03  0.12509000000E+03 0.  0.
<mgrwt>
<rscale>  2 0.45701950E+03</rscale>
<asrwt>0</asrwt>
<pdfrwt beam="1">  1       21 0.75443923E-01 0.45701950E+03</pdfrwt>
<pdfrwt beam="2">  1       21 0.14968124E-01 0.45701950E+03</pdfrwt>
<totfact> 0.56863894E+04</totfact>
</mgrwt>
</event>
<event>
 7    0  0.4709932E-002  0.4593372E+03  0.7546771E-02  0.1024974E+00
         21   -1    0    0  502  501  0.00000000000E+00  0.00000000000E+00  0.13778769936E+03  0.13778769936E+03  0.00000000000E+00 0.  1.
         21   -1    0    0  501  502 -0.00000000000E+00 -0.00000000000E+00 -0.38281845927E+03  0.38281845927E+03  0.00000000000E+00 0.  1.
      99926    2    1    2    0    0  0.00000000000E+00  0.00000000000E+00 -0.24503075991E+03  0.52060615864E+03  0.45933723898E+03 0.  0.
      99925    2    3    3    0    0  0.10090298535E+03  0.59583525603E+02 -0.15411212812E+03  0.32658215321E+03  0.26300902225E+03 0.  0.
         25    1    4    4    0    0  0.45401361124E+02  0.33619371941E+02 -0.31068248407E+02  0.14072771554E+03  0.12509000000E+03 0.  0.
         25    1    3    3    0    0 -0.10090298535E+03 -0.59583525603E+02 -0.90918631786E+02  0.19402400543E+03  0.12509000000E+03 0.  0.
         25    1    4    4    0    0  0.55501624228E+02  0.25964153662E+02 -0.12304387972E+03  0.18585443767E+03  0.12509000000E+03 0.  0.
<mgrwt>
<rscale>  2 0.45933724E+03</rscale>
<asrwt>0</asrwt>
<pdfrwt beam="1">  1       21 0.20262897E-01 0.45933724E+03</pdfrwt>
<pdfrwt beam="2">  1       21 0.56296831E-01 0.45933724E+03</pdfrwt>
<totfact> 0.61695375E+04</totfact>
</mgrwt>
</event>
<event>
 7    0  0.4709932E-002  0.4535362E+03  0.7546771E-02  0.1026673E+00
         21   -1    0    0  502  501  0.00000000000E+00  0.00000000000E+00  0.35455320623E+03  0.35455320623E+03  0.00000000000E+00 0. -1.
         21   -1    0    0  501  502 -0.00000000000E+00 -0.00000000000E+00 -0.14503825348E+03  0.14503825348E+03  0.00000000000E+00 0. -1.
      99926    2    1    2    0    0  0.00000000000E+00  0.00000000000E+00  0.20951495275E+03  0.49959145972E+03  0.45353622920E+03 0.  0.
      99925    2    3    3    0    0  0.98053420795E+02 -0.51492007245E+02  0.14958756617E+03  0.32209582624E+03  0.26287521981E+03 0.  0.
         25    1    4    4    0    0  0.84964416050E+02 -0.37899730125E+02  0.10502605549E+03  0.18797159884E+03  0.12509000000E+03 0.  0.
         25    1    3    3    0    0 -0.98053420795E+02  0.51492007245E+02  0.59927386580E+02  0.17749563347E+03  0.12509000000E+03 0.  0.
         25    1    4    4    0    0  0.13089004745E+02 -0.13592277120E+02  0.44561510684E+02  0.13412422740E+03  0.12509000000E+03 0.  0.
<mgrwt>
<rscale>  2 0.45353623E+03</rscale>
<asrwt>0</asrwt>
<pdfrwt beam="1">  1       21 0.52140177E-01 0.45353623E+03</pdfrwt>
<pdfrwt beam="2">  1       21 0.21329155E-01 0.45353623E+03</pdfrwt>
<totfact> 0.66063662E+04</totfact>
</mgrwt>
</event>
<event>
 7    0  0.4709932E-002  0.4529748E+03  0.7546771E-02  0.1026839E+00
         21   -1    0    0  502  501  0.00000000000E+00  0.00000000000E+00  0.42623543864E+02  0.42623543864E+02  0.00000000000E+00 0. -1.
         21   -1    0    0  501  502 -0.00000000000E+00 -0.00000000000E+00 -0.12034788089E+04  0.12034788089E+04  0.00000000000E+00 0. -1.
      99926    2    1    2    0    0  0.00000000000E+00  0.00000000000E+00 -0.11608552650E+04  0.12461023527E+04  0.45297475338E+03 0.  0.
      99925    2    3    3    0    0 -0.57134162655E+02  0.73369643440E+02 -0.56361709852E+03  0.62885981311E+03  0.26296960599E+03 0.  0.
         25    1    4    4    0    0 -0.88428386642E+01  0.61351832640E+02 -0.34420201370E+03  0.37143610150E+03  0.12509000000E+03 0.  0.
         25    1    4    4    0    0 -0.48291323991E+02  0.12017810800E+02 -0.21941508483E+03  0.25742371161E+03  0.12509000000E+03 0.  0.
         25    1    3    3    0    0  0.57134162655E+02 -0.73369643440E+02 -0.59723816649E+03  0.61724253963E+03  0.12509000000E+03 0.  0.
<mgrwt>
<rscale>  2 0.45297475E+03</rscale>
<asrwt>0</asrwt>
<pdfrwt beam="1">  1       21 0.62681680E-02 0.45297475E+03</pdfrwt>
<pdfrwt beam="2">  1       21 0.17698218E+00 0.45297475E+03</pdfrwt>
<totfact> 0.31210193E+04</totfact>
</mgrwt>
</event>
<event>
 7    0  0.4709932E-002  0.4536937E+03  0.7546771E-02  0.1026626E+00
         21   -1    0    0  502  501  0.00000000000E+00  0.00000000000E+00  0.87672495253E+03  0.87672495253E+03  0.00000000000E+00 0. -1.
         21   -1    0    0  501  502 -0.00000000000E+00 -0.00000000000E+00 -0.58695140618E+02  0.58695140618E+02  0.00000000000E+00 0. -1.
      99926    2    1    2    0    0  0.14210854715E-13 -0.35527136788E-14  0.81802981192E+03  0.93542009315E+03  0.45369370449E+03 0.  0.
      99925    2    3    3    0    0  0.10669094634E+03  0.27821866728E+02  0.47586661771E+03  0.55478880980E+03  0.26302960162E+03 0.  0.
         25    1    3    3    0    0 -0.10669094634E+03 -0.27821866728E+02  0.34216319421E+03  0.38063128335E+03  0.12509000000E+03 0.  0.
         25    1    4    4    0    0  0.94685323179E+02  0.43659959826E+01  0.24714394742E+03  0.29276613738E+03  0.12509000000E+03 0.  0.
         25    1    4    4    0    0  0.12005623158E+02  0.23455870746E+02  0.22872267029E+03  0.26202267242E+03  0.12509000000E+03 0.  0.
<mgrwt>
<rscale>  2 0.45369370E+03</rscale>
<asrwt>0</asrwt>
<pdfrwt beam="1">  1       21 0.12893013E+00 0.45369370E+03</pdfrwt>
<pdfrwt beam="2">  1       21 0.86316389E-02 0.45369370E+03</pdfrwt>
<totfact> 0.42166049E+04</totfact>
</mgrwt>
</event>
<event>
 7    0  0.4709932E-002  0.4568333E+03  0.7546771E-02  0.1025704E+00
         21   -1    0    0  502  501  0.00000000000E+00  0.00000000000E+00  0.22241147199E+03  0.22241147199E+03  0.00000000000E+00 0. -1.
         21   -1    0    0  501  502 -0.00000000000E+00 -0.00000000000E+00 -0.23458397040E+03  0.23458397040E+03  0.00000000000E+00 0. -1.
      99926    2    1    2    0    0  0.00000000000E+00  0.00000000000E+00 -0.12172498414E+02  0.45699544239E+03  0.45683330072E+03 0.  0.
      99925    2    3    3    0    0  0.66073209443E+02  0.75899087942E+02 -0.62720476436E+02  0.28868339072E+03  0.26320695537E+03 0.  0.
         25    1    3    3    0    0 -0.66073209443E+02 -0.75899087942E+02  0.50547978022E+02  0.16831205167E+03  0.12509000000E+03 0.  0.
         25    1    4    4    0    0  0.69302938227E+02  0.23185168849E+02 -0.45295139301E+02  0.15178803328E+03  0.12509000000E+03 0.  0.
         25    1    4    4    0    0 -0.32297287839E+01  0.52713919093E+02 -0.17425337135E+02  0.13689535744E+03  0.12509000000E+03 0.  0.
<mgrwt>
<rscale>  2 0.45683330E+03</rscale>
<asrwt>0</asrwt>
<pdfrwt beam="1">  1       21 0.32707569E-01 0.45683330E+03</pdfrwt>
<pdfrwt beam="2">  1       21 0.34497643E-01 0.45683330E+03</pdfrwt>
<totfact> 0.67408417E+04</totfact>
</mgrwt>
</event>
<event>
 7    0  0.4709932E-002  0.4499723E+03  0.7546771E-02  0.1027730E+00
         21   -1    0    0  502  501  0.00000000000E+00  0.00000000000E+00  0.76373936342E+03  0.76373936342E+03  0.00000000000E+00 0. -1.
         21   -1    0    0  501  502 -0.00000000000E+00 -0.00000000000E+00 -0.66277556468E+02  0.66277556468E+02  0.00000000000E+00 0. -1.
      99926    2    1    2    0    0 -0.14210854715E-13  0.14210854715E-13  0.69746180695E+03  0.83001691989E+03  0.44997234931E+03 0.  0.
      99925    2    3    3    0    0 -0.71346555165E+02  0.78918247667E+02  0.48225962773E+03  0.55931799711E+03  0.26257161425E+03 0.  0.
         25    1    4    4    0    0 -0.11323793964E+02  0.18350906671E+02  0.16866192106E+03  0.21109082359E+03  0.12509000000E+03 0.  0.
         25    1    4    4    0    0 -0.60022761201E+02  0.60567340996E+02  0.31359770666E+03  0.34822717353E+03  0.12509000000E+03 0.  0.
         25    1    3    3    0    0  0.71346555165E+02 -0.78918247667E+02  0.21520217923E+03  0.27069892278E+03  0.12509000000E+03 0.  0.
<mgrwt>
<rscale>  2 0.44997235E+03</rscale>
<asrwt>0</asrwt>
<pdfrwt beam="1">  1       21 0.11231461E+00 0.44997235E+03</pdfrwt>
<pdfrwt beam="2">  1       21 0.97466999E-02 0.44997235E+03</pdfrwt>
<totfact> 0.48221178E+04</totfact>
</mgrwt>
</event>
<event>
 7    0  0.4709932E-002  0.4451289E+03  0.7546771E-02  0.1029185E+00
         21   -1    0    0  502  501  0.00000000000E+00  0.00000000000E+00  0.66503079275E+02  0.66503079275E+02  0.00000000000E+00 0. -1.
         21   -1    0    0  501  502 -0.00000000000E+00 -0.00000000000E+00 -0.74485181045E+03  0.74485181045E+03  0.00000000000E+00 0. -1.
      99926    2    1    2    0    0 -0.35527136788E-14  0.00000000000E+00 -0.67834873118E+03  0.81135488973E+03  0.44512892065E+03 0.  0.
      99925    2    3    3    0    0 -0.24874979890E+02  0.61441459913E+02 -0.28552136789E+03  0.39379691403E+03  0.26298239553E+03 0.  0.
         25    1    4    4    0    0 -0.36032258347E+02  0.34778282549E+02 -0.19369728680E+03  0.23595338436E+03  0.12509000000E+03 0.  0.
         25    1    4    4    0    0  0.11157278458E+02  0.26663177365E+02 -0.91824081090E+02  0.15784352967E+03  0.12509000000E+03 0.  0.
         25    1    3    3    0    0  0.24874979890E+02 -0.61441459913E+02 -0.39282736329E+03  0.41755797570E+03  0.12509000000E+03 0.  0.
<mgrwt>
<rscale>  2 0.44512892E+03</rscale>
<asrwt>0</asrwt>
<pdfrwt beam="1">  1       21 0.97798648E-02 0.44512892E+03</pdfrwt>
<pdfrwt beam="2">  1       21 0.10953703E+00 0.44512892E+03</pdfrwt>
<totfact> 0.51062376E+04</totfact>
</mgrwt>
</event>
<event>
 7    0  0.4709932E-002  0.4556435E+03  0.7546771E-02  0.1026052E+00
         21   -1    0    0  502  501  0.00000000000E+00  0.00000000000E+00  0.18006340910E+02  0.18006340910E+02  0.00000000000E+00 0.  1.
         21   -1    0    0  501  502 -0.00000000000E+00 -0.00000000000E+00 -0.28824701877E+04  0.28824701877E+04  0.00000000000E+00 0.  1.
      99926    2    1    2    0    0  0.00000000000E+00  0.00000000000E+00 -0.28644638468E+04  0.29004765286E+04  0.45564346089E+03 0.  0.
      99925    2    3    3    0    0 -0.62067099340E+02 -0.29034957783E+02 -0.12243607733E+04  0.12541834340E+04  0.26309965664E+03 0.  0.
         25    1    3    3    0    0  0.62067099340E+02  0.29034957783E+02 -0.16401030736E+04  0.16462930947E+04  0.12509000000E+03 0.  0.
         25    1    4    4    0    0 -0.95973558326E+00 -0.40119528535E+01 -0.69885544498E+03  0.70997426569E+03  0.12509000000E+03 0.  0.
         25    1    4    4    0    0 -0.61107363757E+02 -0.25023004929E+02 -0.52550532827E+03  0.54420916826E+03  0.12509000000E+03 0.  0.
<mgrwt>
<rscale>  2 0.45564346E+03</rscale>
<asrwt>0</asrwt>
<pdfrwt beam="1">  1       21 0.26479893E-02 0.45564346E+03</pdfrwt>
<pdfrwt beam="2">  1       21 0.42389299E+00 0.45564346E+03</pdfrwt>
<totfact> 0.38213777E+03</totfact>
</mgrwt>
</event>
<event>
 7    0  0.4709932E-002  0.4591164E+03  0.7546771E-02  0.1025038E+00
         21   -1    0    0  502  501  0.00000000000E+00  0.00000000000E+00  0.23583049826E+03  0.23583049826E+03  0.00000000000E+00 0. -1.
         21   -1    0    0  501  502 -0.00000000000E+00 -0.00000000000E+00 -0.22345277049E+03  0.22345277049E+03  0.00000000000E+00 0. -1.
      99926    2    1    2    0    0  0.00000000000E+00  0.14210854715E-13  0.12377727771E+02  0.45928326875E+03  0.45911644798E+03 0.  0.
      99925    2    3    3    0    0 -0.38440308519E+02 -0.10145122885E+03  0.51640839112E+02  0.28910950706E+03  0.26295916348E+03 0.  0.
         25    1    4    4    0    0 -0.58917062816E+02 -0.47430895677E+02  0.18064048029E+02  0.14729130350E+03  0.12509000000E+03 0.  0.
         25    1    3    3    0    0  0.38440308519E+02  0.10145122885E+03 -0.39263111341E+02  0.17017376169E+03  0.12509000000E+03 0.  0.
         25    1    4    4    0    0  0.20476754297E+02 -0.54020333174E+02  0.33576791084E+02  0.14181820356E+03  0.12509000000E+03 0.  0.
<mgrwt>
<rscale>  2 0.45911645E+03</rscale>
<asrwt>0</asrwt>
<pdfrwt beam="1">  1       21 0.34680956E-01 0.45911645E+03</pdfrwt>
<pdfrwt beam="2">  1       21 0.32860702E-01 0.45911645E+03</pdfrwt>
<totfact> 0.66037357E+04</totfact>
</mgrwt>
</event>
<event>
 7    0  0.4709932E-002  0.4610940E+03  0.7546771E-02  0.1024464E+00
         21   -1    0    0  502  501  0.00000000000E+00  0.00000000000E+00  0.90912072715E+03  0.90912072715E+03  0.00000000000E+00 0.  1.
         21   -1    0    0  501  502 -0.00000000000E+00 -0.00000000000E+00 -0.58465187782E+02  0.58465187782E+02  0.00000000000E+00 0.  1.
      99926    2    1    2    0    0  0.00000000000E+00 -0.71054273576E-14  0.85065553937E+03  0.96758591493E+03  0.46109397753E+03 0.  0.
      99925    2    3    3    0    0 -0.65108242512E+02 -0.42709139068E+02  0.34418310440E+03  0.44011554678E+03  0.26301431778E+03 0.  0.
         25    1    4    4    0    0 -0.37902432978E+02  0.14102169109E+02  0.13552425845E+03  0.18881154183E+03  0.12509000000E+03 0.  0.
         25    1    3    3    0    0  0.65108242512E+02  0.42709139068E+02  0.50647243496E+03  0.52747036815E+03  0.12509000000E+03 0.  0.
         25    1    4    4    0    0 -0.27205809534E+02 -0.56811308176E+02  0.20865884595E+03  0.25130400495E+03  0.12509000000E+03 0.  0.
<mgrwt>
<rscale>  2 0.46109398E+03</rscale>
<asrwt>0</asrwt>
<pdfrwt beam="1">  1       21 0.13369422E+00 0.46109398E+03</pdfrwt>
<pdfrwt beam="2">  1       21 0.85978223E-02 0.46109398E+03</pdfrwt>
<totfact> 0.38566291E+04</totfact>
</mgrwt>
</event>
<event>
 6    0  0.4709932E-002  0.6015023E+03  0.7546771E-02  0.9902294E-01
         21   -1    0    0  502  501  0.00000000000E+00  0.00000000000E+00  0.40602203447E+03  0.40602203447E+03  0.00000000000E+00 0. -1.
         21   -1    0    0  501  502 -0.00000000000E+00 -0.00000000000E+00 -0.22277426753E+03  0.22277426753E+03  0.00000000000E+00 0. -1.
      99925    2    1    2    0    0  0.42263532397E+02  0.20349282357E+03  0.18711949685E+02  0.33568356145E+03  0.26294064149E+03 0.  0.
         25    1    1    2    0    0 -0.42263532397E+02 -0.20349282357E+03  0.16453581726E+03  0.29311274056E+03  0.12509000000E+03 0.  0.
         25    1    3    3    0    0  0.53604719087E+02  0.11192611856E+03  0.34141696855E+02  0.17948282784E+03  0.12509000000E+03 0.  0.
         25    1    3    3    0    0 -0.11341186690E+02  0.91566705015E+02 -0.15429747170E+02  0.15620073361E+03  0.12509000000E+03 0.  0.
<mgrwt>
<rscale>  2 0.60150232E+03</rscale>
<asrwt>0</asrwt>
<pdfrwt beam="1">  1       21 0.59709122E-01 0.60150232E+03</pdfrwt>
<pdfrwt beam="2">  1       21 0.32760922E-01 0.60150232E+03</pdfrwt>
<totfact> 0.20565038E+04</totfact>
</mgrwt>
</event>
<event>
 7    0  0.4709932E-002  0.4537597E+03  0.7546771E-02  0.1026607E+00
         21   -1    0    0  502  501  0.00000000000E+00  0.00000000000E+00  0.15558733545E+04  0.15558733545E+04  0.00000000000E+00 0.  1.
         21   -1    0    0  501  502 -0.00000000000E+00 -0.00000000000E+00 -0.33083966965E+02  0.33083966965E+02  0.00000000000E+00 0.  1.
      99926    2    1    2    0    0  0.00000000000E+00  0.00000000000E+00  0.15227893876E+04  0.15889573215E+04  0.45375968381E+03 0.  0.
      99925    2    3    3    0    0 -0.66296397260E+02 -0.33993483715E+02  0.66250640133E+03  0.71644079230E+03  0.26233929906E+03 0.  0.
         25    1    4    4    0    0  0.64657955843E+01 -0.12802145937E+02  0.28396065716E+03  0.31062334807E+03  0.12509000000E+03 0.  0.
         25    1    3    3    0    0  0.66296397260E+02  0.33993483715E+02  0.86028298625E+03  0.87251652922E+03  0.12509000000E+03 0.  0.
         25    1    4    4    0    0 -0.72762192844E+02 -0.21191337778E+02  0.37854574418E+03  0.40581744423E+03  0.12509000000E+03 0.  0.
<mgrwt>
<rscale>  2 0.45375968E+03</rscale>
<asrwt>0</asrwt>
<pdfrwt beam="1">  1       21 0.22880486E+00 0.45375968E+03</pdfrwt>
<pdfrwt beam="2">  1       21 0.48652903E-02 0.45375968E+03</pdfrwt>
<totfact> 0.21890535E+04</totfact>
</mgrwt>
</event>
<event>
 7    0  0.4709932E-002  0.4420021E+03  0.7546771E-02  0.1030134E+00
         21   -1    0    0  502  501  0.00000000000E+00  0.00000000000E+00  0.78307948418E+02  0.78307948418E+02  0.00000000000E+00 0.  1.
         21   -1    0    0  501  502 -0.00000000000E+00 -0.00000000000E+00 -0.62371025049E+03  0.62371025049E+03  0.00000000000E+00 0.  1.
      99926    2    1    2    0    0 -0.71054273576E-14  0.00000000000E+00 -0.54540230207E+03  0.70201819891E+03  0.44200212725E+03 0.  0.
      99925    2    3    3    0    0 -0.59048213578E+02 -0.25056257896E+02 -0.47005632229E+03  0.54252201602E+03  0.26317804649E+03 0.  0.
         25    1    3    3    0    0  0.59048213578E+02  0.25056257896E+02 -0.75345979784E+02  0.15949618289E+03  0.12509000000E+03 0.  0.
         25    1    4    4    0    0 -0.12504658654E+02 -0.38902593406E+02 -0.28522287600E+03  0.31411681801E+03  0.12509000000E+03 0.  0.
         25    1    4    4    0    0 -0.46543554924E+02  0.13846335510E+02 -0.18483344629E+03  0.22840519801E+03  0.12509000000E+03 0.  0.
<mgrwt>
<rscale>  2 0.44200213E+03</rscale>
<asrwt>0</asrwt>
<pdfrwt beam="1">  1       21 0.11515874E-01 0.44200213E+03</pdfrwt>
<pdfrwt beam="2">  1       21 0.91722100E-01 0.44200213E+03</pdfrwt>
<totfact> 0.58556947E+04</totfact>
</mgrwt>
</event>
<event>
 7    0  0.4709932E-002  0.4695427E+03  0.7546771E-02  0.1022049E+00
         21   -1    0    0  502  501  0.00000000000E+00  0.00000000000E+00  0.24921054913E+03  0.24921054913E+03  0.00000000000E+00 0. -1.
         21   -1    0    0  501  502 -0.00000000000E+00 -0.00000000000E+00 -0.22116877926E+03  0.22116877926E+03  0.00000000000E+00 0. -1.
      99926    2    1    2    0    0 -0.14210854715E-13  0.00000000000E+00  0.28041769872E+02  0.47037932839E+03  0.46954272619E+03 0.  0.
      99925    2    3    3    0    0  0.11444514615E+03 -0.46152689549E+02  0.44740880938E+02  0.29387400088E+03  0.26293044657E+03 0.  0.
         25    1    3    3    0    0 -0.11444514615E+03  0.46152689549E+02 -0.16699111066E+02  0.17650532752E+03  0.12509000000E+03 0.  0.
         25    1    4    4    0    0  0.16245102496E+02 -0.32591981020E+02  0.29169240093E+02  0.13350840142E+03  0.12509000000E+03 0.  0.
         25    1    4    4    0    0  0.98200043658E+02 -0.13560708529E+02  0.15571640844E+02  0.16036559946E+03  0.12509000000E+03 0.  0.
<mgrwt>
<rscale>  2 0.46954273E+03</rscale>
<asrwt>0</asrwt>
<pdfrwt beam="1">  1       21 0.36648610E-01 0.46954273E+03</pdfrwt>
<pdfrwt beam="2">  1       21 0.32524820E-01 0.46954273E+03</pdfrwt>
<totfact> 0.60145708E+04</totfact>
</mgrwt>
</event>
<event>
 7    0  0.4709932E-002  0.4456377E+03  0.7546771E-02  0.1029031E+00
         21   -1    0    0  502  501  0.00000000000E+00  0.00000000000E+00  0.24539946805E+03  0.24539946805E+03  0.00000000000E+00 0.  1.
         21   -1    0    0  501  502 -0.00000000000E+00 -0.00000000000E+00 -0.20231598461E+03  0.20231598461E+03  0.00000000000E+00 0.  1.
      99926    2    1    2    0    0 -0.14210854715E-13  0.00000000000E+00  0.43083483448E+02  0.44771545266E+03  0.44563767794E+03 0.  0.
      99925    2    3    3    0    0  0.76470140090E+02  0.40014599275E+02  0.85932005973E+02  0.28981562852E+03  0.26298277207E+03 0.  0.
         25    1    4    4    0    0  0.68121970680E+02  0.49008898893E+02  0.38509842505E+02  0.15547665783E+03  0.12509000000E+03 0.  0.
         25    1    4    4    0    0  0.83481694098E+01 -0.89942996184E+01  0.47422163468E+02  0.13433897069E+03  0.12509000000E+03 0.  0.
         25    1    3    3    0    0 -0.76470140090E+02 -0.40014599275E+02 -0.42848522525E+02  0.15789982414E+03  0.12509000000E+03 0.  0.
<mgrwt>
<rscale>  2 0.44563768E+03</rscale>
<asrwt>0</asrwt>
<pdfrwt beam="1">  1       21 0.36088157E-01 0.44563768E+03</pdfrwt>
<pdfrwt beam="2">  1       21 0.29752351E-01 0.44563768E+03</pdfrwt>
<totfact> 0.74493729E+04</totfact>
</mgrwt>
</event>
<event>
 7    0  0.4709932E-002  0.4639563E+03  0.7546771E-02  0.1023640E+00
         21   -1    0    0  502  501  0.00000000000E+00  0.00000000000E+00  0.42428214077E+03  0.42428214077E+03  0.00000000000E+00 0. -1.
         21   -1    0    0  501  502 -0.00000000000E+00 -0.00000000000E+00 -0.12683510254E+03  0.12683510254E+03  0.00000000000E+00 0. -1.
      99926    2    1    2    0    0  0.00000000000E+00  0.00000000000E+00  0.29744703822E+03  0.55111724331E+03  0.46395632911E+03 0.  0.
      99925    2    3    3    0    0  0.31199906621E+01 -0.97492195287E+02  0.27151033700E+03  0.39038553189E+03  0.26299912153E+03 0.  0.
         25    1    4    4    0    0  0.53188139885E+01 -0.91349293880E+02  0.14178263047E+03  0.21005429221E+03  0.12509000000E+03 0.  0.
         25    1    4    4    0    0 -0.21988233263E+01 -0.61429014075E+01  0.12972770653E+03  0.18033123968E+03  0.12509000000E+03 0.  0.
         25    1    3    3    0    0 -0.31199906621E+01  0.97492195287E+02  0.25936701221E+02  0.16073171141E+03  0.12509000000E+03 0.  0.
<mgrwt>
<rscale>  2 0.46395633E+03</rscale>
<asrwt>0</asrwt>
<pdfrwt beam="1">  1       21 0.62394432E-01 0.46395633E+03</pdfrwt>
<pdfrwt beam="2">  1       21 0.18652221E-01 0.46395633E+03</pdfrwt>
<totfact> 0.57601227E+04</totfact>
</mgrwt>
</event>
<event>
 6    0  0.4709932E-002  0.4576671E+03  0.7546771E-02  0.1025460E+00
         21   -1    0    0  502  501  0.00000000000E+00  0.00000000000E+00  0.57219133791E+02  0.57219133791E+02  0.00000000000E+00 0.  1.
         21   -1    0    0  501  502 -0.00000000000E+00 -0.00000000000E+00 -0.91516229349E+03  0.91516229349E+03  0.00000000000E+00 0.  1.
      99926    2    1    2    0    0  0.00000000000E+00  0.00000000000E+00 -0.85794315970E+03  0.97238142728E+03  0.45766710046E+03 0.  0.
         25    1    3    3    0    0  0.26556508311E+02  0.75785034263E+02 -0.34037673207E+03  0.37141950324E+03  0.12509000000E+03 0.  0.
         25    1    3    3    0    0  0.33473352317E+02 -0.53917817551E+02 -0.14027998210E+03  0.19837736222E+03  0.12509000000E+03 0.  0.
         25    1    3    3    0    0 -0.60029860627E+02 -0.21867216712E+02 -0.37728644553E+03  0.40258456182E+03  0.12509000000E+03 0.  0.
<mgrwt>
<rscale>  2 0.45766710E+03</rscale>
<asrwt>0</asrwt>
<pdfrwt beam="1">  1       21 0.84145784E-02 0.45766710E+03</pdfrwt>
<pdfrwt beam="2">  1       21 0.13458269E+00 0.45766710E+03</pdfrwt>
<totfact> 0.39419195E+04</totfact>
</mgrwt>
</event>
<event>
 7    0  0.4709932E-002  0.4499399E+03  0.7546771E-02  0.1027740E+00
         21   -1    0    0  502  501  0.00000000000E+00  0.00000000000E+00  0.83885033178E+02  0.83885033178E+02  0.00000000000E+00 0. -1.
         21   -1    0    0  501  502 -0.00000000000E+00 -0.00000000000E+00 -0.60334338575E+03  0.60334338575E+03  0.00000000000E+00 0. -1.
      99926    2    1    2    0    0  0.00000000000E+00  0.00000000000E+00 -0.51945835257E+03  0.68722841893E+03  0.44993990679E+03 0.  0.
      99925    2    3    3    0    0  0.24009155625E+02 -0.78136161041E+02 -0.21967190977E+03  0.35226406470E+03  0.26296867517E+03 0.  0.
         25    1    4    4    0    0 -0.13575959363E+01 -0.51420735886E+02 -0.65315954174E+02  0.15019859226E+03  0.12509000000E+03 0.  0.
         25    1    3    3    0    0 -0.24009155625E+02  0.78136161041E+02 -0.29978644280E+03  0.33496435423E+03  0.12509000000E+03 0.  0.
         25    1    4    4    0    0  0.25366751561E+02 -0.26715425155E+02 -0.15435595560E+03  0.20206547244E+03  0.12509000000E+03 0.  0.
<mgrwt>
<rscale>  2 0.44993991E+03</rscale>
<asrwt>0</asrwt>
<pdfrwt beam="1">  1       21 0.12336035E-01 0.44993991E+03</pdfrwt>
<pdfrwt beam="2">  1       21 0.88726966E-01 0.44993991E+03</pdfrwt>
<totfact> 0.55791517E+04</totfact>
</mgrwt>
</event>
<event>
 7    0  0.4709932E-002  0.4563010E+03  0.7546771E-02  0.1025860E+00
         21   -1    0    0  502  501  0.00000000000E+00  0.00000000000E+00  0.53084198410E+03  0.53084198410E+03  0.00000000000E+00 0. -1.
         21   -1    0    0  501  502 -0.00000000000E+00 -0.00000000000E+00 -0.98056772982E+02  0.98056772982E+02  0.00000000000E+00 0. -1.
      99926    2    1    2    0    0 -0.71054273576E-14 -0.14210854715E-13  0.43278521112E+03  0.62889875708E+03  0.45630100558E+03 0.  0.
      99925    2    3    3    0    0  0.42794238353E+02  0.10246532170E+03  0.23400426285E+03  0.36910679708E+03  0.26296643062E+03 0.  0.
         25    1    3    3    0    0 -0.42794238353E+02 -0.10246532170E+03  0.19878094826E+03  0.25979196000E+03  0.12509000000E+03 0.  0.
         25    1    4    4    0    0 -0.58244748034E+01  0.38767325275E+02  0.14695141257E+03  0.19692398476E+03  0.12509000000E+03 0.  0.
         25    1    4    4    0    0  0.48618713156E+02  0.63697996427E+02  0.87052850280E+02  0.17218281232E+03  0.12509000000E+03 0.  0.
<mgrwt>
<rscale>  2 0.45630101E+03</rscale>
<asrwt>0</asrwt>
<pdfrwt beam="1">  1       21 0.78064997E-01 0.45630101E+03</pdfrwt>
<pdfrwt beam="2">  1       21 0.14420114E-01 0.45630101E+03</pdfrwt>
<totfact> 0.56352802E+04</totfact>
</mgrwt>
</event>
<event>
 7    0  0.4709932E-002  0.4071321E+03  0.7546771E-02  0.1041338E+00
         21   -1    0    0  502  501  0.00000000000E+00  0.00000000000E+00  0.20434113102E+04  0.20434113102E+04  0.00000000000E+00 0. -1.
         21   -1    0    0  501  502 -0.00000000000E+00 -0.00000000000E+00 -0.20279394926E+02  0.20279394926E+02  0.00000000000E+00 0. -1.
      99926    2    1    2    0    0  0.00000000000E+00 -0.35527136788E-14  0.20231319153E+04  0.20636907051E+04  0.40713214050E+03 0.  0.
      99925    2    3    3    0    0 -0.43412558237E+02 -0.20711341559E+02  0.11751823267E+04  0.12052155321E+04  0.26301590805E+03 0.  0.
         25    1    4    4    0    0 -0.34487387828E+02  0.19666099974E+02  0.47772635409E+03  0.49542518395E+03  0.12509000000E+03 0.  0.
         25    1    4    4    0    0 -0.89251704091E+01 -0.40377441533E+02  0.69745597263E+03  0.70979034813E+03  0.12509000000E+03 0.  0.
         25    1    3    3    0    0  0.43412558237E+02  0.20711341559E+02  0.84794958858E+03  0.85847517306E+03  0.12509000000E+03 0.  0.
<mgrwt>
<rscale>  2 0.40713214E+03</rscale>
<asrwt>0</asrwt>
<pdfrwt beam="1">  1       21 0.30050152E+00 0.40713214E+03</pdfrwt>
<pdfrwt beam="2">  1       21 0.29822653E-02 0.40713214E+03</pdfrwt>
<totfact> 0.18762917E+04</totfact>
</mgrwt>
</event>
<event>
 7    0  0.4709932E-002  0.4543553E+03  0.7546771E-02  0.1026431E+00
         21   -1    0    0  502  501  0.00000000000E+00  0.00000000000E+00  0.23403022961E+03  0.23403022961E+03  0.00000000000E+00 0.  1.
         21   -1    0    0  501  502 -0.00000000000E+00 -0.00000000000E+00 -0.22052576726E+03  0.22052576726E+03  0.00000000000E+00 0.  1.
      99926    2    1    2    0    0  0.00000000000E+00  0.00000000000E+00  0.13504462358E+02  0.45455599687E+03  0.45435534968E+03 0.  0.
      99925    2    3    3    0    0  0.68160672037E+02  0.86664018932E+02 -0.14709106313E+02  0.28544052464E+03  0.26287526683E+03 0.  0.
         25    1    4    4    0    0  0.51844011773E+02  0.80591908239E+02  0.47849464904E+01  0.15764917077E+03  0.12509000000E+03 0.  0.
         25    1    3    3    0    0 -0.68160672037E+02 -0.86664018932E+02  0.28213568671E+02  0.16911547223E+03  0.12509000000E+03 0.  0.
         25    1    4    4    0    0  0.16316660265E+02  0.60721106928E+01 -0.19494052804E+02  0.12779135387E+03  0.12509000000E+03 0.  0.
<mgrwt>
<rscale>  2 0.45435535E+03</rscale>
<asrwt>0</asrwt>
<pdfrwt beam="1">  1       21 0.34416210E-01 0.45435535E+03</pdfrwt>
<pdfrwt beam="2">  1       21 0.32430260E-01 0.45435535E+03</pdfrwt>
<totfact> 0.68932221E+04</totfact>
</mgrwt>
</event>
<event>
 7    0  0.4709932E-002  0.4619663E+03  0.7546771E-02  0.1024212E+00
         21   -1    0    0  502  501  0.00000000000E+00  0.00000000000E+00  0.74227076769E+03  0.74227076769E+03  0.00000000000E+00 0. -1.
         21   -1    0    0  501  502 -0.00000000000E+00 -0.00000000000E+00 -0.71878385220E+02  0.71878385220E+02  0.00000000000E+00 0. -1.
      99926    2    1    2    0    0  0.00000000000E+00  0.00000000000E+00  0.67039238247E+03  0.81414915291E+03  0.46196633720E+03 0.  0.
      99925    2    3    3    0    0  0.53360074205E+02  0.33969085207E+02  0.59800208322E+03  0.65638648370E+03  0.26312644904E+03 0.  0.
         25    1    4    4    0    0  0.15320299824E+02  0.54304044253E+02  0.27513992106E+03  0.30746239619E+03  0.12509000000E+03 0.  0.
         25    1    4    4    0    0  0.38039774381E+02 -0.20334959047E+02  0.32286216216E+03  0.34892408751E+03  0.12509000000E+03 0.  0.
         25    1    3    3    0    0 -0.53360074205E+02 -0.33969085207E+02  0.72390299248E+02  0.15776266920E+03  0.12509000000E+03 0.  0.
<mgrwt>
<rscale>  2 0.46196634E+03</rscale>
<asrwt>0</asrwt>
<pdfrwt beam="1">  1       21 0.10915746E+00 0.46196634E+03</pdfrwt>
<pdfrwt beam="2">  1       21 0.10570351E-01 0.46196634E+03</pdfrwt>
<totfact> 0.44599570E+04</totfact>
</mgrwt>
</event>
<event>
 7    0  0.4709932E-002  0.4515237E+03  0.7546771E-02  0.1027269E+00
         21   -1    0    0  502  501  0.00000000000E+00  0.00000000000E+00  0.41908176052E+02  0.41908176052E+02  0.00000000000E+00 0.  1.
         21   -1    0    0  501  502 -0.00000000000E+00 -0.00000000000E+00 -0.12161927820E+04  0.12161927820E+04  0.00000000000E+00 0.  1.
      99926    2    1    2    0    0  0.00000000000E+00  0.00000000000E+00 -0.11742846060E+04  0.12581009581E+04  0.45152373679E+03 0.  0.
      99925    2    3    3    0    0  0.92865067123E+02  0.49899301968E+02 -0.82775275226E+03  0.87489645032E+03  0.26297398898E+03 0.  0.
         25    1    4    4    0    0  0.62161569146E+02  0.43953028360E+02 -0.33606283596E+03  0.36658105133E+03  0.12509000000E+03 0.  0.
         25    1    4    4    0    0  0.30703497977E+02  0.59462736075E+01 -0.49168991630E+03  0.50831539899E+03  0.12509000000E+03 0.  0.
         25    1    3    3    0    0 -0.92865067123E+02 -0.49899301968E+02 -0.34653185372E+03  0.38320450777E+03  0.12509000000E+03 0.  0.
<mgrwt>
<rscale>  2 0.45152374E+03</rscale>
<asrwt>0</asrwt>
<pdfrwt beam="1">  1       21 0.61629677E-02 0.45152374E+03</pdfrwt>
<pdfrwt beam="2">  1       21 0.17885186E+00 0.45152374E+03</pdfrwt>
<totfact> 0.31191700E+04</totfact>
</mgrwt>
</event>
<event>
 7    0  0.4709932E-002  0.4540083E+03  0.7546771E-02  0.1026533E+00
         21   -1    0    0  502  501  0.00000000000E+00  0.00000000000E+00  0.38324289874E+02  0.38324289874E+02  0.00000000000E+00 0.  1.
         21   -1    0    0  501  502 -0.00000000000E+00 -0.00000000000E+00 -0.13446011180E+04  0.13446011180E+04  0.00000000000E+00 0.  1.
      99926    2    1    2    0    0 -0.13322676296E-14  0.14210854715E-13 -0.13062768281E+04  0.13829254079E+04  0.45400829513E+03 0.  0.
      99925    2    3    3    0    0 -0.34225637454E+01 -0.11084187247E+03 -0.86748098480E+03  0.91336504450E+03  0.26346690662E+03 0.  0.
         25    1    4    4    0    0  0.11150575337E+02 -0.12831006298E+02 -0.37622535237E+03  0.39684001048E+03  0.12509000000E+03 0.  0.
         25    1    4    4    0    0 -0.14573139083E+02 -0.98010866171E+02 -0.49125563243E+03  0.51652503401E+03  0.12509000000E+03 0.  0.
         25    1    3    3    0    0  0.34225637454E+01  0.11084187247E+03 -0.43879584334E+03  0.46956036339E+03  0.12509000000E+03 0.  0.
<mgrwt>
<rscale>  2 0.45400830E+03</rscale>
<asrwt>0</asrwt>
<pdfrwt beam="1">  1       21 0.56359262E-02 0.45400830E+03</pdfrwt>
<pdfrwt beam="2">  1       21 0.19773542E+00 0.45400830E+03</pdfrwt>
<totfact> 0.26998078E+04</totfact>
</mgrwt>
</event>
<event>
 7    0  0.4709932E-002  0.4545532E+03  0.7546771E-02  0.1026373E+00
         21   -1    0    0  502  501  0.00000000000E+00  0.00000000000E+00  0.12794298117E+04  0.12794298117E+04  0.00000000000E+00 0. -1.
         21   -1    0    0  501  502 -0.00000000000E+00 -0.00000000000E+00 -0.40373181159E+02  0.40373181159E+02  0.00000000000E+00 0. -1.
      99926    2    1    2    0    0  0.00000000000E+00  0.00000000000E+00  0.12390566306E+04  0.13198029929E+04  0.45455319411E+03 0.  0.
      99925    2    3    3    0    0  0.43584840721E+02 -0.82392098934E+02  0.96340708576E+03  0.10030723882E+04  0.26327344477E+03 0.  0.
         25    1    4    4    0    0  0.25584474221E+02 -0.44503510829E+02  0.34087425248E+03  0.36671227399E+03  0.12509000000E+03 0.  0.
         25    1    4    4    0    0  0.18000366500E+02 -0.37888588105E+02  0.62253283328E+03  0.63636011418E+03  0.12509000000E+03 0.  0.
         25    1    3    3    0    0 -0.43584840721E+02  0.82392098934E+02  0.27564954481E+03  0.31673060471E+03  0.12509000000E+03 0.  0.
<mgrwt>
<rscale>  2 0.45455319E+03</rscale>
<asrwt>0</asrwt>
<pdfrwt beam="1">  1       21 0.18815142E+00 0.45455319E+03</pdfrwt>
<pdfrwt beam="2">  1       21 0.59372333E-02 0.45455319E+03</pdfrwt>
<totfact> 0.28644364E+04</totfact>
</mgrwt>
</event>
<event>
 6    0  0.4709932E-002  0.5777923E+03  0.7546771E-02  0.9952582E-01
         21   -1    0    0  502  501  0.00000000000E+00  0.00000000000E+00  0.53155494087E+02  0.53155494087E+02  0.00000000000E+00 0. -1.
         21   -1    0    0  501  502 -0.00000000000E+00 -0.00000000000E+00 -0.15701292850E+04  0.15701292850E+04  0.00000000000E+00 0. -1.
      99925    2    1    2    0    0  0.21060415424E+02 -0.17945299114E+03 -0.11686761778E+04  0.12114527107E+04  0.26299571226E+03 0.  0.
         25    1    3    3    0    0 -0.14835784897E+02 -0.12441372339E+03 -0.60883771256E+03  0.63405815460E+03  0.12509000000E+03 0.  0.
         25    1    3    3    0    0  0.35896200321E+02 -0.55039267750E+02 -0.55983846521E+03  0.57739455611E+03  0.12509000000E+03 0.  0.
         25    1    1    2    0    0 -0.21060415424E+02  0.17945299114E+03 -0.34829761317E+03  0.41183206840E+03  0.12509000000E+03 0.  0.
<mgrwt>
<rscale>  2 0.57779234E+03</rscale>
<asrwt>0</asrwt>
<pdfrwt beam="1">  1       21 0.78169834E-02 0.57779234E+03</pdfrwt>
<pdfrwt beam="2">  1       21 0.23090139E+00 0.57779234E+03</pdfrwt>
<totfact> 0.89030142E+03</totfact>
</mgrwt>
</event>
<event>
 7    0  0.4709932E-002  0.4526216E+03  0.7546771E-02  0.1026943E+00
         21   -1    0    0  502  501  0.00000000000E+00  0.00000000000E+00  0.44644994061E+03  0.44644994061E+03  0.00000000000E+00 0.  1.
         21   -1    0    0  501  502 -0.00000000000E+00 -0.00000000000E+00 -0.11471962134E+03  0.11471962134E+03  0.00000000000E+00 0.  1.
      99926    2    1    2    0    0  0.44408920985E-15  0.00000000000E+00  0.33173031927E+03  0.56116956196E+03  0.45262155555E+03 0.  0.
      99925    2    3    3    0    0  0.21150357736E+01 -0.10915628101E+03  0.23350460430E+03  0.36825671573E+03  0.26300007869E+03 0.  0.
         25    1    4    4    0    0 -0.50419652366E+01 -0.95427249451E+02  0.14703382059E+03  0.21540249267E+03  0.12509000000E+03 0.  0.
         25    1    4    4    0    0  0.71570010101E+01 -0.13729031556E+02  0.86470783706E+02  0.15285422305E+03  0.12509000000E+03 0.  0.
         25    1    3    3    0    0 -0.21150357736E+01  0.10915628101E+03  0.98225714972E+02  0.19291284623E+03  0.12509000000E+03 0.  0.
<mgrwt>
<rscale>  2 0.45262156E+03</rscale>
<asrwt>0</asrwt>
<pdfrwt beam="1">  1       21 0.65654402E-01 0.45262156E+03</pdfrwt>
<pdfrwt beam="2">  1       21 0.16870533E-01 0.45262156E+03</pdfrwt>
<totfact> 0.62298139E+04</totfact>
</mgrwt>
</event>
<event>
 7    0  0.4709932E-002  0.4579388E+03  0.7546771E-02  0.1025381E+00
         21   -1    0    0  502  501  0.00000000000E+00  0.00000000000E+00  0.64846055218E+03  0.64846055218E+03  0.00000000000E+00 0.  1.
         21   -1    0    0  501  502 -0.00000000000E+00 -0.00000000000E+00 -0.80848376657E+02  0.80848376657E+02  0.00000000000E+00 0.  1.
      99926    2    1    2    0    0  0.00000000000E+00  0.35527136788E-14  0.56761217552E+03  0.72930892883E+03  0.45793878617E+03 0.  0.
      99925    2    3    3    0    0  0.11249366196E+03  0.85646612937E+01  0.31396565538E+03  0.42482207742E+03  0.26300415833E+03 0.  0.
         25    1    4    4    0    0  0.29680470099E+02  0.34182175090E+02  0.16386266469E+03  0.21106357426E+03  0.12509000000E+03 0.  0.
         25    1    3    3    0    0 -0.11249366196E+03 -0.85646612937E+01  0.25364652014E+03  0.30448685141E+03  0.12509000000E+03 0.  0.
         25    1    4    4    0    0  0.82813191864E+02 -0.25617513796E+02  0.15010299069E+03  0.21375850316E+03  0.12509000000E+03 0.  0.
<mgrwt>
<rscale>  2 0.45793879E+03</rscale>
<asrwt>0</asrwt>
<pdfrwt beam="1">  1       21 0.95361843E-01 0.45793879E+03</pdfrwt>
<pdfrwt beam="2">  1       21 0.11889467E-01 0.45793879E+03</pdfrwt>
<totfact> 0.50170902E+04</totfact>
</mgrwt>
</event>
<event>
 7    0  0.4709932E-002  0.4512697E+03  0.7546771E-02  0.1027344E+00
         21   -1    0    0  502  501  0.00000000000E+00  0.00000000000E+00  0.18142995429E+03  0.18142995429E+03  0.00000000000E+00 0.  1.
         21   -1    0    0  501  502 -0.00000000000E+00 -0.00000000000E+00 -0.28061020424E+03  0.28061020424E+03  0.00000000000E+00 0.  1.
      99926    2    1    2    0    0 -0.17763568394E-14  0.00000000000E+00 -0.99180249953E+02  0.46204015854E+03  0.45126974873E+03 0.  0.
      99925    2    3    3    0    0  0.98598348822E+01 -0.10181650463E+03 -0.22017513683E+02  0.28297197899E+03  0.26291548647E+03 0.  0.
         25    1    4    4    0    0  0.37725468247E+02 -0.63510041944E+02  0.93874437293E+01  0.14557598903E+03  0.12509000000E+03 0.  0.
         25    1    4    4    0    0 -0.27865633365E+02 -0.38306462684E+02 -0.31404957412E+02  0.13739598996E+03  0.12509000000E+03 0.  0.
         25    1    3    3    0    0 -0.98598348822E+01  0.10181650463E+03 -0.77162736271E+02  0.17906817955E+03  0.12509000000E+03 0.  0.
<mgrwt>
<rscale>  2 0.45126975E+03</rscale>
<asrwt>0</asrwt>
<pdfrwt beam="1">  1       21 0.26680876E-01 0.45126975E+03</pdfrwt>
<pdfrwt beam="2">  1       21 0.41266206E-01 0.45126975E+03</pdfrwt>
<totfact> 0.70083636E+04</totfact>
</mgrwt>
</event>
<event>
 6    0  0.4709932E-002  0.4525868E+03  0.7546771E-02  0.1026953E+00
         21   -1    0    0  502  501  0.00000000000E+00  0.00000000000E+00  0.60116413015E+03  0.60116413015E+03  0.00000000000E+00 0. -1.
         21   -1    0    0  501  502 -0.00000000000E+00 -0.00000000000E+00 -0.85182554278E+02  0.85182554278E+02  0.00000000000E+00 0. -1.
      99926    2    1    2    0    0  0.00000000000E+00  0.35527136788E-14  0.51598157588E+03  0.68634668443E+03  0.45258677023E+03 0.  0.
         25    1    3    3    0    0 -0.72049932941E+02 -0.86282419880E+01  0.30613764316E+03  0.33857555148E+03  0.12509000000E+03 0.  0.
         25    1    3    3    0    0  0.62055806585E+02 -0.32802386179E+02  0.12858695209E+03  0.19263704736E+03  0.12509000000E+03 0.  0.
         25    1    3    3    0    0  0.99941263562E+01  0.41430628167E+02  0.81256980628E+02  0.15513408559E+03  0.12509000000E+03 0.  0.
<mgrwt>
<rscale>  2 0.45258677E+03</rscale>
<asrwt>0</asrwt>
<pdfrwt beam="1">  1       21 0.88406487E-01 0.45258677E+03</pdfrwt>
<pdfrwt beam="2">  1       21 0.12526847E-01 0.45258677E+03</pdfrwt>
<totfact> 0.54682229E+04</totfact>
</mgrwt>
</event>
<event>
 7    0  0.4709932E-002  0.4562877E+03  0.7546771E-02  0.1025863E+00
         21   -1    0    0  502  501  0.00000000000E+00  0.00000000000E+00  0.86396117941E+02  0.86396117941E+02  0.00000000000E+00 0.  1.
         21   -1    0    0  501  502 -0.00000000000E+00 -0.00000000000E+00 -0.60245330946E+03  0.60245330946E+03  0.00000000000E+00 0.  1.
      99926    2    1    2    0    0  0.00000000000E+00  0.00000000000E+00 -0.51605719152E+03  0.68884942741E+03  0.45628774771E+03 0.  0.
      99925    2    3    3    0    0  0.81798068827E+02  0.65002725400E+02 -0.39446717030E+03  0.48550754846E+03  0.26305313682E+03 0.  0.
         25    1    4    4    0    0  0.57176861319E+02  0.71534369137E+02 -0.20415217657E+03  0.25634347804E+03  0.12509000000E+03 0.  0.
         25    1    4    4    0    0  0.24621207508E+02 -0.65316437371E+01 -0.19031499373E+03  0.22916407041E+03  0.12509000000E+03 0.  0.
         25    1    3    3    0    0 -0.81798068827E+02 -0.65002725400E+02 -0.12159002122E+03  0.20334187895E+03  0.12509000000E+03 0.  0.
<mgrwt>
<rscale>  2 0.45628775E+03</rscale>
<asrwt>0</asrwt>
<pdfrwt beam="1">  1       21 0.12705312E-01 0.45628775E+03</pdfrwt>
<pdfrwt beam="2">  1       21 0.88596070E-01 0.45628775E+03</pdfrwt>
<totfact> 0.52973617E+04</totfact>
</mgrwt>
</event>
<event>
 7    0  0.4709932E-002  0.4324094E+03  0.7546771E-02  0.1033102E+00
         21   -1    0    0  502  501  0.00000000000E+00  0.00000000000E+00  0.11600468286E+03  0.11600468286E+03  0.00000000000E+00 0. -1.
         21   -1    0    0  501  502 -0.00000000000E+00 -0.00000000000E+00 -0.40295330544E+03  0.40295330544E+03  0.00000000000E+00 0. -1.
      99926    2    1    2    0    0  0.88817841970E-15  0.71054273576E-14 -0.28694862257E+03  0.51895798830E+03  0.43240939123E+03 0.  0.
      99925    2    3    3    0    0 -0.42400430653E+01 -0.59216221215E+02 -0.26634066174E+03  0.37896964961E+03  0.26297549012E+03 0.  0.
         25    1    3    3    0    0  0.42400430653E+01  0.59216221215E+02 -0.20607960829E+02  0.13998833869E+03  0.12509000000E+03 0.  0.
         25    1    4    4    0    0 -0.29669477507E+02 -0.11156658836E+02 -0.16271642519E+03  0.20767496734E+03  0.12509000000E+03 0.  0.
         25    1    4    4    0    0  0.25429434441E+02 -0.48059562379E+02 -0.10362423655E+03  0.17129468227E+03  0.12509000000E+03 0.  0.
<mgrwt>
<rscale>  2 0.43240939E+03</rscale>
<asrwt>0</asrwt>
<pdfrwt beam="1">  1       21 0.17059512E-01 0.43240939E+03</pdfrwt>
<pdfrwt beam="2">  1       21 0.59257839E-01 0.43240939E+03</pdfrwt>
<totfact> 0.76810198E+04</totfact>
</mgrwt>
</event>
<event>
 7    0  0.4709932E-002  0.4601740E+03  0.7546771E-02  0.1024731E+00
         21   -1    0    0  502  501  0.00000000000E+00  0.00000000000E+00  0.16589398921E+03  0.16589398921E+03  0.00000000000E+00 0.  1.
         21   -1    0    0  501  502 -0.00000000000E+00 -0.00000000000E+00 -0.31911968301E+03  0.31911968301E+03  0.00000000000E+00 0.  1.
      99926    2    1    2    0    0 -0.14210854715E-13  0.00000000000E+00 -0.15322569380E+03  0.48501367222E+03  0.46017404208E+03 0.  0.
      99925    2    3    3    0    0 -0.10189574599E+03 -0.53170674514E+02 -0.12375238877E+03  0.31260123796E+03  0.26304945651E+03 0.  0.
         25    1    4    4    0    0 -0.37615705485E+02 -0.23183372490E+01 -0.23987022012E+02  0.13282771289E+03  0.12509000000E+03 0.  0.
         25    1    4    4    0    0 -0.64280040502E+02 -0.50852337266E+02 -0.99765366759E+02  0.17977352507E+03  0.12509000000E+03 0.  0.
         25    1    3    3    0    0  0.10189574599E+03  0.53170674514E+02 -0.29473305025E+02  0.17241243426E+03  0.12509000000E+03 0.  0.
<mgrwt>
<rscale>  2 0.46017404E+03</rscale>
<asrwt>0</asrwt>
<pdfrwt beam="1">  1       21 0.24396175E-01 0.46017404E+03</pdfrwt>
<pdfrwt beam="2">  1       21 0.46929364E-01 0.46017404E+03</pdfrwt>
<totfact> 0.63681015E+04</totfact>
</mgrwt>
</event>
<event>
 7    0  0.4709932E-002  0.4582001E+03  0.7546771E-02  0.1025305E+00
         21   -1    0    0  502  501  0.00000000000E+00  0.00000000000E+00  0.92541042902E+02  0.92541042902E+02  0.00000000000E+00 0. -1.
         21   -1    0    0  501  502 -0.00000000000E+00 -0.00000000000E+00 -0.56717353149E+03  0.56717353149E+03  0.00000000000E+00 0. -1.
      99926    2    1    2    0    0  0.14210854715E-13  0.00000000000E+00 -0.47463248859E+03  0.65971457439E+03  0.45820008778E+03 0.  0.
      99925    2    3    3    0    0  0.10622931447E+03  0.86954457053E+01 -0.36444152609E+03  0.46185140363E+03  0.26292359168E+03 0.  0.
         25    1    4    4    0    0  0.88597000812E+02 -0.18723063510E+02 -0.19628059762E+03  0.24974699750E+03  0.12509000000E+03 0.  0.
         25    1    3    3    0    0 -0.10622931447E+03 -0.86954457053E+01 -0.11019096250E+03  0.19786317077E+03  0.12509000000E+03 0.  0.
         25    1    4    4    0    0  0.17632313660E+02  0.27418509215E+02 -0.16816092848E+03  0.21210440613E+03  0.12509000000E+03 0.  0.
<mgrwt>
<rscale>  2 0.45820009E+03</rscale>
<asrwt>0</asrwt>
<pdfrwt beam="1">  1       21 0.13608977E-01 0.45820009E+03</pdfrwt>
<pdfrwt beam="2">  1       21 0.83407873E-01 0.45820009E+03</pdfrwt>
<totfact> 0.53774956E+04</totfact>
</mgrwt>
</event>
<event>
 7    0  0.4709932E-002  0.4614840E+03  0.7546771E-02  0.1024352E+00
         21   -1    0    0  502  501  0.00000000000E+00  0.00000000000E+00  0.94608553447E+02  0.94608553447E+02  0.00000000000E+00 0.  1.
         21   -1    0    0  501  502 -0.00000000000E+00 -0.00000000000E+00 -0.56275960977E+03  0.56275960977E+03  0.00000000000E+00 0.  1.
      99926    2    1    2    0    0  0.00000000000E+00  0.22204460493E-14 -0.46815105632E+03  0.65736816321E+03  0.46148400890E+03 0.  0.
      99925    2    3    3    0    0  0.34845761150E+02 -0.14095287039E+01 -0.13053361631E+03  0.29563724425E+03  0.26295653891E+03 0.  0.
         25    1    3    3    0    0 -0.34845761150E+02  0.14095287039E+01 -0.33761744001E+03  0.36173091897E+03  0.12509000000E+03 0.  0.
         25    1    4    4    0    0  0.26465291303E+02  0.35139522653E+02 -0.84187526363E+02  0.15706764591E+03  0.12509000000E+03 0.  0.
         25    1    4    4    0    0  0.83804698466E+01 -0.36549051357E+02 -0.46346089951E+02  0.13856959834E+03  0.12509000000E+03 0.  0.
<mgrwt>
<rscale>  2 0.46148401E+03</rscale>
<asrwt>0</asrwt>
<pdfrwt beam="1">  1       21 0.13913023E-01 0.46148401E+03</pdfrwt>
<pdfrwt beam="2">  1       21 0.82758764E-01 0.46148401E+03</pdfrwt>
<totfact> 0.52539971E+04</totfact>
</mgrwt>
</event>
<event>
 7    0  0.4709932E-002  0.4537859E+03  0.7546771E-02  0.1026599E+00
         21   -1    0    0  502  501  0.00000000000E+00  0.00000000000E+00  0.12126944048E+03  0.12126944048E+03  0.00000000000E+00 0. -1.
         21   -1    0    0  501  502 -0.00000000000E+00 -0.00000000000E+00 -0.42451261742E+03  0.42451261742E+03  0.00000000000E+00 0. -1.
      99926    2    1    2    0    0  0.00000000000E+00 -0.17763568394E-14 -0.30324317695E+03  0.54578205790E+03  0.45378588603E+03 0.  0.
      99925    2    3    3    0    0  0.10863318099E+03  0.11465356818E+02 -0.22217848921E+03  0.36098050456E+03  0.26269948836E+03 0.  0.
         25    1    4    4    0    0  0.42274890192E+02 -0.35247647909E+01 -0.59745859000E+02  0.14497125948E+03  0.12509000000E+03 0.  0.
         25    1    4    4    0    0  0.66358290795E+02  0.14990121609E+02 -0.16243263021E+03  0.21600924508E+03  0.12509000000E+03 0.  0.
         25    1    3    3    0    0 -0.10863318099E+03 -0.11465356818E+02 -0.81064687731E+02  0.18480155334E+03  0.12509000000E+03 0.  0.
<mgrwt>
<rscale>  2 0.45378589E+03</rscale>
<asrwt>0</asrwt>
<pdfrwt beam="1">  1       21 0.17833741E-01 0.45378589E+03</pdfrwt>
<pdfrwt beam="2">  1       21 0.62428327E-01 0.45378589E+03</pdfrwt>
<totfact> 0.62746736E+04</totfact>
</mgrwt>
</event>
<event>
 7    0  0.4709932E-002  0.4579023E+03  0.7546771E-02  0.1025391E+00
         21   -1    0    0  502  501  0.00000000000E+00  0.00000000000E+00  0.11258036380E+03  0.11258036380E+03  0.00000000000E+00 0.  1.
         21   -1    0    0  501  502 -0.00000000000E+00 -0.00000000000E+00 -0.46561084050E+03  0.46561084050E+03  0.00000000000E+00 0.  1.
      99926    2    1    2    0    0  0.14210854715E-13 -0.71054273576E-14 -0.35303047670E+03  0.57819120430E+03  0.45790233811E+03 0.  0.
      99925    2    3    3    0    0 -0.67027731684E+02  0.45250271458E+02 -0.32634948730E+03  0.42686477839E+03  0.26300047013E+03 0.  0.
         25    1    3    3    0    0  0.67027731684E+02 -0.45250271458E+02 -0.26680989407E+02  0.15132642591E+03  0.12509000000E+03 0.  0.
         25    1    4    4    0    0 -0.19642310397E+02 -0.16735867855E+02 -0.15211251775E+03  0.19862435849E+03  0.12509000000E+03 0.  0.
         25    1    4    4    0    0 -0.47385421288E+02  0.61986139313E+02 -0.17423696955E+03  0.22824041990E+03  0.12509000000E+03 0.  0.
<mgrwt>
<rscale>  2 0.45790234E+03</rscale>
<asrwt>0</asrwt>
<pdfrwt beam="1">  1       21 0.16555936E-01 0.45790234E+03</pdfrwt>
<pdfrwt beam="2">  1       21 0.68472181E-01 0.45790234E+03</pdfrwt>
<totfact> 0.58682948E+04</totfact>
</mgrwt>
</event>
<event>
 7    0  0.4709932E-002  0.4644893E+03  0.7546771E-02  0.1023487E+00
         21   -1    0    0  502  501  0.00000000000E+00  0.00000000000E+00  0.26328039656E+03  0.26328039656E+03  0.00000000000E+00 0. -1.
         21   -1    0    0  501  502 -0.00000000000E+00 -0.00000000000E+00 -0.20486739045E+03  0.20486739045E+03  0.00000000000E+00 0. -1.
      99926    2    1    2    0    0  0.00000000000E+00  0.71054273576E-14  0.58413006114E+02  0.46814778701E+03  0.46448925843E+03 0.  0.
      99925    2    3    3    0    0  0.10158504400E+03  0.49049314650E+02  0.82929054512E+02  0.29793056943E+03  0.26298296463E+03 0.  0.
         25    1    4    4    0    0  0.53322607228E+02 -0.15408185611E+02  0.30615203732E+02  0.14023377420E+03  0.12509000000E+03 0.  0.
         25    1    3    3    0    0 -0.10158504400E+03 -0.49049314650E+02 -0.24516048398E+02  0.17021721758E+03  0.12509000000E+03 0.  0.
         25    1    4    4    0    0  0.48262436775E+02  0.64457500261E+02  0.52313850780E+02  0.15769679523E+03  0.12509000000E+03 0.  0.
<mgrwt>
<rscale>  2 0.46448926E+03</rscale>
<asrwt>0</asrwt>
<pdfrwt beam="1">  1       21 0.38717705E-01 0.46448926E+03</pdfrwt>
<pdfrwt beam="2">  1       21 0.30127557E-01 0.46448926E+03</pdfrwt>
<totfact> 0.62709144E+04</totfact>
</mgrwt>
</event>
<event>
 7    0  0.4709932E-002  0.4514900E+03  0.7546771E-02  0.1027279E+00
         21   -1    0    0  502  501  0.00000000000E+00  0.00000000000E+00  0.49332223196E+03  0.49332223196E+03  0.00000000000E+00 0. -1.
         21   -1    0    0  501  502 -0.00000000000E+00 -0.00000000000E+00 -0.10330124034E+03  0.10330124034E+03  0.00000000000E+00 0. -1.
      99926    2    1    2    0    0 -0.14210854715E-13 -0.17763568394E-14  0.39002099162E+03  0.59662347230E+03  0.45148997087E+03 0.  0.
      99925    2    3    3    0    0  0.10218178590E+03 -0.31103810217E+01  0.29887632943E+03  0.41113587329E+03  0.26316317024E+03 0.  0.
         25    1    3    3    0    0 -0.10218178590E+03  0.31103810217E+01  0.91144662185E+02  0.18548759901E+03  0.12509000000E+03 0.  0.
         25    1    4    4    0    0  0.46611865331E+02  0.38944567986E+02  0.15189763205E+03  0.20593626220E+03  0.12509000000E+03 0.  0.
         25    1    4    4    0    0  0.55569920574E+02 -0.42054949007E+02  0.14697869738E+03  0.20519961109E+03  0.12509000000E+03 0.  0.
<mgrwt>
<rscale>  2 0.45148997E+03</rscale>
<asrwt>0</asrwt>
<pdfrwt beam="1">  1       21 0.72547386E-01 0.45148997E+03</pdfrwt>
<pdfrwt beam="2">  1       21 0.15191359E-01 0.45148997E+03</pdfrwt>
<totfact> 0.60548559E+04</totfact>
</mgrwt>
</event>
<event>
 7    0  0.4709932E-002  0.4567789E+03  0.7546771E-02  0.1025720E+00
         21   -1    0    0  502  501  0.00000000000E+00  0.00000000000E+00  0.17242787492E+03  0.17242787492E+03  0.00000000000E+00 0.  1.
         21   -1    0    0  501  502 -0.00000000000E+00 -0.00000000000E+00 -0.30251344397E+03  0.30251344397E+03  0.00000000000E+00 0.  1.
      99926    2    1    2    0    0 -0.17763568394E-14 -0.14210854715E-13 -0.13008556905E+03  0.47494131888E+03  0.45677894118E+03 0.  0.
      99925    2    3    3    0    0 -0.64227638674E+01  0.11445600537E+03 -0.88195888476E+02  0.30017380903E+03  0.26302922238E+03 0.  0.
         25    1    3    3    0    0  0.64227638674E+01 -0.11445600537E+03 -0.41889680575E+02  0.17476750985E+03  0.12509000000E+03 0.  0.
         25    1    4    4    0    0  0.34531152902E+02  0.73142561437E+02 -0.46887798445E+02  0.15616724547E+03  0.12509000000E+03 0.  0.
         25    1    4    4    0    0 -0.40953916770E+02  0.41313443928E+02 -0.41308090031E+02  0.14400656357E+03  0.12509000000E+03 0.  0.
<mgrwt>
<rscale>  2 0.45677894E+03</rscale>
<asrwt>0</asrwt>
<pdfrwt beam="1">  1       21 0.25357041E-01 0.45677894E+03</pdfrwt>
<pdfrwt beam="2">  1       21 0.44487271E-01 0.45677894E+03</pdfrwt>
<totfact> 0.66131747E+04</totfact>
</mgrwt>
</event>
<event>
 7    0  0.4709932E-002  0.4529958E+03  0.7546771E-02  0.1026832E+00
         21   -1    0    0  502  501  0.00000000000E+00  0.00000000000E+00  0.22386998204E+03  0.22386998204E+03  0.00000000000E+00 0.  1.
         21   -1    0    0  501  502 -0.00000000000E+00 -0.00000000000E+00 -0.22915664594E+03  0.22915664594E+03  0.00000000000E+00 0.  1.
      99926    2    1    2    0    0  0.00000000000E+00 -0.71054273576E-14 -0.52866639046E+01  0.45302662798E+03  0.45299578016E+03 0.  0.
      99925    2    3    3    0    0  0.69494851849E+02  0.39783996251E+02 -0.81004231204E+02  0.28631442420E+03  0.26268224767E+03 0.  0.
         25    1    4    4    0    0  0.60554121615E+02  0.37325722950E+02 -0.71053530706E+02  0.16048714454E+03  0.12509000000E+03 0.  0.
         25    1    3    3    0    0 -0.69494851849E+02 -0.39783996251E+02  0.75717567300E+02  0.16671220378E+03  0.12509000000E+03 0.  0.
         25    1    4    4    0    0  0.89407302337E+01  0.24582733012E+01 -0.99507004984E+01  0.12582727965E+03  0.12509000000E+03 0.  0.
<mgrwt>
<rscale>  2 0.45299578E+03</rscale>
<asrwt>0</asrwt>
<pdfrwt beam="1">  1       21 0.32922056E-01 0.45299578E+03</pdfrwt>
<pdfrwt beam="2">  1       21 0.33699507E-01 0.45299578E+03</pdfrwt>
<totfact> 0.69800156E+04</totfact>
</mgrwt>
</event>
<event>
 7    0  0.4709932E-002  0.4558907E+03  0.7546771E-02  0.1025980E+00
         21   -1    0    0  502  501  0.00000000000E+00  0.00000000000E+00  0.89758238448E+02  0.89758238448E+02  0.00000000000E+00 0.  1.
         21   -1    0    0  501  502 -0.00000000000E+00 -0.00000000000E+00 -0.57887816174E+03  0.57887816174E+03  0.00000000000E+00 0.  1.
      99926    2    1    2    0    0  0.00000000000E+00 -0.26645352591E-14 -0.48911992329E+03  0.66863640019E+03  0.45589070652E+03 0.  0.
      99925    2    3    3    0    0  0.70553428401E+02 -0.53646628656E+01 -0.43869476109E+03  0.51633153832E+03  0.26294219552E+03 0.  0.
         25    1    4    4    0    0  0.35127883478E+02 -0.39153318210E+02 -0.25369150173E+03  0.28770442589E+03  0.12509000000E+03 0.  0.
         25    1    4    4    0    0  0.35425544923E+02  0.33788655345E+02 -0.18500325936E+03  0.22862711243E+03  0.12509000000E+03 0.  0.
         25    1    3    3    0    0 -0.70553428401E+02  0.53646628656E+01 -0.50425162198E+02  0.15230486187E+03  0.12509000000E+03 0.  0.
<mgrwt>
<rscale>  2 0.45589071E+03</rscale>
<asrwt>0</asrwt>
<pdfrwt beam="1">  1       21 0.13199741E-01 0.45589071E+03</pdfrwt>
<pdfrwt beam="2">  1       21 0.85129144E-01 0.45589071E+03</pdfrwt>
<totfact> 0.54257108E+04</totfact>
</mgrwt>
</event>
<event>
 7    0  0.4709932E-002  0.4622739E+03  0.7546771E-02  0.1024124E+00
         21   -1    0    0  502  501  0.00000000000E+00  0.00000000000E+00  0.19560402363E+03  0.19560402363E+03  0.00000000000E+00 0.  1.
         21   -1    0    0  501  502 -0.00000000000E+00 -0.00000000000E+00 -0.27312474814E+03  0.27312474814E+03  0.00000000000E+00 0.  1.
      99926    2    1    2    0    0  0.00000000000E+00  0.00000000000E+00 -0.77520724511E+02  0.46872877176E+03  0.46227394340E+03 0.  0.
      99925    2    3    3    0    0  0.83272629319E+02 -0.54622146912E+02 -0.11612690895E+03  0.30424213004E+03  0.26298270853E+03 0.  0.
         25    1    4    4    0    0  0.73357783000E+01 -0.49432857091E+02 -0.59217146362E+02  0.14714482501E+03  0.12509000000E+03 0.  0.
         25    1    3    3    0    0 -0.83272629319E+02  0.54622146912E+02  0.38606184441E+02  0.16448664172E+03  0.12509000000E+03 0.  0.
         25    1    4    4    0    0  0.75936851019E+02 -0.51892898212E+01 -0.56909762590E+02  0.15709730504E+03  0.12509000000E+03 0.  0.
<mgrwt>
<rscale>  2 0.46227394E+03</rscale>
<asrwt>0</asrwt>
<pdfrwt beam="1">  1       21 0.28765298E-01 0.46227394E+03</pdfrwt>
<pdfrwt beam="2">  1       21 0.40165404E-01 0.46227394E+03</pdfrwt>
<totfact> 0.63766493E+04</totfact>
</mgrwt>
</event>
<event>
 7    0  0.4709932E-002  0.4335817E+03  0.7546771E-02  0.1032734E+00
         21   -1    0    0  502  501  0.00000000000E+00  0.00000000000E+00  0.10305192483E+03  0.10305192483E+03  0.00000000000E+00 0. -1.
         21   -1    0    0  501  502 -0.00000000000E+00 -0.00000000000E+00 -0.45606400110E+03  0.45606400110E+03  0.00000000000E+00 0. -1.
      99926    2    1    2    0    0 -0.14210854715E-13 -0.71054273576E-14 -0.35301207627E+03  0.55911592593E+03  0.43358170237E+03 0.  0.
      99925    2    3    3    0    0  0.69228094072E+02  0.60188923371E+02 -0.22769497671E+03  0.35969897818E+03  0.26291275545E+03 0.  0.
         25    1    4    4    0    0  0.58440813453E+02  0.68215201350E+00 -0.13179106661E+03  0.19087217542E+03  0.12509000000E+03 0.  0.
         25    1    4    4    0    0  0.10787280619E+02  0.59506771358E+02 -0.95903910098E+02  0.16882680277E+03  0.12509000000E+03 0.  0.
         25    1    3    3    0    0 -0.69228094072E+02 -0.60188923371E+02 -0.12531709956E+03  0.19941694774E+03  0.12509000000E+03 0.  0.
<mgrwt>
<rscale>  2 0.43358170E+03</rscale>
<asrwt>0</asrwt>
<pdfrwt beam="1">  1       21 0.15154695E-01 0.43358170E+03</pdfrwt>
<pdfrwt beam="2">  1       21 0.67068236E-01 0.43358170E+03</pdfrwt>
<totfact> 0.72847094E+04</totfact>
</mgrwt>
</event>
<event>
 7    0  0.4709932E-002  0.4557127E+03  0.7546771E-02  0.1026032E+00
         21   -1    0    0  502  501  0.00000000000E+00  0.00000000000E+00  0.21984786950E+03  0.21984786950E+03  0.00000000000E+00 0.  1.
         21   -1    0    0  501  502 -0.00000000000E+00 -0.00000000000E+00 -0.23615657803E+03  0.23615657803E+03  0.00000000000E+00 0.  1.
      99926    2    1    2    0    0  0.00000000000E+00  0.00000000000E+00 -0.16308708526E+02  0.45600444753E+03  0.45571271893E+03 0.  0.
      99925    2    3    3    0    0  0.64142399768E+02  0.32671796099E+02  0.78087190483E+02  0.28355217136E+03  0.26291164078E+03 0.  0.
         25    1    3    3    0    0 -0.64142399768E+02 -0.32671796099E+02 -0.94395899009E+02  0.17245227618E+03  0.12509000000E+03 0.  0.
         25    1    4    4    0    0  0.35883590239E+02  0.54016395789E+02  0.24884743405E+02  0.14308096175E+03  0.12509000000E+03 0.  0.
         25    1    4    4    0    0  0.28258809530E+02 -0.21344599690E+02  0.53202447079E+02  0.14047120960E+03  0.12509000000E+03 0.  0.
<mgrwt>
<rscale>  2 0.45571272E+03</rscale>
<asrwt>0</asrwt>
<pdfrwt beam="1">  1       21 0.32330569E-01 0.45571272E+03</pdfrwt>
<pdfrwt beam="2">  1       21 0.34728909E-01 0.45571272E+03</pdfrwt>
<totfact> 0.68084284E+04</totfact>
</mgrwt>
</event>
<event>
 7    0  0.4709932E-002  0.4581775E+03  0.7546771E-02  0.1025311E+00
         21   -1    0    0  502  501  0.00000000000E+00  0.00000000000E+00  0.72772228465E+02  0.72772228465E+02  0.00000000000E+00 0.  1.
         21   -1    0    0  501  502 -0.00000000000E+00 -0.00000000000E+00 -0.72117703675E+03  0.72117703675E+03  0.00000000000E+00 0.  1.
      99926    2    1    2    0    0  0.00000000000E+00 -0.14210854715E-13 -0.64840480828E+03  0.79394926521E+03  0.45817752054E+03 0.  0.
      99925    2    3    3    0    0  0.82590220882E+02  0.76583027416E+02 -0.45545210401E+03  0.53789388281E+03  0.26307243382E+03 0.  0.
         25    1    4    4    0    0  0.25164170876E+02  0.38189827794E+02 -0.14954378068E+03  0.20025620810E+03  0.12509000000E+03 0.  0.
         25    1    3    3    0    0 -0.82590220882E+02 -0.76583027416E+02 -0.19295270427E+03  0.25605538240E+03  0.12509000000E+03 0.  0.
         25    1    4    4    0    0  0.57426050005E+02  0.38393199622E+02 -0.30590832334E+03  0.33763767471E+03  0.12509000000E+03 0.  0.
<mgrwt>
<rscale>  2 0.45817752E+03</rscale>
<asrwt>0</asrwt>
<pdfrwt beam="1">  1       21 0.10701799E-01 0.45817752E+03</pdfrwt>
<pdfrwt beam="2">  1       21 0.10605544E+00 0.45817752E+03</pdfrwt>
<totfact> 0.46878851E+04</totfact>
</mgrwt>
</event>
<event>
 7    0  0.4709932E-002  0.4244457E+03  0.7546771E-02  0.1035629E+00
         21   -1    0    0  502  501  0.00000000000E+00  0.00000000000E+00  0.16230000399E+03  0.16230000399E+03  0.00000000000E+00 0. -1.
         21   -1    0    0  501  502 -0.00000000000E+00 -0.00000000000E+00 -0.27750176011E+03  0.27750176011E+03  0.00000000000E+00 0. -1.
      99926    2    1    2    0    0  0.00000000000E+00  0.00000000000E+00 -0.11520175613E+03  0.43980176410E+03  0.42444569392E+03 0.  0.
      99925    2    3    3    0    0 -0.53039070338E+02  0.59630903828E+02 -0.85893806064E+02  0.28855543617E+03  0.26366172675E+03 0.  0.
         25    1    4    4    0    0 -0.24183561919E+02  0.70680787219E+02 -0.57366225594E+02  0.15658547279E+03  0.12509000000E+03 0.  0.
         25    1    3    3    0    0  0.53039070338E+02 -0.59630903828E+02 -0.29307950061E+02  0.15124632792E+03  0.12509000000E+03 0.  0.
         25    1    4    4    0    0 -0.28855508419E+02 -0.11049883391E+02 -0.28527580470E+02  0.13196996339E+03  0.12509000000E+03 0.  0.
<mgrwt>
<rscale>  2 0.42444569E+03</rscale>
<asrwt>0</asrwt>
<pdfrwt beam="1">  1       21 0.23867648E-01 0.42444569E+03</pdfrwt>
<pdfrwt beam="2">  1       21 0.40809082E-01 0.42444569E+03</pdfrwt>
<totfact> 0.89566153E+04</totfact>
</mgrwt>
</event>
<event>
 7    0  0.4709932E-002  0.4599759E+03  0.7546771E-02  0.1024788E+00
         21   -1    0    0  502  501  0.00000000000E+00  0.00000000000E+00  0.49572962260E+02  0.49572962260E+02  0.00000000000E+00 0.  1.
         21   -1    0    0  501  502 -0.00000000000E+00 -0.00000000000E+00 -0.10670020925E+04  0.10670020925E+04  0.00000000000E+00 0.  1.
      99926    2    1    2    0    0  0.00000000000E+00  0.00000000000E+00 -0.10174291303E+04  0.11165750548E+04  0.45997588834E+03 0.  0.
      99925    2    3    3    0    0 -0.10168039402E+03 -0.23659670385E+02 -0.50473591242E+03  0.57861545941E+03  0.26294262882E+03 0.  0.
         25    1    4    4    0    0 -0.56438381681E+02 -0.44789876481E+02 -0.21325025534E+03  0.25751621980E+03  0.12509000000E+03 0.  0.
         25    1    3    3    0    0  0.10168039402E+03  0.23659670385E+02 -0.51269321784E+03  0.53795959537E+03  0.12509000000E+03 0.  0.
         25    1    4    4    0    0 -0.45242012335E+02  0.21130206095E+02 -0.29148565709E+03  0.32109923961E+03  0.12509000000E+03 0.  0.
<mgrwt>
<rscale>  2 0.45997589E+03</rscale>
<asrwt>0</asrwt>
<pdfrwt beam="1">  1       21 0.72901416E-02 0.45997589E+03</pdfrwt>
<pdfrwt beam="2">  1       21 0.15691207E+00 0.45997589E+03</pdfrwt>
<totfact> 0.33595740E+04</totfact>
</mgrwt>
</event>
<event>
 7    0  0.4709932E-002  0.4622573E+03  0.7546771E-02  0.1024129E+00
         21   -1    0    0  502  501  0.00000000000E+00  0.00000000000E+00  0.73944493499E+02  0.73944493499E+02  0.00000000000E+00 0. -1.
         21   -1    0    0  501  502 -0.00000000000E+00 -0.00000000000E+00 -0.72244005061E+03  0.72244005061E+03  0.00000000000E+00 0. -1.
      99926    2    1    2    0    0  0.71054273576E-14  0.00000000000E+00 -0.64849555711E+03  0.79638454411E+03  0.46225734662E+03 0.  0.
      99925    2    3    3    0    0  0.42803067355E+02  0.65370148855E+02 -0.24887913859E+03  0.37041958195E+03  0.26299141075E+03 0.  0.
         25    1    3    3    0    0 -0.42803067355E+02 -0.65370148855E+02 -0.39961641852E+03  0.42596496216E+03  0.12509000000E+03 0.  0.
         25    1    4    4    0    0 -0.16250405844E+02  0.18003921114E+02 -0.12932023752E+03  0.18154737342E+03  0.12509000000E+03 0.  0.
         25    1    4    4    0    0  0.59053473199E+02  0.47366227742E+02 -0.11955890107E+03  0.18887220853E+03  0.12509000000E+03 0.  0.
<mgrwt>
<rscale>  2 0.46225735E+03</rscale>
<asrwt>0</asrwt>
<pdfrwt beam="1">  1       21 0.10874191E-01 0.46225735E+03</pdfrwt>
<pdfrwt beam="2">  1       21 0.10624118E+00 0.46225735E+03</pdfrwt>
<totfact> 0.45304223E+04</totfact>
</mgrwt>
</event>
<event>
 7    0  0.4709932E-002  0.4645017E+03  0.7546771E-02  0.1023484E+00
         21   -1    0    0  502  501  0.00000000000E+00  0.00000000000E+00  0.73376405481E+03  0.73376405481E+03  0.00000000000E+00 0.  1.
         21   -1    0    0  501  502 -0.00000000000E+00 -0.00000000000E+00 -0.73511978659E+02  0.73511978659E+02  0.00000000000E+00 0.  1.
      99926    2    1    2    0    0  0.35527136788E-14  0.00000000000E+00  0.66025207615E+03  0.80727603347E+03  0.46450165786E+03 0.  0.
      99925    2    3    3    0    0 -0.31129438261E+02 -0.95639070457E+02  0.53158330900E+03  0.60156012873E+03  0.26301692025E+03 0.  0.
         25    1    3    3    0    0  0.31129438261E+02  0.95639070457E+02  0.12866876715E+03  0.20571590474E+03  0.12509000000E+03 0.  0.
         25    1    4    4    0    0 -0.46340179878E+02 -0.45895199984E+02  0.32764999710E+03  0.35672932365E+03  0.12509000000E+03 0.  0.
         25    1    4    4    0    0  0.15210741617E+02 -0.49743870473E+02  0.20393331190E+03  0.24483080508E+03  0.12509000000E+03 0.  0.
<mgrwt>
<rscale>  2 0.46450166E+03</rscale>
<asrwt>0</asrwt>
<pdfrwt beam="1">  1       21 0.10790647E+00 0.46450166E+03</pdfrwt>
<pdfrwt beam="2">  1       21 0.10810586E-01 0.46450166E+03</pdfrwt>
<totfact> 0.44038294E+04</totfact>
</mgrwt>
</event>
<event>
 7    0  0.4709932E-002  0.4622395E+03  0.7546771E-02  0.1024134E+00
         21   -1    0    0  502  501  0.00000000000E+00  0.00000000000E+00  0.51301686155E+02  0.51301686155E+02  0.00000000000E+00 0. -1.
         21   -1    0    0  501  502 -0.00000000000E+00 -0.00000000000E+00 -0.10412198074E+04  0.10412198074E+04  0.00000000000E+00 0. -1.
      99926    2    1    2    0    0  0.00000000000E+00  0.00000000000E+00 -0.98991812128E+03  0.10925214936E+04  0.46223946945E+03 0.  0.
      99925    2    3    3    0    0  0.80986773274E+02 -0.40107608814E+02 -0.80458365020E+03  0.85134966273E+03  0.26319939273E+03 0.  0.
         25    1    4    4    0    0  0.25168757338E+02 -0.53033743143E+02 -0.46025464194E+03  0.48054956850E+03  0.12509000000E+03 0.  0.
         25    1    3    3    0    0 -0.80986773274E+02  0.40107608814E+02 -0.18533447108E+03  0.24117183086E+03  0.12509000000E+03 0.  0.
         25    1    4    4    0    0  0.55818015936E+02  0.12926134329E+02 -0.34432900825E+03  0.37080009422E+03  0.12509000000E+03 0.  0.
<mgrwt>
<rscale>  2 0.46223947E+03</rscale>
<asrwt>0</asrwt>
<pdfrwt beam="1">  1       21 0.75443658E-02 0.46223947E+03</pdfrwt>
<pdfrwt beam="2">  1       21 0.15312056E+00 0.46223947E+03</pdfrwt>
<totfact> 0.33804616E+04</totfact>
</mgrwt>
</event>
<event>
 7    0  0.4709932E-002  0.4493728E+03  0.7546771E-02  0.1027909E+00
         21   -1    0    0  502  501  0.00000000000E+00  0.00000000000E+00  0.10674319564E+04  0.10674319564E+04  0.00000000000E+00 0.  1.
         21   -1    0    0  501  502 -0.00000000000E+00 -0.00000000000E+00 -0.47294804020E+02  0.47294804020E+02  0.00000000000E+00 0.  1.
      99926    2    1    2    0    0  0.00000000000E+00  0.00000000000E+00  0.10201371524E+04  0.11147267604E+04  0.44937283043E+03 0.  0.
      99925    2    3    3    0    0  0.10557983196E+03  0.10338195223E+02  0.59859376143E+03  0.66239909406E+03  0.26306670142E+03 0.  0.
         25    1    4    4    0    0  0.16458872446E+02  0.21922171165E+02  0.30665630476E+03  0.33232073878E+03  0.12509000000E+03 0.  0.
         25    1    4    4    0    0  0.89120959511E+02 -0.11583975943E+02  0.29193745667E+03  0.33007835528E+03  0.12509000000E+03 0.  0.
         25    1    3    3    0    0 -0.10557983196E+03 -0.10338195223E+02  0.42154339093E+03  0.45232766634E+03  0.12509000000E+03 0.  0.
<mgrwt>
<rscale>  2 0.44937283E+03</rscale>
<asrwt>0</asrwt>
<pdfrwt beam="1">  1       21 0.15697527E+00 0.44937283E+03</pdfrwt>
<pdfrwt beam="2">  1       21 0.69551189E-02 0.44937283E+03</pdfrwt>
<totfact> 0.36559933E+04</totfact>
</mgrwt>
</event>
<event>
 7    0  0.4709932E-002  0.4555464E+03  0.7546771E-02  0.1026081E+00
         21   -1    0    0  502  501  0.00000000000E+00  0.00000000000E+00  0.21129258451E+04  0.21129258451E+04  0.00000000000E+00 0.  1.
         21   -1    0    0  501  502 -0.00000000000E+00 -0.00000000000E+00 -0.24553928895E+02  0.24553928895E+02  0.00000000000E+00 0.  1.
      99926    2    1    2    0    0  0.51625370645E-14  0.00000000000E+00  0.20883719162E+04  0.21374797740E+04  0.45554640142E+03 0.  0.
      99925    2    3    3    0    0  0.39935935323E+00 -0.99345625699E+02  0.10530990590E+04  0.10899554975E+04  0.26289854636E+03 0.  0.
         25    1    3    3    0    0 -0.39935935323E+00  0.99345625699E+02  0.10352728572E+04  0.10475242765E+04  0.12509000000E+03 0.  0.
         25    1    4    4    0    0 -0.39191289340E+02 -0.57699314293E+02  0.55559737069E+03  0.57376050269E+03  0.12509000000E+03 0.  0.
         25    1    4    4    0    0  0.39590648694E+02 -0.41646311407E+02  0.49750168828E+03  0.51619499480E+03  0.12509000000E+03 0.  0.
<mgrwt>
<rscale>  2 0.45554640E+03</rscale>
<asrwt>0</asrwt>
<pdfrwt beam="1">  1       21 0.31072426E+00 0.45554640E+03</pdfrwt>
<pdfrwt beam="2">  1       21 0.36108733E-02 0.45554640E+03</pdfrwt>
<totfact> 0.11543234E+04</totfact>
</mgrwt>
</event>
<event>
 7    0  0.4709932E-002  0.4623173E+03  0.7546771E-02  0.1024111E+00
         21   -1    0    0  502  501  0.00000000000E+00  0.00000000000E+00  0.62892260454E+03  0.62892260454E+03  0.00000000000E+00 0.  1.
         21   -1    0    0  501  502 -0.00000000000E+00 -0.00000000000E+00 -0.84961664279E+02  0.84961664279E+02  0.00000000000E+00 0.  1.
      99926    2    1    2    0    0  0.00000000000E+00 -0.35527136788E-14  0.54396094026E+03  0.71388426882E+03  0.46231725551E+03 0.  0.
      99925    2    3    3    0    0 -0.36089293906E+02  0.28876743250E+02  0.51091381228E+03  0.57649458870E+03  0.26301479766E+03 0.  0.
         25    1    4    4    0    0 -0.54203157224E+02  0.32958481580E+02  0.28291114272E+03  0.31576964157E+03  0.12509000000E+03 0.  0.
         25    1    3    3    0    0  0.36089293906E+02 -0.28876743250E+02  0.33047127986E+02  0.13738968012E+03  0.12509000000E+03 0.  0.
         25    1    4    4    0    0  0.18113863317E+02 -0.40817383301E+01  0.22800266956E+03  0.26072494713E+03  0.12509000000E+03 0.  0.
<mgrwt>
<rscale>  2 0.46231726E+03</rscale>
<asrwt>0</asrwt>
<pdfrwt beam="1">  1       21 0.92488616E-01 0.46231726E+03</pdfrwt>
<pdfrwt beam="2">  1       21 0.12494363E-01 0.46231726E+03</pdfrwt>
<totfact> 0.49258245E+04</totfact>
</mgrwt>
</event>
<event>
 7    0  0.4709932E-002  0.4524042E+03  0.7546771E-02  0.1027008E+00
         21   -1    0    0  502  501  0.00000000000E+00  0.00000000000E+00  0.89207538925E+03  0.89207538925E+03  0.00000000000E+00 0. -1.
         21   -1    0    0  501  502 -0.00000000000E+00 -0.00000000000E+00 -0.57357696501E+02  0.57357696501E+02  0.00000000000E+00 0. -1.
      99926    2    1    2    0    0  0.35527136788E-14  0.00000000000E+00  0.83471769275E+03  0.94943308575E+03  0.45240419729E+03 0.  0.
      99925    2    3    3    0    0  0.27305190901E+02 -0.92918563532E+02  0.64052835003E+03  0.69896064850E+03  0.26246902304E+03 0.  0.
         25    1    4    4    0    0  0.32530125643E+01 -0.52812380513E+02  0.41717115234E+03  0.43872429619E+03  0.12509000000E+03 0.  0.
         25    1    4    4    0    0  0.24052178337E+02 -0.40106183019E+02  0.22335719769E+03  0.26023635230E+03  0.12509000000E+03 0.  0.
         25    1    3    3    0    0 -0.27305190901E+02  0.92918563532E+02  0.19418934272E+03  0.25047243726E+03  0.12509000000E+03 0.  0.
<mgrwt>
<rscale>  2 0.45240420E+03</rscale>
<asrwt>0</asrwt>
<pdfrwt beam="1">  1       21 0.13118755E+00 0.45240420E+03</pdfrwt>
<pdfrwt beam="2">  1       21 0.84349559E-02 0.45240420E+03</pdfrwt>
<totfact> 0.42010058E+04</totfact>
</mgrwt>
</event>
<event>
 7    0  0.4709932E-002  0.4550427E+03  0.7546771E-02  0.1026229E+00
         21   -1    0    0  502  501  0.00000000000E+00  0.00000000000E+00  0.95324514370E+02  0.95324514370E+02  0.00000000000E+00 0.  1.
         21   -1    0    0  501  502 -0.00000000000E+00 -0.00000000000E+00 -0.54304994333E+03  0.54304994333E+03  0.00000000000E+00 0.  1.
      99926    2    1    2    0    0  0.00000000000E+00  0.00000000000E+00 -0.44772542896E+03  0.63837445770E+03  0.45504273261E+03 0.  0.
      99925    2    3    3    0    0 -0.57052670164E+02  0.93766544347E+02 -0.32059477167E+03  0.42895410498E+03  0.26300844956E+03 0.  0.
         25    1    4    4    0    0 -0.56392493827E+02  0.76881225758E+02 -0.19938837079E+03  0.25395682062E+03  0.12509000000E+03 0.  0.
         25    1    4    4    0    0 -0.66017633677E+00  0.16885318589E+02 -0.12120640089E+03  0.17499728436E+03  0.12509000000E+03 0.  0.
         25    1    3    3    0    0  0.57052670164E+02 -0.93766544347E+02 -0.12713065728E+03  0.20942035272E+03  0.12509000000E+03 0.  0.
<mgrwt>
<rscale>  2 0.45504273E+03</rscale>
<asrwt>0</asrwt>
<pdfrwt beam="1">  1       21 0.14018311E-01 0.45504273E+03</pdfrwt>
<pdfrwt beam="2">  1       21 0.79860287E-01 0.45504273E+03</pdfrwt>
<totfact> 0.56357245E+04</totfact>
</mgrwt>
</event>
<event>
 7    0  0.4709932E-002  0.4456469E+03  0.7546771E-02  0.1029028E+00
         21   -1    0    0  502  501  0.00000000000E+00  0.00000000000E+00  0.21488348830E+03  0.21488348830E+03  0.00000000000E+00 0. -1.
         21   -1    0    0  501  502 -0.00000000000E+00 -0.00000000000E+00 -0.23105681441E+03  0.23105681441E+03  0.00000000000E+00 0. -1.
      99926    2    1    2    0    0  0.00000000000E+00 -0.88817841970E-15 -0.16173326109E+02  0.44594030272E+03  0.44564691978E+03 0.  0.
      99925    2    3    3    0    0  0.74661038136E+02 -0.59103029608E+01 -0.83704130908E+02  0.28526323530E+03  0.26222038362E+03 0.  0.
         25    1    4    4    0    0  0.34294711952E+02  0.35000017444E+02 -0.31132893226E+02  0.13790537926E+03  0.12509000000E+03 0.  0.
         25    1    3    3    0    0 -0.74661038136E+02  0.59103029608E+01  0.67530804798E+02  0.16067706742E+03  0.12509000000E+03 0.  0.
         25    1    4    4    0    0  0.40366326184E+02 -0.40910320405E+02 -0.52571237682E+02  0.14735785604E+03  0.12509000000E+03 0.  0.
<mgrwt>
<rscale>  2 0.44564692E+03</rscale>
<asrwt>0</asrwt>
<pdfrwt beam="1">  1       21 0.31600513E-01 0.44564692E+03</pdfrwt>
<pdfrwt beam="2">  1       21 0.33978943E-01 0.44564692E+03</pdfrwt>
<totfact> 0.74630583E+04</totfact>
</mgrwt>
</event>
<event>
 7    0  0.4709932E-002  0.4494014E+03  0.7546771E-02  0.1027901E+00
         21   -1    0    0  502  501  0.00000000000E+00  0.00000000000E+00  0.20594072507E+03  0.20594072507E+03  0.00000000000E+00 0. -1.
         21   -1    0    0  501  502 -0.00000000000E+00 -0.00000000000E+00 -0.24516956836E+03  0.24516956836E+03  0.00000000000E+00 0. -1.
      99926    2    1    2    0    0  0.13322676296E-14 -0.14210854715E-13 -0.39228843288E+02  0.45111029343E+03  0.44940137371E+03 0.  0.
      99925    2    3    3    0    0 -0.37617204843E+01 -0.10042007478E+03  0.14391095328E+02  0.28193302581E+03  0.26302240486E+03 0.  0.
         25    1    4    4    0    0  0.25540757537E+02 -0.81492200318E+02  0.13551361749E+02  0.15206727627E+03  0.12509000000E+03 0.  0.
         25    1    4    4    0    0 -0.29302478021E+02 -0.18927874467E+02  0.83973357875E+00  0.12986574954E+03  0.12509000000E+03 0.  0.
         25    1    3    3    0    0  0.37617204843E+01  0.10042007478E+03 -0.53619938616E+02  0.16917726762E+03  0.12509000000E+03 0.  0.
<mgrwt>
<rscale>  2 0.44940137E+03</rscale>
<asrwt>0</asrwt>
<pdfrwt beam="1">  1       21 0.30285401E-01 0.44940137E+03</pdfrwt>
<pdfrwt beam="2">  1       21 0.36054348E-01 0.44940137E+03</pdfrwt>
<totfact> 0.71994318E+04</totfact>
</mgrwt>
</event>
<event>
 7    0  0.4709932E-002  0.4551042E+03  0.7546771E-02  0.1026211E+00
         21   -1    0    0  502  501  0.00000000000E+00  0.00000000000E+00  0.55773984199E+03  0.55773984199E+03  0.00000000000E+00 0. -1.
         21   -1    0    0  501  502 -0.00000000000E+00 -0.00000000000E+00 -0.92838903322E+02  0.92838903322E+02  0.00000000000E+00 0. -1.
      99926    2    1    2    0    0  0.22204460493E-14  0.00000000000E+00  0.46490093867E+03  0.65057874531E+03  0.45510418706E+03 0.  0.
      99925    2    3    3    0    0  0.63864694256E+00  0.76854045258E+02  0.41153918417E+03  0.49436755146E+03  0.26292170637E+03 0.  0.
         25    1    4    4    0    0 -0.30914228136E+02  0.18441892187E+02  0.16640857811E+03  0.21127024367E+03  0.12509000000E+03 0.  0.
         25    1    4    4    0    0  0.31552875078E+02  0.58412153071E+02  0.24513060606E+03  0.28309730779E+03  0.12509000000E+03 0.  0.
         25    1    3    3    0    0 -0.63864694256E+00 -0.76854045258E+02  0.53361754495E+02  0.15621119385E+03  0.12509000000E+03 0.  0.
<mgrwt>
<rscale>  2 0.45510419E+03</rscale>
<asrwt>0</asrwt>
<pdfrwt beam="1">  1       21 0.82020563E-01 0.45510419E+03</pdfrwt>
<pdfrwt beam="2">  1       21 0.13652780E-01 0.45510419E+03</pdfrwt>
<totfact> 0.55622431E+04</totfact>
</mgrwt>
</event>
<event>
 7    0  0.4709932E-002  0.4536607E+03  0.7546771E-02  0.1026636E+00
         21   -1    0    0  502  501  0.00000000000E+00  0.00000000000E+00  0.35606498325E+03  0.35606498325E+03  0.00000000000E+00 0. -1.
         21   -1    0    0  501  502 -0.00000000000E+00 -0.00000000000E+00 -0.14450171488E+03  0.14450171488E+03  0.00000000000E+00 0. -1.
      99926    2    1    2    0    0  0.71054273576E-14 -0.14210854715E-13  0.21156326837E+03  0.50056669814E+03  0.45366066918E+03 0.  0.
      99925    2    3    3    0    0 -0.40109786855E+02  0.79801785520E+02  0.20768728078E+03  0.34681478318E+03  0.26300069821E+03 0.  0.
         25    1    3    3    0    0  0.40109786855E+02 -0.79801785520E+02  0.38759875869E+01  0.15375191496E+03  0.12509000000E+03 0.  0.
         25    1    4    4    0    0 -0.60517607259E+02  0.37176875493E+02  0.10128636612E+03  0.17592878366E+03  0.12509000000E+03 0.  0.
         25    1    4    4    0    0  0.20407820404E+02  0.42624910028E+02  0.10640091466E+03  0.17088599951E+03  0.12509000000E+03 0.  0.
<mgrwt>
<rscale>  2 0.45366067E+03</rscale>
<asrwt>0</asrwt>
<pdfrwt beam="1">  1       21 0.52362498E-01 0.45366067E+03</pdfrwt>
<pdfrwt beam="2">  1       21 0.21250252E-01 0.45366067E+03</pdfrwt>
<totfact> 0.65929005E+04</totfact>
</mgrwt>
</event>
<event>
 7    0  0.4709932E-002  0.4559062E+03  0.7546771E-02  0.1025975E+00
         21   -1    0    0  502  501  0.00000000000E+00  0.00000000000E+00  0.70360333368E+02  0.70360333368E+02  0.00000000000E+00 0. -1.
         21   -1    0    0  501  502 -0.00000000000E+00 -0.00000000000E+00 -0.73852151693E+03  0.73852151693E+03  0.00000000000E+00 0. -1.
      99926    2    1    2    0    0  0.14210854715E-13  0.26645352591E-14 -0.66816118356E+03  0.80888185030E+03  0.45590621900E+03 0.  0.
      99925    2    3    3    0    0 -0.11169946481E+03 -0.73498407197E+01 -0.38483298186E+03  0.47955956350E+03  0.26334418624E+03 0.  0.
         25    1    4    4    0    0 -0.57593010318E+02 -0.37632574595E+02 -0.23331504263E+03  0.27352620116E+03  0.12509000000E+03 0.  0.
         25    1    4    4    0    0 -0.54106454489E+02  0.30282733875E+02 -0.15151793923E+03  0.20603336234E+03  0.12509000000E+03 0.  0.
         25    1    3    3    0    0  0.11169946481E+03  0.73498407197E+01 -0.28332820171E+03  0.32932228679E+03  0.12509000000E+03 0.  0.
<mgrwt>
<rscale>  2 0.45590622E+03</rscale>
<asrwt>0</asrwt>
<pdfrwt beam="1">  1       21 0.10347108E-01 0.45590622E+03</pdfrwt>
<pdfrwt beam="2">  1       21 0.10860610E+00 0.45590622E+03</pdfrwt>
<totfact> 0.47003055E+04</totfact>
</mgrwt>
</event>
<event>
 7    0  0.4709932E-002  0.4546188E+03  0.7546771E-02  0.1026354E+00
         21   -1    0    0  502  501  0.00000000000E+00  0.00000000000E+00  0.87854424261E+03  0.87854424261E+03  0.00000000000E+00 0. -1.
         21   -1    0    0  501  502 -0.00000000000E+00 -0.00000000000E+00 -0.58812706968E+02  0.58812706968E+02  0.00000000000E+00 0. -1.
      99926    2    1    2    0    0 -0.88817841970E-15  0.00000000000E+00  0.81973153565E+03  0.93735694958E+03  0.45461880779E+03 0.  0.
      99925    2    3    3    0    0 -0.77367037350E+01  0.16297715038E+02  0.28544907544E+03  0.38832987604E+03  0.26266603483E+03 0.  0.
         25    1    4    4    0    0 -0.37621196531E+02 -0.51148402651E+01  0.16784025819E+03  0.21274251195E+03  0.12509000000E+03 0.  0.
         25    1    4    4    0    0  0.29884492796E+02  0.21412555303E+02  0.11760881725E+03  0.17558736409E+03  0.12509000000E+03 0.  0.
         25    1    3    3    0    0  0.77367037350E+01 -0.16297715038E+02  0.53428246020E+03  0.54902707354E+03  0.12509000000E+03 0.  0.
<mgrwt>
<rscale>  2 0.45461881E+03</rscale>
<asrwt>0</asrwt>
<pdfrwt beam="1">  1       21 0.12919768E+00 0.45461881E+03</pdfrwt>
<pdfrwt beam="2">  1       21 0.86489280E-02 0.45461881E+03</pdfrwt>
<totfact> 0.41781468E+04</totfact>
</mgrwt>
</event>
<event>
 7    0  0.4709932E-002  0.4696411E+03  0.7546771E-02  0.1022022E+00
         21   -1    0    0  502  501  0.00000000000E+00  0.00000000000E+00  0.14220620186E+03  0.14220620186E+03  0.00000000000E+00 0.  1.
         21   -1    0    0  501  502 -0.00000000000E+00 -0.00000000000E+00 -0.38775166165E+03  0.38775166165E+03  0.00000000000E+00 0.  1.
      99926    2    1    2    0    0  0.00000000000E+00  0.00000000000E+00 -0.24554545979E+03  0.52995786351E+03  0.46964110155E+03 0.  0.
      99925    2    3    3    0    0 -0.27543314529E+02  0.10535360203E+03 -0.22496690476E+03  0.36283814396E+03  0.26302736519E+03 0.  0.
         25    1    4    4    0    0 -0.27969037426E+02  0.94151416545E+02 -0.12250557098E+03  0.20075327971E+03  0.12509000000E+03 0.  0.
         25    1    3    3    0    0  0.27543314529E+02 -0.10535360203E+03 -0.20578555036E+02  0.16711971955E+03  0.12509000000E+03 0.  0.
         25    1    4    4    0    0  0.42572289642E+00  0.11202185480E+02 -0.10246133377E+03  0.16208486425E+03  0.12509000000E+03 0.  0.
<mgrwt>
<rscale>  2 0.46964110E+03</rscale>
<asrwt>0</asrwt>
<pdfrwt beam="1">  1       21 0.20912677E-01 0.46964110E+03</pdfrwt>
<pdfrwt beam="2">  1       21 0.57022302E-01 0.46964110E+03</pdfrwt>
<totfact> 0.56375318E+04</totfact>
</mgrwt>
</event>
<event>
 7    0  0.4709932E-002  0.4493677E+03  0.7546771E-02  0.1027911E+00
         21   -1    0    0  502  501  0.00000000000E+00  0.00000000000E+00  0.11151996997E+04  0.11151996997E+04  0.00000000000E+00 0.  1.
         21   -1    0    0  501  502 -0.00000000000E+00 -0.00000000000E+00 -0.45267969388E+02  0.45267969388E+02  0.00000000000E+00 0.  1.
      99926    2    1    2    0    0  0.00000000000E+00  0.35527136788E-14  0.10699317304E+04  0.11604676691E+04  0.44936767071E+03 0.  0.
      99925    2    3    3    0    0 -0.10259454710E+03 -0.31360123338E+02  0.65454025042E+03  0.71358212659E+03  0.26318703148E+03 0.  0.
         25    1    3    3    0    0  0.10259454710E+03  0.31360123338E+02  0.41539147994E+03  0.44688554255E+03  0.12509000000E+03 0.  0.
         25    1    4    4    0    0 -0.41975332305E+02  0.12261041020E+02  0.38533196689E+03  0.40748066759E+03  0.12509000000E+03 0.  0.
         25    1    4    4    0    0 -0.60619214795E+02 -0.43621164357E+02  0.26920828352E+03  0.30610145900E+03  0.12509000000E+03 0.  0.
<mgrwt>
<rscale>  2 0.44936767E+03</rscale>
<asrwt>0</asrwt>
<pdfrwt beam="1">  1       21 0.16399994E+00 0.44936767E+03</pdfrwt>
<pdfrwt beam="2">  1       21 0.66570550E-02 0.44936767E+03</pdfrwt>
<totfact> 0.34943520E+04</totfact>
</mgrwt>
</event>
<event>
 7    0  0.4709932E-002  0.4576062E+03  0.7546771E-02  0.1025478E+00
         21   -1    0    0  502  501  0.00000000000E+00  0.00000000000E+00  0.11346121020E+03  0.11346121020E+03  0.00000000000E+00 0. -1.
         21   -1    0    0  501  502 -0.00000000000E+00 -0.00000000000E+00 -0.46139871824E+03  0.46139871824E+03  0.00000000000E+00 0. -1.
      99926    2    1    2    0    0  0.00000000000E+00  0.00000000000E+00 -0.34793750804E+03  0.57485992844E+03  0.45760619295E+03 0.  0.
      99925    2    3    3    0    0 -0.11380993320E+03  0.19942165692E+02 -0.21430104109E+03  0.35839606479E+03  0.26300648696E+03 0.  0.
         25    1    4    4    0    0 -0.89528594258E+02 -0.86508793500E+01 -0.91835691366E+02  0.17936418040E+03  0.12509000000E+03 0.  0.
         25    1    3    3    0    0  0.11380993320E+03 -0.19942165692E+02 -0.13363646695E+03  0.21646386365E+03  0.12509000000E+03 0.  0.
         25    1    4    4    0    0 -0.24281338938E+02  0.28593045042E+02 -0.12246534972E+03  0.17903188439E+03  0.12509000000E+03 0.  0.
<mgrwt>
<rscale>  2 0.45760619E+03</rscale>
<asrwt>0</asrwt>
<pdfrwt beam="1">  1       21 0.16685472E-01 0.45760619E+03</pdfrwt>
<pdfrwt beam="2">  1       21 0.67852753E-01 0.45760619E+03</pdfrwt>
<totfact> 0.59027219E+04</totfact>
</mgrwt>
</event>
<event>
 7    0  0.4709932E-002  0.4620332E+03  0.7546771E-02  0.1024193E+00
         21   -1    0    0  502  501  0.00000000000E+00  0.00000000000E+00  0.29363017066E+03  0.29363017066E+03  0.00000000000E+00 0.  1.
         21   -1    0    0  501  502 -0.00000000000E+00 -0.00000000000E+00 -0.18175471987E+03  0.18175471987E+03  0.00000000000E+00 0.  1.
      99926    2    1    2    0    0  0.00000000000E+00  0.71054273576E-14  0.11187545080E+03  0.47538489053E+03  0.46203319973E+03 0.  0.
      99925    2    3    3    0    0 -0.73491101096E+02 -0.24163257140E+02  0.16357236389E+03  0.31948465365E+03  0.26330537547E+03 0.  0.
         25    1    4    4    0    0 -0.73509698963E+02 -0.33732057409E+02  0.86887143545E+02  0.17244828602E+03  0.12509000000E+03 0.  0.
         25    1    3    3    0    0  0.73491101096E+02  0.24163257140E+02 -0.51696913095E+02  0.15590023688E+03  0.12509000000E+03 0.  0.
         25    1    4    4    0    0  0.18597866915E-01  0.95688002694E+01  0.76685220347E+02  0.14703636762E+03  0.12509000000E+03 0.  0.
<mgrwt>
<rscale>  2 0.46203320E+03</rscale>
<asrwt>0</asrwt>
<pdfrwt beam="1">  1       21 0.43180908E-01 0.46203320E+03</pdfrwt>
<pdfrwt beam="2">  1       21 0.26728635E-01 0.46203320E+03</pdfrwt>
<totfact> 0.63424017E+04</totfact>
</mgrwt>
</event>
<event>
 7    0  0.4709932E-002  0.4548867E+03  0.7546771E-02  0.1026275E+00
         21   -1    0    0  502  501  0.00000000000E+00  0.00000000000E+00  0.56883503096E+03  0.56883503096E+03  0.00000000000E+00 0. -1.
         21   -1    0    0  501  502 -0.00000000000E+00 -0.00000000000E+00 -0.90941082503E+02  0.90941082503E+02  0.00000000000E+00 0. -1.
      99926    2    1    2    0    0 -0.53290705182E-14  0.00000000000E+00  0.47789394846E+03  0.65977611347E+03  0.45488668251E+03 0.  0.
      99925    2    3    3    0    0  0.12857636384E+02  0.10890849773E+03  0.26116021088E+03  0.38655934825E+03  0.26305340575E+03 0.  0.
         25    1    4    4    0    0 -0.33632818876E+02  0.45961944707E+02  0.12661512724E+03  0.18687580210E+03  0.12509000000E+03 0.  0.
         25    1    4    4    0    0  0.46490455260E+02  0.62946553023E+02  0.13454508364E+03  0.19968354614E+03  0.12509000000E+03 0.  0.
         25    1    3    3    0    0 -0.12857636384E+02 -0.10890849773E+03  0.21673373758E+03  0.27321676522E+03  0.12509000000E+03 0.  0.
<mgrwt>
<rscale>  2 0.45488668E+03</rscale>
<asrwt>0</asrwt>
<pdfrwt beam="1">  1       21 0.83652209E-01 0.45488668E+03</pdfrwt>
<pdfrwt beam="2">  1       21 0.13373689E-01 0.45488668E+03</pdfrwt>
<totfact> 0.55190679E+04</totfact>
</mgrwt>
</event>
<event>
 7    0  0.4709932E-002  0.4119320E+03  0.7546771E-02  0.1039725E+00
         21   -1    0    0  502  501  0.00000000000E+00  0.00000000000E+00  0.21062883431E+03  0.21062883431E+03  0.00000000000E+00 0.  1.
         21   -1    0    0  501  502 -0.00000000000E+00 -0.00000000000E+00 -0.20140637806E+03  0.20140637806E+03  0.00000000000E+00 0.  1.
      99926    2    1    2    0    0  0.00000000000E+00  0.00000000000E+00  0.92224562519E+01  0.41203521237E+03  0.41193198775E+03 0.  0.
      99925    2    3    3    0    0  0.36160168273E+02  0.28747094405E+02 -0.39378943343E+02  0.27010721179E+03  0.26319812210E+03 0.  0.
         25    1    3    3    0    0 -0.36160168273E+02 -0.28747094405E+02  0.48601399595E+02  0.14192800058E+03  0.12509000000E+03 0.  0.
         25    1    4    4    0    0  0.28900577969E+02 -0.24382462171E+02 -0.11526028062E+02  0.13118729089E+03  0.12509000000E+03 0.  0.
         25    1    4    4    0    0  0.72595903041E+01  0.53129556576E+02 -0.27852915281E+02  0.13891992090E+03  0.12509000000E+03 0.  0.
<mgrwt>
<rscale>  2 0.41193199E+03</rscale>
<asrwt>0</asrwt>
<pdfrwt beam="1">  1       21 0.30974829E-01 0.41193199E+03</pdfrwt>
<pdfrwt beam="2">  1       21 0.29618585E-01 0.41193199E+03</pdfrwt>
<totfact> 0.10287782E+05</totfact>
</mgrwt>
</event>
<event>
 7    0  0.4709932E-002  0.4604924E+03  0.7546771E-02  0.1024638E+00
         21   -1    0    0  502  501  0.00000000000E+00  0.00000000000E+00  0.14906656462E+03  0.14906656462E+03  0.00000000000E+00 0. -1.
         21   -1    0    0  501  502 -0.00000000000E+00 -0.00000000000E+00 -0.35563522051E+03  0.35563522051E+03  0.00000000000E+00 0. -1.
      99926    2    1    2    0    0  0.00000000000E+00  0.00000000000E+00 -0.20656865589E+03  0.50470178513E+03  0.46049243460E+03 0.  0.
      99925    2    3    3    0    0 -0.17964611405E+02 -0.61582321683E+02 -0.20325873534E+02  0.27135870791E+03  0.26288266892E+03 0.  0.
         25    1    4    4    0    0  0.19756055080E+02 -0.50472912753E+02 -0.30972763420E+02  0.13980213449E+03  0.12509000000E+03 0.  0.
         25    1    3    3    0    0  0.17964611405E+02  0.61582321683E+02 -0.18624278236E+03  0.23334307722E+03  0.12509000000E+03 0.  0.
         25    1    4    4    0    0 -0.37720666485E+02 -0.11109408930E+02  0.10646889886E+02  0.13155657342E+03  0.12509000000E+03 0.  0.
<mgrwt>
<rscale>  2 0.46049243E+03</rscale>
<asrwt>0</asrwt>
<pdfrwt beam="1">  1       21 0.21921554E-01 0.46049243E+03</pdfrwt>
<pdfrwt beam="2">  1       21 0.52299297E-01 0.46049243E+03</pdfrwt>
<totfact> 0.62185869E+04</totfact>
</mgrwt>
</event>
<event>
 7    0  0.4709932E-002  0.4607332E+03  0.7546771E-02  0.1024569E+00
         21   -1    0    0  502  501  0.00000000000E+00  0.00000000000E+00  0.67867979841E+03  0.67867979841E+03  0.00000000000E+00 0.  1.
         21   -1    0    0  501  502 -0.00000000000E+00 -0.00000000000E+00 -0.78194111428E+02  0.78194111428E+02  0.00000000000E+00 0.  1.
      99926    2    1    2    0    0  0.00000000000E+00  0.35527136788E-14  0.60048568698E+03  0.75687390984E+03  0.46073317129E+03 0.  0.
      99925    2    3    3    0    0 -0.10979187498E+03 -0.25272760639E+02  0.31507412537E+03  0.42551272345E+03  0.26286195065E+03 0.  0.
         25    1    4    4    0    0 -0.41361492984E+02 -0.85517310868E+01  0.20821973664E+03  0.24654993821E+03  0.12509000000E+03 0.  0.
         25    1    4    4    0    0 -0.68430381996E+02 -0.16721029552E+02  0.10685438873E+03  0.17896278524E+03  0.12509000000E+03 0.  0.
         25    1    3    3    0    0  0.10979187498E+03  0.25272760639E+02  0.28541156161E+03  0.33136118639E+03  0.12509000000E+03 0.  0.
<mgrwt>
<rscale>  2 0.46073317E+03</rscale>
<asrwt>0</asrwt>
<pdfrwt beam="1">  1       21 0.99805849E-01 0.46073317E+03</pdfrwt>
<pdfrwt beam="2">  1       21 0.11499134E-01 0.46073317E+03</pdfrwt>
<totfact> 0.47734372E+04</totfact>
</mgrwt>
</event>
<event>
 7    0  0.4709932E-002  0.4520908E+03  0.7546771E-02  0.1027100E+00
         21   -1    0    0  502  501  0.00000000000E+00  0.00000000000E+00  0.59675695124E+02  0.59675695124E+02  0.00000000000E+00 0. -1.
         21   -1    0    0  501  502 -0.00000000000E+00 -0.00000000000E+00 -0.85623678244E+03  0.85623678244E+03  0.00000000000E+00 0. -1.
      99926    2    1    2    0    0  0.00000000000E+00 -0.35527136788E-14 -0.79656108732E+03  0.91591247757E+03  0.45209081027E+03 0.  0.
      99925    2    3    3    0    0  0.75415314945E+02  0.10462665258E+02 -0.66451745508E+03  0.71873244306E+03  0.26305121082E+03 0.  0.
         25    1    4    4    0    0  0.69051125096E+01  0.32622240022E+02 -0.30692364664E+03  0.33310887723E+03  0.12509000000E+03 0.  0.
         25    1    3    3    0    0 -0.75415314945E+02 -0.10462665258E+02 -0.13204363225E+03  0.19718003451E+03  0.12509000000E+03 0.  0.
         25    1    4    4    0    0  0.68510202435E+02 -0.22159574764E+02 -0.35759380844E+03  0.38562356583E+03  0.12509000000E+03 0.  0.
<mgrwt>
<rscale>  2 0.45209081E+03</rscale>
<asrwt>0</asrwt>
<pdfrwt beam="1">  1       21 0.87758384E-02 0.45209081E+03</pdfrwt>
<pdfrwt beam="2">  1       21 0.12591716E+00 0.45209081E+03</pdfrwt>
<totfact> 0.43535281E+04</totfact>
</mgrwt>
</event>
<event>
 7    0  0.4709932E-002  0.4516444E+03  0.7546771E-02  0.1027233E+00
         21   -1    0    0  502  501  0.00000000000E+00  0.00000000000E+00  0.42772325505E+03  0.42772325505E+03  0.00000000000E+00 0.  1.
         21   -1    0    0  501  502 -0.00000000000E+00 -0.00000000000E+00 -0.11922585728E+03  0.11922585728E+03  0.00000000000E+00 0.  1.
      99926    2    1    2    0    0  0.00000000000E+00  0.71054273576E-14  0.30849739777E+03  0.54694911234E+03  0.45164442547E+03 0.  0.
      99925    2    3    3    0    0  0.65874946229E+01  0.34551292349E+02  0.32093725850E+03  0.41641388673E+03  0.26298785958E+03 0.  0.
         25    1    3    3    0    0 -0.65874946229E+01 -0.34551292349E+02 -0.12439860726E+02  0.13053522560E+03  0.12509000000E+03 0.  0.
         25    1    4    4    0    0  0.15193697731E+01  0.53191983965E+02  0.13582392571E+03  0.19216488372E+03  0.12509000000E+03 0.  0.
         25    1    4    4    0    0  0.50681248498E+01 -0.18640691615E+02  0.18511333279E+03  0.22424900301E+03  0.12509000000E+03 0.  0.
<mgrwt>
<rscale>  2 0.45164443E+03</rscale>
<asrwt>0</asrwt>
<pdfrwt beam="1">  1       21 0.62900478E-01 0.45164443E+03</pdfrwt>
<pdfrwt beam="2">  1       21 0.17533214E-01 0.45164443E+03</pdfrwt>
<totfact> 0.63744250E+04</totfact>
</mgrwt>
</event>
<event>
 7    0  0.4709932E-002  0.4439767E+03  0.7546771E-02  0.1029534E+00
         21   -1    0    0  502  501  0.00000000000E+00  0.00000000000E+00  0.21777606910E+03  0.21777606910E+03  0.00000000000E+00 0. -1.
         21   -1    0    0  501  502 -0.00000000000E+00 -0.00000000000E+00 -0.22628206753E+03  0.22628206753E+03  0.00000000000E+00 0. -1.
      99926    2    1    2    0    0 -0.17763568394E-14  0.00000000000E+00 -0.85059984314E+01  0.44405813663E+03  0.44397666233E+03 0.  0.
      99925    2    3    3    0    0  0.10142893275E+02 -0.10190776310E+03 -0.65884514492E+01  0.28238174518E+03  0.26307408054E+03 0.  0.
         25    1    4    4    0    0 -0.35264837338E+02 -0.55902406295E+02 -0.50617768875E+01  0.14156912611E+03  0.12509000000E+03 0.  0.
         25    1    3    3    0    0 -0.10142893275E+02  0.10190776310E+03 -0.19175469823E+01  0.16167639145E+03  0.12509000000E+03 0.  0.
         25    1    4    4    0    0  0.45407730613E+02 -0.46005356810E+02 -0.15266745617E+01  0.14081261907E+03  0.12509000000E+03 0.  0.
<mgrwt>
<rscale>  2 0.44397666E+03</rscale>
<asrwt>0</asrwt>
<pdfrwt beam="1">  1       21 0.32025893E-01 0.44397666E+03</pdfrwt>
<pdfrwt beam="2">  1       21 0.33276775E-01 0.44397666E+03</pdfrwt>
<totfact> 0.75806244E+04</totfact>
</mgrwt>
</event>
<event>
 7    0  0.4709932E-002  0.4538577E+03  0.7546771E-02  0.1026578E+00
         21   -1    0    0  502  501  0.00000000000E+00  0.00000000000E+00  0.12004949471E+03  0.12004949471E+03  0.00000000000E+00 0. -1.
         21   -1    0    0  501  502 -0.00000000000E+00 -0.00000000000E+00 -0.42896222870E+03  0.42896222870E+03  0.00000000000E+00 0. -1.
      99926    2    1    2    0    0 -0.14210854715E-13 -0.35527136788E-14 -0.30891273399E+03  0.54901172341E+03  0.45385768169E+03 0.  0.
      99925    2    3    3    0    0 -0.81463229914E+02 -0.19122249260E+02 -0.28473005387E+03  0.39658394261E+03  0.26306976586E+03 0.  0.
         25    1    4    4    0    0 -0.77034677769E+02 -0.78846823837E+00 -0.18008915586E+03  0.23241035996E+03  0.12509000000E+03 0.  0.
         25    1    3    3    0    0  0.81463229914E+02  0.19122249260E+02 -0.24182680117E+02  0.15242778081E+03  0.12509000000E+03 0.  0.
         25    1    4    4    0    0 -0.44285521448E+01 -0.18333781022E+02 -0.10464089801E+03  0.16417358264E+03  0.12509000000E+03 0.  0.
<mgrwt>
<rscale>  2 0.45385768E+03</rscale>
<asrwt>0</asrwt>
<pdfrwt beam="1">  1       21 0.17654337E-01 0.45385768E+03</pdfrwt>
<pdfrwt beam="2">  1       21 0.63082682E-01 0.45385768E+03</pdfrwt>
<totfact> 0.62494788E+04</totfact>
</mgrwt>
</event>
<event>
 7    0  0.4709932E-002  0.4534080E+03  0.7546771E-02  0.1026711E+00
         21   -1    0    0  502  501  0.00000000000E+00  0.00000000000E+00  0.55692152381E+03  0.55692152381E+03  0.00000000000E+00 0.  1.
         21   -1    0    0  501  502 -0.00000000000E+00 -0.00000000000E+00 -0.92283569311E+02  0.92283569311E+02  0.00000000000E+00 0.  1.
      99926    2    1    2    0    0  0.71054273576E-14  0.14210854715E-13  0.46463795450E+03  0.64920509312E+03  0.45340801071E+03 0.  0.
      99925    2    3    3    0    0  0.33858288338E+02  0.10335508227E+03  0.32953585388E+03  0.43536229475E+03  0.26290262833E+03 0.  0.
         25    1    4    4    0    0 -0.15608966462E+02  0.73755191358E+02  0.18510192655E+03  0.23578316183E+03  0.12509000000E+03 0.  0.
         25    1    3    3    0    0 -0.33858288338E+02 -0.10335508227E+03  0.13510210062E+03  0.21384279836E+03  0.12509000000E+03 0.  0.
         25    1    4    4    0    0  0.49467254800E+02  0.29599890910E+02  0.14443392732E+03  0.19957913293E+03  0.12509000000E+03 0.  0.
<mgrwt>
<rscale>  2 0.45340801E+03</rscale>
<asrwt>0</asrwt>
<pdfrwt beam="1">  1       21 0.81900223E-01 0.45340801E+03</pdfrwt>
<pdfrwt beam="2">  1       21 0.13571113E-01 0.45340801E+03</pdfrwt>
<totfact> 0.56452984E+04</totfact>
</mgrwt>
</event>
<event>
 7    0  0.4709932E-002  0.4610468E+03  0.7546771E-02  0.1024478E+00
         21   -1    0    0  502  501  0.00000000000E+00  0.00000000000E+00  0.10983003948E+03  0.10983003948E+03  0.00000000000E+00 0.  1.
         21   -1    0    0  501  502 -0.00000000000E+00 -0.00000000000E+00 -0.48384802138E+03  0.48384802138E+03  0.00000000000E+00 0.  1.
      99926    2    1    2    0    0 -0.13322676296E-14  0.00000000000E+00 -0.37401798190E+03  0.59367806086E+03  0.46104684053E+03 0.  0.
      99925    2    3    3    0    0 -0.23097569983E+01 -0.98178242113E+02 -0.32015515393E+03  0.42577030482E+03  0.26293863861E+03 0.  0.
         25    1    4    4    0    0 -0.22381434500E+02 -0.25132278662E+02 -0.11117636699E+03  0.17070516312E+03  0.12509000000E+03 0.  0.
         25    1    3    3    0    0  0.23097569983E+01  0.98178242113E+02 -0.53862827965E+02  0.16790775604E+03  0.12509000000E+03 0.  0.
         25    1    4    4    0    0  0.20071677501E+02 -0.73045963451E+02 -0.20897878695E+03  0.25506514169E+03  0.12509000000E+03 0.  0.
<mgrwt>
<rscale>  2 0.46104684E+03</rscale>
<asrwt>0</asrwt>
<pdfrwt beam="1">  1       21 0.16151476E-01 0.46104684E+03</pdfrwt>
<pdfrwt beam="2">  1       21 0.71154121E-01 0.46104684E+03</pdfrwt>
<totfact> 0.56328635E+04</totfact>
</mgrwt>
</event>
<event>
 7    0  0.4709932E-002  0.4632714E+03  0.7546771E-02  0.1023837E+00
         21   -1    0    0  502  501  0.00000000000E+00  0.00000000000E+00  0.80694475696E+02  0.80694475696E+02  0.00000000000E+00 0. -1.
         21   -1    0    0  501  502 -0.00000000000E+00 -0.00000000000E+00 -0.66491666802E+03  0.66491666802E+03  0.00000000000E+00 0. -1.
      99926    2    1    2    0    0  0.00000000000E+00  0.00000000000E+00 -0.58422219233E+03  0.74561114372E+03  0.46327141896E+03 0.  0.
      99925    2    3    3    0    0  0.57415638672E+02  0.62522355374E+02 -0.50321426284E+03  0.57410198004E+03  0.26298838125E+03 0.  0.
         25    1    4    4    0    0 -0.96579652114E+01  0.16313988007E+02 -0.24913413505E+03  0.27941858894E+03  0.12509000000E+03 0.  0.
         25    1    4    4    0    0  0.67073603883E+02  0.46208367367E+02 -0.25408012779E+03  0.29468339110E+03  0.12509000000E+03 0.  0.
         25    1    3    3    0    0 -0.57415638672E+02 -0.62522355374E+02 -0.81007929481E+02  0.17150916368E+03  0.12509000000E+03 0.  0.
<mgrwt>
<rscale>  2 0.46327142E+03</rscale>
<asrwt>0</asrwt>
<pdfrwt beam="1">  1       21 0.11866835E-01 0.46327142E+03</pdfrwt>
<pdfrwt beam="2">  1       21 0.97781862E-01 0.46327142E+03</pdfrwt>
<totfact> 0.47341601E+04</totfact>
</mgrwt>
</event>
<event>
 7    0  0.4709932E-002  0.4554473E+03  0.7546771E-02  0.1026110E+00
         21   -1    0    0  502  501  0.00000000000E+00  0.00000000000E+00  0.67434526876E+03  0.67434526876E+03  0.00000000000E+00 0.  1.
         21   -1    0    0  501  502 -0.00000000000E+00 -0.00000000000E+00 -0.76901358070E+02  0.76901358070E+02  0.00000000000E+00 0.  1.
      99926    2    1    2    0    0  0.00000000000E+00  0.00000000000E+00  0.59744391069E+03  0.75124662683E+03  0.45544732725E+03 0.  0.
      99925    2    3    3    0    0 -0.95273778027E+02 -0.61891247839E+02  0.37837276634E+03  0.47457481091E+03  0.26295946741E+03 0.  0.
         25    1    4    4    0    0 -0.46021369847E+02  0.85250941247E+00  0.13618189580E+03  0.19055631739E+03  0.12509000000E+03 0.  0.
         25    1    3    3    0    0  0.95273778027E+02  0.61891247839E+02  0.21907114435E+03  0.27667181592E+03  0.12509000000E+03 0.  0.
         25    1    4    4    0    0 -0.49252408180E+02 -0.62743757252E+02  0.24219087054E+03  0.28401849351E+03  0.12509000000E+03 0.  0.
<mgrwt>
<rscale>  2 0.45544733E+03</rscale>
<asrwt>0</asrwt>
<pdfrwt beam="1">  1       21 0.99168419E-01 0.45544733E+03</pdfrwt>
<pdfrwt beam="2">  1       21 0.11309024E-01 0.45544733E+03</pdfrwt>
<totfact> 0.50031225E+04</totfact>
</mgrwt>
</event>
<event>
 7    0  0.4709932E-002  0.4583106E+03  0.7546771E-02  0.1025272E+00
         21   -1    0    0  502  501  0.00000000000E+00  0.00000000000E+00  0.17375590156E+03  0.17375590156E+03  0.00000000000E+00 0. -1.
         21   -1    0    0  501  502 -0.00000000000E+00 -0.00000000000E+00 -0.30221798795E+03  0.30221798795E+03  0.00000000000E+00 0. -1.
      99926    2    1    2    0    0  0.00000000000E+00  0.14210854715E-13 -0.12846208639E+03  0.47597388951E+03  0.45831063249E+03 0.  0.
      99925    2    3    3    0    0 -0.67265079784E+02 -0.65180461253E+02 -0.15241283794E+03  0.31787825362E+03  0.26276192165E+03 0.  0.
         25    1    4    4    0    0 -0.69374131015E+02 -0.25829480831E+02 -0.10105845988E+03  0.17703178401E+03  0.12509000000E+03 0.  0.
         25    1    4    4    0    0  0.21090512314E+01 -0.39350980421E+02 -0.51354378054E+02  0.14084646961E+03  0.12509000000E+03 0.  0.
         25    1    3    3    0    0  0.67265079784E+02  0.65180461253E+02  0.23950751545E+02  0.15809563589E+03  0.12509000000E+03 0.  0.
<mgrwt>
<rscale>  2 0.45831063E+03</rscale>
<asrwt>0</asrwt>
<pdfrwt beam="1">  1       21 0.25552339E-01 0.45831063E+03</pdfrwt>
<pdfrwt beam="2">  1       21 0.44443820E-01 0.45831063E+03</pdfrwt>
<totfact> 0.65262918E+04</totfact>
</mgrwt>
</event>
<event>
 7    0  0.4709932E-002  0.4546601E+03  0.7546771E-02  0.1026341E+00
         21   -1    0    0  502  501  0.00000000000E+00  0.00000000000E+00  0.75046144939E+02  0.75046144939E+02  0.00000000000E+00 0.  1.
         21   -1    0    0  501  502 -0.00000000000E+00 -0.00000000000E+00 -0.68862902542E+03  0.68862902542E+03  0.00000000000E+00 0.  1.
      99926    2    1    2    0    0  0.00000000000E+00  0.00000000000E+00 -0.61358288048E+03  0.76367517035E+03  0.45466010888E+03 0.  0.
      99925    2    3    3    0    0 -0.39714532738E+02 -0.35521583660E+02 -0.55331151889E+03  0.61495001396E+03  0.26300352796E+03 0.  0.
         25    1    4    4    0    0 -0.26258735417E+02  0.12997170321E+02 -0.32943987766E+03  0.35360513107E+03  0.12509000000E+03 0.  0.
         25    1    3    3    0    0  0.39714532738E+02  0.35521583660E+02 -0.60271361582E+02  0.14872515639E+03  0.12509000000E+03 0.  0.
         25    1    4    4    0    0 -0.13455797321E+02 -0.48518753981E+02 -0.22387164123E+03  0.26134488290E+03  0.12509000000E+03 0.  0.
<mgrwt>
<rscale>  2 0.45466011E+03</rscale>
<asrwt>0</asrwt>
<pdfrwt beam="1">  1       21 0.11036197E-01 0.45466011E+03</pdfrwt>
<pdfrwt beam="2">  1       21 0.10126898E+00 0.45466011E+03</pdfrwt>
<totfact> 0.49704226E+04</totfact>
</mgrwt>
</event>
<event>
 7    0  0.4709932E-002  0.4600110E+03  0.7546771E-02  0.1024778E+00
         21   -1    0    0  502  501  0.00000000000E+00  0.00000000000E+00  0.10694969374E+03  0.10694969374E+03  0.00000000000E+00 0. -1.
         21   -1    0    0  501  502 -0.00000000000E+00 -0.00000000000E+00 -0.49464878923E+03  0.49464878923E+03  0.00000000000E+00 0. -1.
      99926    2    1    2    0    0  0.00000000000E+00 -0.35527136788E-14 -0.38769909548E+03  0.60159848297E+03  0.46001102821E+03 0.  0.
      99925    2    3    3    0    0 -0.82519879181E+02  0.25620018171E+02 -0.13811560616E+03  0.30935655916E+03  0.26298221278E+03 0.  0.
         25    1    3    3    0    0  0.82519879181E+02 -0.25620018171E+02 -0.24958348932E+03  0.29224192381E+03  0.12509000000E+03 0.  0.
         25    1    4    4    0    0 -0.14226443116E+02  0.43449616629E+02 -0.66120446228E+02  0.14869324927E+03  0.12509000000E+03 0.  0.
         25    1    4    4    0    0 -0.68293436064E+02 -0.17829598458E+02 -0.71995159931E+02  0.16066330989E+03  0.12509000000E+03 0.  0.
<mgrwt>
<rscale>  2 0.46001103E+03</rscale>
<asrwt>0</asrwt>
<pdfrwt beam="1">  1       21 0.15727896E-01 0.46001103E+03</pdfrwt>
<pdfrwt beam="2">  1       21 0.72742467E-01 0.46001103E+03</pdfrwt>
<totfact> 0.56316912E+04</totfact>
</mgrwt>
</event>
<event>
 7    0  0.4709932E-002  0.4433871E+03  0.7546771E-02  0.1029713E+00
         21   -1    0    0  502  501  0.00000000000E+00  0.00000000000E+00  0.62061547120E+03  0.62061547120E+03  0.00000000000E+00 0.  1.
         21   -1    0    0  501  502 -0.00000000000E+00 -0.00000000000E+00 -0.79192393876E+02  0.79192393876E+02  0.00000000000E+00 0.  1.
      99926    2    1    2    0    0  0.17763568394E-14 -0.35527136788E-14  0.54142307733E+03  0.69980786508E+03  0.44338707623E+03 0.  0.
      99925    2    3    3    0    0 -0.83708547238E+01 -0.19668988424E+02  0.50179528261E+03  0.56686121966E+03  0.26282350806E+03 0.  0.
         25    1    3    3    0    0  0.83708547238E+01  0.19668988424E+02  0.39627794716E+02  0.13294664542E+03  0.12509000000E+03 0.  0.
         25    1    4    4    0    0  0.25149440820E+02 -0.37207379356E+02  0.24527050082E+03  0.27896596589E+03  0.12509000000E+03 0.  0.
         25    1    4    4    0    0 -0.33520295544E+02  0.17538390931E+02  0.25652478179E+03  0.28789525377E+03  0.12509000000E+03 0.  0.
<mgrwt>
<rscale>  2 0.44338708E+03</rscale>
<asrwt>0</asrwt>
<pdfrwt beam="1">  1       21 0.91266978E-01 0.44338708E+03</pdfrwt>
<pdfrwt beam="2">  1       21 0.11645941E-01 0.44338708E+03</pdfrwt>
<totfact> 0.58038408E+04</totfact>
</mgrwt>
</event>
<event>
 7    0  0.4709932E-002  0.4778355E+03  0.7546771E-02  0.1019732E+00
         21   -1    0    0  502  501  0.00000000000E+00  0.00000000000E+00  0.22402498726E+03  0.22402498726E+03  0.00000000000E+00 0.  1.
         21   -1    0    0  501  502 -0.00000000000E+00 -0.00000000000E+00 -0.25480055664E+03  0.25480055664E+03  0.00000000000E+00 0.  1.
      99926    2    1    2    0    0  0.00000000000E+00  0.71054273576E-14 -0.30775569383E+02  0.47882554390E+03  0.47783550080E+03 0.  0.
      99925    2    3    3    0    0  0.92217929063E+02  0.46089161325E+02  0.65994013209E+02  0.29003937532E+03  0.26294347724E+03 0.  0.
         25    1    3    3    0    0 -0.92217929063E+02 -0.46089161325E+02 -0.96769582593E+02  0.18878616858E+03  0.12509000000E+03 0.  0.
         25    1    4    4    0    0  0.92233899340E+01  0.14748788197E+01  0.21832384436E+02  0.12732402483E+03  0.12509000000E+03 0.  0.
         25    1    4    4    0    0  0.82994539129E+02  0.44614282506E+02  0.44161628773E+02  0.16271535049E+03  0.12509000000E+03 0.  0.
<mgrwt>
<rscale>  2 0.47783550E+03</rscale>
<asrwt>0</asrwt>
<pdfrwt beam="1">  1       21 0.32944851E-01 0.47783550E+03</pdfrwt>
<pdfrwt beam="2">  1       21 0.37470670E-01 0.47783550E+03</pdfrwt>
<totfact> 0.55928349E+04</totfact>
</mgrwt>
</event>
<event>
 7    0  0.4709932E-002  0.4518522E+03  0.7546771E-02  0.1027171E+00
         21   -1    0    0  502  501  0.00000000000E+00  0.00000000000E+00  0.18774511165E+03  0.18774511165E+03  0.00000000000E+00 0.  1.
         21   -1    0    0  501  502 -0.00000000000E+00 -0.00000000000E+00 -0.27187184005E+03  0.27187184005E+03  0.00000000000E+00 0.  1.
      99926    2    1    2    0    0  0.00000000000E+00 -0.17763568394E-14 -0.84126728399E+02  0.45961695170E+03  0.45185222790E+03 0.  0.
      99925    2    3    3    0    0  0.10223601558E+03  0.86362776861E+01 -0.16641206668E+02  0.28432122467E+03  0.26464096596E+03 0.  0.
         25    1    4    4    0    0  0.46614141976E+02 -0.26261705602E+01 -0.50665777785E+02  0.14280862769E+03  0.12509000000E+03 0.  0.
         25    1    3    3    0    0 -0.10223601558E+03 -0.86362776861E+01 -0.67485521730E+02  0.17529572704E+03  0.12509000000E+03 0.  0.
         25    1    4    4    0    0  0.55621873602E+02  0.11262448246E+02  0.34024571117E+02  0.14151259698E+03  0.12509000000E+03 0.  0.
<mgrwt>
<rscale>  2 0.45185223E+03</rscale>
<asrwt>0</asrwt>
<pdfrwt beam="1">  1       21 0.27609575E-01 0.45185223E+03</pdfrwt>
<pdfrwt beam="2">  1       21 0.39981153E-01 0.45185223E+03</pdfrwt>
<totfact> 0.69945524E+04</totfact>
</mgrwt>
</event>
<event>
 7    0  0.4709932E-002  0.4574993E+03  0.7546771E-02  0.1025509E+00
         21   -1    0    0  502  501  0.00000000000E+00  0.00000000000E+00  0.13228168075E+04  0.13228168075E+04  0.00000000000E+00 0. -1.
         21   -1    0    0  501  502 -0.00000000000E+00 -0.00000000000E+00 -0.39556797488E+02  0.39556797488E+02  0.00000000000E+00 0. -1.
      99926    2    1    2    0    0  0.00000000000E+00  0.00000000000E+00  0.12832600101E+04  0.13623736050E+04  0.45749927462E+03 0.  0.
      99925    2    3    3    0    0 -0.11497019663E+03  0.11311083314E+02  0.81123736770E+03  0.86057786001E+03  0.26294885373E+03 0.  0.
         25    1    4    4    0    0 -0.68007901646E+02  0.66928375797E+01  0.29988222438E+03  0.33203422318E+03  0.12509000000E+03 0.  0.
         25    1    3    3    0    0  0.11497019663E+03 -0.11311083314E+02  0.47202264237E+03  0.50179574503E+03  0.12509000000E+03 0.  0.
         25    1    4    4    0    0 -0.46962294986E+02  0.46182457345E+01  0.51135514331E+03  0.52854363683E+03  0.12509000000E+03 0.  0.
<mgrwt>
<rscale>  2 0.45749927E+03</rscale>
<asrwt>0</asrwt>
<pdfrwt beam="1">  1       21 0.19453185E+00 0.45749927E+03</pdfrwt>
<pdfrwt beam="2">  1       21 0.58171770E-02 0.45749927E+03</pdfrwt>
<totfact> 0.26827229E+04</totfact>
</mgrwt>
</event>
<event>
 7    0  0.4709932E-002  0.4484116E+03  0.7546771E-02  0.1028197E+00
         21   -1    0    0  502  501  0.00000000000E+00  0.00000000000E+00  0.81245339044E+02  0.81245339044E+02  0.00000000000E+00 0.  1.
         21   -1    0    0  501  502 -0.00000000000E+00 -0.00000000000E+00 -0.61872156662E+03  0.61872156662E+03  0.00000000000E+00 0.  1.
      99926    2    1    2    0    0  0.00000000000E+00  0.00000000000E+00 -0.53747622757E+03  0.69996690566E+03  0.44841161204E+03 0.  0.
      99925    2    3    3    0    0 -0.70426744877E+02 -0.18454663682E+02 -0.21818156460E+03  0.34940009191E+03  0.26301469177E+03 0.  0.
         25    1    4    4    0    0 -0.71925384430E+02 -0.19544374269E+02 -0.13924707275E+03  0.20147580217E+03  0.12509000000E+03 0.  0.
         25    1    4    4    0    0  0.14986395526E+01  0.10897105863E+01 -0.78934491853E+02  0.14792428974E+03  0.12509000000E+03 0.  0.
         25    1    3    3    0    0  0.70426744877E+02  0.18454663682E+02 -0.31929466297E+03  0.35056681376E+03  0.12509000000E+03 0.  0.
<mgrwt>
<rscale>  2 0.44841161E+03</rscale>
<asrwt>0</asrwt>
<pdfrwt beam="1">  1       21 0.11947844E-01 0.44841161E+03</pdfrwt>
<pdfrwt beam="2">  1       21 0.90988467E-01 0.44841161E+03</pdfrwt>
<totfact> 0.55739005E+04</totfact>
</mgrwt>
</event>
<event>
 7    0  0.4709932E-002  0.4618001E+03  0.7546771E-02  0.1024260E+00
         21   -1    0    0  502  501  0.00000000000E+00  0.00000000000E+00  0.13210811349E+04  0.13210811349E+04  0.00000000000E+00 0. -1.
         21   -1    0    0  501  502 -0.00000000000E+00 -0.00000000000E+00 -0.40356970669E+02  0.40356970669E+02  0.00000000000E+00 0. -1.
      99926    2    1    2    0    0  0.00000000000E+00  0.00000000000E+00  0.12807241642E+04  0.13614381055E+04  0.46180009793E+03 0.  0.
      99925    2    3    3    0    0  0.87067977565E+02  0.50953031179E+02  0.98945630322E+03  0.10287798439E+04  0.26303449794E+03 0.  0.
         25    1    4    4    0    0  0.76444041442E+02  0.51224940386E+02  0.50629087037E+03  0.52957118456E+03  0.12509000000E+03 0.  0.
         25    1    4    4    0    0  0.10623936122E+02 -0.27190920768E+00  0.48316543284E+03  0.49920865933E+03  0.12509000000E+03 0.  0.
         25    1    3    3    0    0 -0.87067977565E+02 -0.50953031179E+02  0.29126786097E+03  0.33265826164E+03  0.12509000000E+03 0.  0.
<mgrwt>
<rscale>  2 0.46180010E+03</rscale>
<asrwt>0</asrwt>
<pdfrwt beam="1">  1       21 0.19427661E+00 0.46180010E+03</pdfrwt>
<pdfrwt beam="2">  1       21 0.59348495E-02 0.46180010E+03</pdfrwt>
<totfact> 0.25977564E+04</totfact>
</mgrwt>
</event>
<event>
 7    0  0.4709932E-002  0.4484808E+03  0.7546771E-02  0.1028176E+00
         21   -1    0    0  502  501  0.00000000000E+00  0.00000000000E+00  0.47827105812E+02  0.47827105812E+02  0.00000000000E+00 0.  1.
         21   -1    0    0  501  502 -0.00000000000E+00 -0.00000000000E+00 -0.10513654827E+04  0.10513654827E+04  0.00000000000E+00 0.  1.
      99926    2    1    2    0    0  0.00000000000E+00 -0.71054273576E-14 -0.10035383769E+04  0.10991925885E+04  0.44848084994E+03 0.  0.
      99925    2    3    3    0    0 -0.94813480593E+02 -0.49301709322E+02 -0.62256195183E+03  0.68420969827E+03  0.26294347814E+03 0.  0.
         25    1    4    4    0    0 -0.29025487090E+02  0.70024909836E+01 -0.23559307750E+03  0.26840849473E+03  0.12509000000E+03 0.  0.
         25    1    3    3    0    0  0.94813480593E+02  0.49301709322E+02 -0.38097642509E+03  0.41498289027E+03  0.12509000000E+03 0.  0.
         25    1    4    4    0    0 -0.65787993503E+02 -0.56304200306E+02 -0.38696887433E+03  0.41580120354E+03  0.12509000000E+03 0.  0.
<mgrwt>
<rscale>  2 0.44848085E+03</rscale>
<asrwt>0</asrwt>
<pdfrwt beam="1">  1       21 0.70333980E-02 0.44848085E+03</pdfrwt>
<pdfrwt beam="2">  1       21 0.15461257E+00 0.44848085E+03</pdfrwt>
<totfact> 0.37387752E+04</totfact>
</mgrwt>
</event>
<event>
 7    0  0.4709932E-002  0.4364496E+03  0.7546771E-02  0.1031842E+00
         21   -1    0    0  502  501  0.00000000000E+00  0.00000000000E+00  0.49467848239E+03  0.49467848239E+03  0.00000000000E+00 0. -1.
         21   -1    0    0  501  502 -0.00000000000E+00 -0.00000000000E+00 -0.96268730375E+02  0.96268730375E+02  0.00000000000E+00 0. -1.
      99926    2    1    2    0    0  0.35527136788E-14  0.00000000000E+00  0.39840975201E+03  0.59094721276E+03  0.43644962799E+03 0.  0.
      99925    2    3    3    0    0  0.23267395677E+02  0.65993762025E+02  0.16841798927E+03  0.31994856451E+03  0.26288004202E+03 0.  0.
         25    1    4    4    0    0  0.13831247923E+01  0.58499653737E+02  0.52179101385E+02  0.14762889027E+03  0.12509000000E+03 0.  0.
         25    1    3    3    0    0 -0.23267395677E+02 -0.65993762025E+02  0.22999176274E+03  0.27099864826E+03  0.12509000000E+03 0.  0.
         25    1    4    4    0    0  0.21884270885E+02  0.74941082878E+01  0.11623888789E+03  0.17231967423E+03  0.12509000000E+03 0.  0.
<mgrwt>
<rscale>  2 0.43644963E+03</rscale>
<asrwt>0</asrwt>
<pdfrwt beam="1">  1       21 0.72746835E-01 0.43644963E+03</pdfrwt>
<pdfrwt beam="2">  1       21 0.14157166E-01 0.43644963E+03</pdfrwt>
<totfact> 0.68781080E+04</totfact>
</mgrwt>
</event>
<event>
 7    0  0.4709932E-002  0.4540278E+03  0.7546771E-02  0.1026528E+00
         21   -1    0    0  502  501  0.00000000000E+00  0.00000000000E+00  0.66742055993E+03  0.66742055993E+03  0.00000000000E+00 0.  1.
         21   -1    0    0  501  502 -0.00000000000E+00 -0.00000000000E+00 -0.77215632199E+02  0.77215632199E+02  0.00000000000E+00 0.  1.
      99926    2    1    2    0    0  0.00000000000E+00  0.00000000000E+00  0.59020492773E+03  0.74463619213E+03  0.45402775456E+03 0.  0.
      99925    2    3    3    0    0  0.15236929405E+01 -0.39941513848E+02  0.54367211725E+03  0.60531477698E+03  0.26311397147E+03 0.  0.
         25    1    4    4    0    0  0.97601041222E+01  0.87086229078E+01  0.32644046214E+03  0.34983136390E+03  0.12509000000E+03 0.  0.
         25    1    3    3    0    0 -0.15236929405E+01  0.39941513848E+02  0.46532810481E+02  0.13932141515E+03  0.12509000000E+03 0.  0.
         25    1    4    4    0    0 -0.82364111817E+01 -0.48650136756E+02  0.21723165511E+03  0.25548341307E+03  0.12509000000E+03 0.  0.
<mgrwt>
<rscale>  2 0.45402775E+03</rscale>
<asrwt>0</asrwt>
<pdfrwt beam="1">  1       21 0.98150079E-01 0.45402775E+03</pdfrwt>
<pdfrwt beam="2">  1       21 0.11355240E-01 0.45402775E+03</pdfrwt>
<totfact> 0.50933731E+04</totfact>
</mgrwt>
</event>
<event>
 7    0  0.4709932E-002  0.4565668E+03  0.7546771E-02  0.1025782E+00
         21   -1    0    0  502  501  0.00000000000E+00  0.00000000000E+00  0.27414122043E+03  0.27414122043E+03  0.00000000000E+00 0. -1.
         21   -1    0    0  501  502 -0.00000000000E+00 -0.00000000000E+00 -0.19009658699E+03  0.19009658699E+03  0.00000000000E+00 0. -1.
      99926    2    1    2    0    0  0.00000000000E+00  0.00000000000E+00  0.84044633435E+02  0.46423780742E+03  0.45656679843E+03 0.  0.
      99925    2    3    3    0    0  0.45069713597E+02 -0.49912691830E+02  0.14734751407E+03  0.30874723315E+03  0.26285168477E+03 0.  0.
         25    1    3    3    0    0 -0.45069713597E+02  0.49912691830E+02 -0.63302880634E+02  0.15549057427E+03  0.12509000000E+03 0.  0.
         25    1    4    4    0    0  0.57618272054E+02 -0.37433270304E+02  0.58221246588E+02  0.15413739538E+03  0.12509000000E+03 0.  0.
         25    1    4    4    0    0 -0.12548558457E+02 -0.12479421526E+02  0.89126267481E+02  0.15460983777E+03  0.12509000000E+03 0.  0.
<mgrwt>
<rscale>  2 0.45656680E+03</rscale>
<asrwt>0</asrwt>
<pdfrwt beam="1">  1       21 0.40314885E-01 0.45656680E+03</pdfrwt>
<pdfrwt beam="2">  1       21 0.27955380E-01 0.45656680E+03</pdfrwt>
<totfact> 0.67028030E+04</totfact>
</mgrwt>
</event>
<event>
 7    0  0.4709932E-002  0.4006077E+03  0.7546771E-02  0.1043569E+00
         21   -1    0    0  502  501  0.00000000000E+00  0.00000000000E+00  0.18923351488E+03  0.18923351488E+03  0.00000000000E+00 0.  1.
         21   -1    0    0  501  502 -0.00000000000E+00 -0.00000000000E+00 -0.21202177899E+03  0.21202177899E+03  0.00000000000E+00 0.  1.
      99926    2    1    2    0    0  0.00000000000E+00 -0.44408920985E-15 -0.22788264113E+02  0.40125529386E+03  0.40060767076E+03 0.  0.
      99925    2    3    3    0    0 -0.58303527272E+01 -0.26701436759E+01  0.30887031344E+02  0.26498472432E+03  0.26310030927E+03 0.  0.
         25    1    4    4    0    0  0.83059040653E+01 -0.36222326891E+02  0.33323464562E+02  0.13468112859E+03  0.12509000000E+03 0.  0.
         25    1    3    3    0    0  0.58303527272E+01  0.26701436759E+01 -0.53675295457E+02  0.13627056954E+03  0.12509000000E+03 0.  0.
         25    1    4    4    0    0 -0.14136256793E+02  0.33552183215E+02 -0.24364332181E+01  0.13030359573E+03  0.12509000000E+03 0.  0.
<mgrwt>
<rscale>  2 0.40060767E+03</rscale>
<asrwt>0</asrwt>
<pdfrwt beam="1">  1       21 0.27828458E-01 0.40060767E+03</pdfrwt>
<pdfrwt beam="2">  1       21 0.31179673E-01 0.40060767E+03</pdfrwt>
<totfact> 0.11508369E+05</totfact>
</mgrwt>
</event>
<event>
 7    0  0.4709932E-002  0.4657543E+03  0.7546771E-02  0.1023125E+00
         21   -1    0    0  502  501  0.00000000000E+00  0.00000000000E+00  0.18753516832E+03  0.18753516832E+03  0.00000000000E+00 0. -1.
         21   -1    0    0  501  502 -0.00000000000E+00 -0.00000000000E+00 -0.28918187994E+03  0.28918187994E+03  0.00000000000E+00 0. -1.
      99926    2    1    2    0    0  0.00000000000E+00  0.71054273576E-14 -0.10164671162E+03  0.47671704826E+03  0.46575432377E+03 0.  0.
      99925    2    3    3    0    0  0.48102804548E+02 -0.62920685111E+02  0.32713712873E+02  0.27678424907E+03  0.26318518405E+03 0.  0.
         25    1    4    4    0    0  0.54987520857E+02 -0.54353587719E+02  0.35111318800E+02  0.15118945980E+03  0.12509000000E+03 0.  0.
         25    1    3    3    0    0 -0.48102804548E+02  0.62920685111E+02 -0.13436042450E+03  0.19993279919E+03  0.12509000000E+03 0.  0.
         25    1    4    4    0    0 -0.68847163091E+01 -0.85670973918E+01 -0.23976059273E+01  0.12559478927E+03  0.12509000000E+03 0.  0.
<mgrwt>
<rscale>  2 0.46575432E+03</rscale>
<asrwt>0</asrwt>
<pdfrwt beam="1">  1       21 0.27578701E-01 0.46575432E+03</pdfrwt>
<pdfrwt beam="2">  1       21 0.42526747E-01 0.46575432E+03</pdfrwt>
<totfact> 0.61519657E+04</totfact>
</mgrwt>
</event>
<event>
 7    0  0.4709932E-002  0.4541094E+03  0.7546771E-02  0.1026504E+00
         21   -1    0    0  502  501  0.00000000000E+00  0.00000000000E+00  0.84741412804E+03  0.84741412804E+03  0.00000000000E+00 0.  1.
         21   -1    0    0  501  502 -0.00000000000E+00 -0.00000000000E+00 -0.60836662033E+02  0.60836662033E+02  0.00000000000E+00 0.  1.
      99926    2    1    2    0    0  0.35527136788E-14 -0.14210854715E-13  0.78657746601E+03  0.90825079008E+03  0.45410944456E+03 0.  0.
      99925    2    3    3    0    0  0.31603003499E+02 -0.74065525407E+02  0.65218670036E+03  0.70776927502E+03  0.26287906471E+03 0.  0.
         25    1    4    4    0    0 -0.12952565947E+02 -0.13044806128E+02  0.25672780107E+03  0.28617233946E+03  0.12509000000E+03 0.  0.
         25    1    3    3    0    0 -0.31603003499E+02  0.74065525407E+02  0.13439076566E+03  0.20048151505E+03  0.12509000000E+03 0.  0.
         25    1    4    4    0    0  0.44555569446E+02 -0.61020719279E+02  0.39545889929E+03  0.42159693556E+03  0.12509000000E+03 0.  0.
<mgrwt>
<rscale>  2 0.45410944E+03</rscale>
<asrwt>0</asrwt>
<pdfrwt beam="1">  1       21 0.12461972E+00 0.45410944E+03</pdfrwt>
<pdfrwt beam="2">  1       21 0.89465685E-02 0.45410944E+03</pdfrwt>
<totfact> 0.43179165E+04</totfact>
</mgrwt>
</event>
<event>
 7    0  0.4709932E-002  0.4477656E+03  0.7546771E-02  0.1028390E+00
         21   -1    0    0  502  501  0.00000000000E+00  0.00000000000E+00  0.17007259345E+03  0.17007259345E+03  0.00000000000E+00 0.  1.
         21   -1    0    0  501  502 -0.00000000000E+00 -0.00000000000E+00 -0.29471835093E+03  0.29471835093E+03  0.00000000000E+00 0.  1.
      99926    2    1    2    0    0  0.00000000000E+00  0.00000000000E+00 -0.12464575749E+03  0.46479094438E+03  0.44776562744E+03 0.  0.
      99925    2    3    3    0    0  0.64343375977E+02  0.37389841803E+02 -0.23826022843E+00  0.27331560974E+03  0.26298915463E+03 0.  0.
         25    1    4    4    0    0  0.10730901643E+02  0.51645195436E+02 -0.10027213077E+02  0.13612652777E+03  0.12509000000E+03 0.  0.
         25    1    3    3    0    0 -0.64343375977E+02 -0.37389841803E+02 -0.12440749726E+03  0.19147533464E+03  0.12509000000E+03 0.  0.
         25    1    4    4    0    0  0.53612474334E+02 -0.14255353633E+02  0.97889528486E+01  0.13718908196E+03  0.12509000000E+03 0.  0.
<mgrwt>
<rscale>  2 0.44776563E+03</rscale>
<asrwt>0</asrwt>
<pdfrwt beam="1">  1       21 0.25010676E-01 0.44776563E+03</pdfrwt>
<pdfrwt beam="2">  1       21 0.43340934E-01 0.44776563E+03</pdfrwt>
<totfact> 0.71861609E+04</totfact>
</mgrwt>
</event>
<event>
 7    0  0.4709932E-002  0.4570612E+03  0.7546771E-02  0.1025637E+00
         21   -1    0    0  502  501  0.00000000000E+00  0.00000000000E+00  0.19215579409E+03  0.19215579409E+03  0.00000000000E+00 0. -1.
         21   -1    0    0  501  502 -0.00000000000E+00 -0.00000000000E+00 -0.27179104426E+03  0.27179104426E+03  0.00000000000E+00 0. -1.
      99926    2    1    2    0    0  0.00000000000E+00  0.35527136788E-14 -0.79635250169E+02  0.46394683835E+03  0.45706115099E+03 0.  0.
      99925    2    3    3    0    0 -0.11092250051E+03  0.31416179566E+02 -0.57043601689E+02  0.29234069587E+03  0.26252301329E+03 0.  0.
         25    1    3    3    0    0  0.11092250051E+03 -0.31416179566E+02 -0.22591648480E+02  0.17160614249E+03  0.12509000000E+03 0.  0.
         25    1    4    4    0    0 -0.37971687481E+02 -0.11389573797E+02 -0.52312035166E+02  0.14126439242E+03  0.12509000000E+03 0.  0.
         25    1    4    4    0    0 -0.72950813028E+02  0.42805753363E+02 -0.47315665228E+01  0.15107630345E+03  0.12509000000E+03 0.  0.
<mgrwt>
<rscale>  2 0.45706115E+03</rscale>
<asrwt>0</asrwt>
<pdfrwt beam="1">  1       21 0.28258205E-01 0.45706115E+03</pdfrwt>
<pdfrwt beam="2">  1       21 0.39969271E-01 0.45706115E+03</pdfrwt>
<totfact> 0.66787330E+04</totfact>
</mgrwt>
</event>
<event>
 7    0  0.4709932E-002  0.4420277E+03  0.7546771E-02  0.1030126E+00
         21   -1    0    0  502  501  0.00000000000E+00  0.00000000000E+00  0.23706014494E+03  0.23706014494E+03  0.00000000000E+00 0. -1.
         21   -1    0    0  501  502 -0.00000000000E+00 -0.00000000000E+00 -0.20605367139E+03  0.20605367139E+03  0.00000000000E+00 0. -1.
      99926    2    1    2    0    0  0.00000000000E+00  0.00000000000E+00  0.31006473553E+02  0.44311381633E+03  0.44202766070E+03 0.  0.
      99925    2    3    3    0    0  0.21587198514E+02  0.50348528700E+02 -0.64705080019E+02  0.27635293642E+03  0.26302702638E+03 0.  0.
         25    1    3    3    0    0 -0.21587198514E+02 -0.50348528700E+02  0.95711553572E+02  0.16676087991E+03  0.12509000000E+03 0.  0.
         25    1    4    4    0    0  0.12803547627E+02  0.11143771725E+02 -0.70972944066E+02  0.14481982381E+03  0.12509000000E+03 0.  0.
         25    1    4    4    0    0  0.87836508866E+01  0.39204756976E+02  0.62678640472E+01  0.13153311261E+03  0.12509000000E+03 0.  0.
<mgrwt>
<rscale>  2 0.44202766E+03</rscale>
<asrwt>0</asrwt>
<pdfrwt beam="1">  1       21 0.34861786E-01 0.44202766E+03</pdfrwt>
<pdfrwt beam="2">  1       21 0.30302010E-01 0.44202766E+03</pdfrwt>
<totfact> 0.77102100E+04</totfact>
</mgrwt>
</event>
<event>
 7    0  0.4709932E-002  0.4568383E+03  0.7546771E-02  0.1025702E+00
         21   -1    0    0  502  501  0.00000000000E+00  0.00000000000E+00  0.80488382491E+02  0.80488382491E+02  0.00000000000E+00 0.  1.
         21   -1    0    0  501  502 -0.00000000000E+00 -0.00000000000E+00 -0.64823403592E+03  0.64823403592E+03  0.00000000000E+00 0.  1.
      99926    2    1    2    0    0  0.26645352591E-14  0.00000000000E+00 -0.56774565342E+03  0.72872241841E+03  0.45683830411E+03 0.  0.
      99925    2    3    3    0    0  0.47729651411E+01  0.77235717180E+02 -0.22114088184E+03  0.35219816555E+03  0.26296790867E+03 0.  0.
         25    1    4    4    0    0  0.32992651469E+02  0.52734102661E+02 -0.84773546616E+02  0.16341194247E+03  0.12509000000E+03 0.  0.
         25    1    4    4    0    0 -0.28219686328E+02  0.24501614518E+02 -0.13636733523E+03  0.18878622309E+03  0.12509000000E+03 0.  0.
         25    1    3    3    0    0 -0.47729651411E+01 -0.77235717180E+02 -0.34660477158E+03  0.37652425285E+03  0.12509000000E+03 0.  0.
<mgrwt>
<rscale>  2 0.45683830E+03</rscale>
<asrwt>0</asrwt>
<pdfrwt beam="1">  1       21 0.11836527E-01 0.45683830E+03</pdfrwt>
<pdfrwt beam="2">  1       21 0.95328535E-01 0.45683830E+03</pdfrwt>
<totfact> 0.50635178E+04</totfact>
</mgrwt>
</event>
<event>
 7    0  0.4709932E-002  0.4514863E+03  0.7546771E-02  0.1027280E+00
         21   -1    0    0  502  501  0.00000000000E+00  0.00000000000E+00  0.54780797558E+03  0.54780797558E+03  0.00000000000E+00 0.  1.
         21   -1    0    0  501  502 -0.00000000000E+00 -0.00000000000E+00 -0.93025230391E+02  0.93025230391E+02  0.00000000000E+00 0.  1.
      99926    2    1    2    0    0  0.00000000000E+00  0.00000000000E+00  0.45478274518E+03  0.64083320597E+03  0.45148627061E+03 0.  0.
      99925    2    3    3    0    0 -0.44686818254E+02 -0.68054372796E+02  0.39179224506E+03  0.47883437700E+03  0.26296936688E+03 0.  0.
         25    1    3    3    0    0  0.44686818254E+02  0.68054372796E+02  0.62990500122E+02  0.16199882897E+03  0.12509000000E+03 0.  0.
         25    1    4    4    0    0 -0.12595001563E+02 -0.46737402030E+02  0.26288606847E+03  0.29512643377E+03  0.12509000000E+03 0.  0.
         25    1    4    4    0    0 -0.32091816691E+02 -0.21316970766E+02  0.12890617659E+03  0.18370794323E+03  0.12509000000E+03 0.  0.
<mgrwt>
<rscale>  2 0.45148627E+03</rscale>
<asrwt>0</asrwt>
<pdfrwt beam="1">  1       21 0.80559995E-01 0.45148627E+03</pdfrwt>
<pdfrwt beam="2">  1       21 0.13680181E-01 0.45148627E+03</pdfrwt>
<totfact> 0.57819266E+04</totfact>
</mgrwt>
</event>
<event>
 7    0  0.4709932E-002  0.4318722E+03  0.7546771E-02  0.1033270E+00
         21   -1    0    0  502  501  0.00000000000E+00  0.00000000000E+00  0.32465851325E+03  0.32465851325E+03  0.00000000000E+00 0. -1.
         21   -1    0    0  501  502 -0.00000000000E+00 -0.00000000000E+00 -0.14362290727E+03  0.14362290727E+03  0.00000000000E+00 0. -1.
      99926    2    1    2    0    0 -0.71054273576E-14  0.14210854715E-13  0.18103560598E+03  0.46828142052E+03  0.43187220120E+03 0.  0.
      99925    2    3    3    0    0 -0.49342571228E+02  0.64970836717E+02  0.15679222768E+03  0.31698321019E+03  0.26313238858E+03 0.  0.
         25    1    3    3    0    0  0.49342571228E+02 -0.64970836717E+02  0.24243378302E+02  0.15129821033E+03  0.12509000000E+03 0.  0.
         25    1    4    4    0    0 -0.36384396689E+02  0.72403833795E+02  0.94153741224E+02  0.17629116415E+03  0.12509000000E+03 0.  0.
         25    1    4    4    0    0 -0.12958174539E+02 -0.74329970783E+01  0.62638486456E+02  0.14069204604E+03  0.12509000000E+03 0.  0.
<mgrwt>
<rscale>  2 0.43187220E+03</rscale>
<asrwt>0</asrwt>
<pdfrwt beam="1">  1       21 0.47743899E-01 0.43187220E+03</pdfrwt>
<pdfrwt beam="2">  1       21 0.21121016E-01 0.43187220E+03</pdfrwt>
<totfact> 0.81534208E+04</totfact>
</mgrwt>
</event>
<event>
 7    0  0.4709932E-002  0.4535556E+03  0.7546771E-02  0.1026667E+00
         21   -1    0    0  502  501  0.00000000000E+00  0.00000000000E+00  0.87545321045E+02  0.87545321045E+02  0.00000000000E+00 0.  1.
         21   -1    0    0  501  502 -0.00000000000E+00 -0.00000000000E+00 -0.58744634249E+03  0.58744634249E+03  0.00000000000E+00 0.  1.
      99926    2    1    2    0    0  0.00000000000E+00  0.00000000000E+00 -0.49990102145E+03  0.67499166354E+03  0.45355563562E+03 0.  0.
      99925    2    3    3    0    0 -0.82214379885E+02 -0.75494853012E+02 -0.30570997559E+03  0.41844469419E+03  0.26301843248E+03 0.  0.
         25    1    4    4    0    0 -0.18224286445E+01 -0.22581054991E+02 -0.15171262383E+03  0.19793295234E+03  0.12509000000E+03 0.  0.
         25    1    3    3    0    0  0.82214379885E+02  0.75494853012E+02 -0.19419104586E+03  0.25654696935E+03  0.12509000000E+03 0.  0.
         25    1    4    4    0    0 -0.80391951241E+02 -0.52913798021E+02 -0.15399735176E+03  0.22051174185E+03  0.12509000000E+03 0.  0.
<mgrwt>
<rscale>  2 0.45355564E+03</rscale>
<asrwt>0</asrwt>
<pdfrwt beam="1">  1       21 0.12874312E-01 0.45355564E+03</pdfrwt>
<pdfrwt beam="2">  1       21 0.86389167E-01 0.45355564E+03</pdfrwt>
<totfact> 0.54904451E+04</totfact>
</mgrwt>
</event>
<event>
 7    0  0.4709932E-002  0.4545377E+03  0.7546771E-02  0.1026377E+00
         21   -1    0    0  502  501  0.00000000000E+00  0.00000000000E+00  0.10017567305E+04  0.10017567305E+04  0.00000000000E+00 0. -1.
         21   -1    0    0  501  502 -0.00000000000E+00 -0.00000000000E+00 -0.51560560832E+02  0.51560560832E+02  0.00000000000E+00 0. -1.
      99926    2    1    2    0    0  0.00000000000E+00  0.00000000000E+00  0.95019616964E+03  0.10533172913E+04  0.45453773810E+03 0.  0.
      99925    2    3    3    0    0  0.97233415558E+01  0.27227330171E+02  0.85078051929E+03  0.89093856575E+03  0.26288431876E+03 0.  0.
         25    1    4    4    0    0  0.18046296134E+02 -0.24544108063E+02  0.42575713112E+03  0.44479739752E+03  0.12509000000E+03 0.  0.
         25    1    4    4    0    0 -0.83229545784E+01  0.51771438234E+02  0.42502338818E+03  0.44614116823E+03  0.12509000000E+03 0.  0.
         25    1    3    3    0    0 -0.97233415558E+01 -0.27227330171E+02  0.99415650346E+02  0.16237872556E+03  0.12509000000E+03 0.  0.
<mgrwt>
<rscale>  2 0.45453774E+03</rscale>
<asrwt>0</asrwt>
<pdfrwt beam="1">  1       21 0.14731715E+00 0.45453774E+03</pdfrwt>
<pdfrwt beam="2">  1       21 0.75824360E-02 0.45453774E+03</pdfrwt>
<totfact> 0.37290261E+04</totfact>
</mgrwt>
</event>
<event>
 7    0  0.4709932E-002  0.4528753E+03  0.7546771E-02  0.1026868E+00
         21   -1    0    0  502  501  0.00000000000E+00  0.00000000000E+00  0.24836076614E+03  0.24836076614E+03  0.00000000000E+00 0.  1.
         21   -1    0    0  501  502 -0.00000000000E+00 -0.00000000000E+00 -0.20644975283E+03  0.20644975283E+03  0.00000000000E+00 0.  1.
      99926    2    1    2    0    0  0.00000000000E+00  0.35527136788E-14  0.41911013319E+02  0.45481051897E+03  0.45287534171E+03 0.  0.
      99925    2    3    3    0    0 -0.95099085065E+02 -0.27300230053E+02 -0.24420568042E+02  0.28207799358E+03  0.26302564852E+03 0.  0.
         25    1    4    4    0    0 -0.52702986850E+02 -0.29168450945E+02  0.24948007217E+02  0.14106138564E+03  0.12509000000E+03 0.  0.
         25    1    4    4    0    0 -0.42396098216E+02  0.18682208917E+01 -0.49368575259E+02  0.14101660795E+03  0.12509000000E+03 0.  0.
         25    1    3    3    0    0  0.95099085065E+02  0.27300230053E+02  0.66331581362E+02  0.17273252539E+03  0.12509000000E+03 0.  0.
<mgrwt>
<rscale>  2 0.45287534E+03</rscale>
<asrwt>0</asrwt>
<pdfrwt beam="1">  1       21 0.36523642E-01 0.45287534E+03</pdfrwt>
<pdfrwt beam="2">  1       21 0.30360258E-01 0.45287534E+03</pdfrwt>
<totfact> 0.69734337E+04</totfact>
</mgrwt>
</event>
<event>
 7    0  0.4709932E-002  0.4537282E+03  0.7546771E-02  0.1026616E+00
         21   -1    0    0  502  501  0.00000000000E+00  0.00000000000E+00  0.12186092508E+03  0.12186092508E+03  0.00000000000E+00 0. -1.
         21   -1    0    0  501  502 -0.00000000000E+00 -0.00000000000E+00 -0.42234479970E+03  0.42234479970E+03  0.00000000000E+00 0. -1.
      99926    2    1    2    0    0 -0.14210854715E-13 -0.35527136788E-14 -0.30048387462E+03  0.54420572478E+03  0.45372823581E+03 0.  0.
      99925    2    3    3    0    0 -0.11124863183E+03 -0.12046042956E+02 -0.18372962011E+03  0.33975419194E+03  0.26297333020E+03 0.  0.
         25    1    4    4    0    0 -0.36696692741E+02  0.27489704625E+02 -0.10452067502E+03  0.16933520226E+03  0.12509000000E+03 0.  0.
         25    1    4    4    0    0 -0.74551939090E+02 -0.39535747581E+02 -0.79208945099E+02  0.17041898968E+03  0.12509000000E+03 0.  0.
         25    1    3    3    0    0  0.11124863183E+03  0.12046042956E+02 -0.11675425451E+03  0.20445153284E+03  0.12509000000E+03 0.  0.
<mgrwt>
<rscale>  2 0.45372824E+03</rscale>
<asrwt>0</asrwt>
<pdfrwt beam="1">  1       21 0.17920724E-01 0.45372824E+03</pdfrwt>
<pdfrwt beam="2">  1       21 0.62109529E-01 0.45372824E+03</pdfrwt>
<totfact> 0.62881459E+04</totfact>
</mgrwt>
</event>
<event>
 7    0  0.4709932E-002  0.4557705E+03  0.7546771E-02  0.1026015E+00
         21   -1    0    0  502  501  0.00000000000E+00  0.00000000000E+00  0.78511053207E+02  0.78511053207E+02  0.00000000000E+00 0. -1.
         21   -1    0    0  501  502 -0.00000000000E+00 -0.00000000000E+00 -0.66145716022E+03  0.66145716022E+03  0.00000000000E+00 0. -1.
      99926    2    1    2    0    0  0.00000000000E+00 -0.44408920985E-15 -0.58294610701E+03  0.73996821342E+03  0.45577054885E+03 0.  0.
      99925    2    3    3    0    0  0.32763442219E+02 -0.24805257354E+01 -0.54392090132E+03  0.60487539003E+03  0.26257321725E+03 0.  0.
         25    1    3    3    0    0 -0.32763442219E+02  0.24805257354E+01 -0.39025205690E+02  0.13509282340E+03  0.12509000000E+03 0.  0.
         25    1    4    4    0    0  0.36423772537E+02 -0.11643523542E+02 -0.35256883474E+03  0.37605126536E+03  0.12509000000E+03 0.  0.
         25    1    4    4    0    0 -0.36603303183E+01  0.91629978069E+01 -0.19135206657E+03  0.22882412467E+03  0.12509000000E+03 0.  0.
<mgrwt>
<rscale>  2 0.45577055E+03</rscale>
<asrwt>0</asrwt>
<pdfrwt beam="1">  1       21 0.11545743E-01 0.45577055E+03</pdfrwt>
<pdfrwt beam="2">  1       21 0.97273114E-01 0.45577055E+03</pdfrwt>
<totfact> 0.50479599E+04</totfact>
</mgrwt>
</event>
<event>
 7    0  0.4709932E-002  0.4715312E+03  0.7546771E-02  0.1021489E+00
         21   -1    0    0  502  501  0.00000000000E+00  0.00000000000E+00  0.20017244334E+03  0.20017244334E+03  0.00000000000E+00 0. -1.
         21   -1    0    0  501  502 -0.00000000000E+00 -0.00000000000E+00 -0.27768771540E+03  0.27768771540E+03  0.00000000000E+00 0. -1.
      99926    2    1    2    0    0  0.00000000000E+00  0.00000000000E+00 -0.77515272062E+02  0.47786015874E+03  0.47153124383E+03 0.  0.
      99925    2    3    3    0    0 -0.79083399016E+02  0.60583612395E+01 -0.14997302490E+03  0.31297073583E+03  0.26299788126E+03 0.  0.
         25    1    4    4    0    0 -0.24296108877E+02  0.25757295805E+02 -0.38483701087E+02  0.13558112901E+03  0.12509000000E+03 0.  0.
         25    1    4    4    0    0 -0.54787290139E+02 -0.19698934566E+02 -0.11148932381E+03  0.17738960682E+03  0.12509000000E+03 0.  0.
         25    1    3    3    0    0  0.79083399016E+02 -0.60583612395E+01  0.72457752839E+02  0.16488942291E+03  0.12509000000E+03 0.  0.
<mgrwt>
<rscale>  2 0.47153124E+03</rscale>
<asrwt>0</asrwt>
<pdfrwt beam="1">  1       21 0.29437124E-01 0.47153124E+03</pdfrwt>
<pdfrwt beam="2">  1       21 0.40836429E-01 0.47153124E+03</pdfrwt>
<totfact> 0.58756650E+04</totfact>
</mgrwt>
</event>
<event>
 7    0  0.4709932E-002  0.4482726E+03  0.7546771E-02  0.1028238E+00
         21   -1    0    0  502  501  0.00000000000E+00  0.00000000000E+00  0.22792945401E+03  0.22792945401E+03  0.00000000000E+00 0.  1.
         21   -1    0    0  501  502 -0.00000000000E+00 -0.00000000000E+00 -0.22040628308E+03  0.22040628308E+03  0.00000000000E+00 0.  1.
      99926    2    1    2    0    0  0.00000000000E+00 -0.71054273576E-14  0.75231709351E+01  0.44833573709E+03  0.44827261242E+03 0.  0.
      99925    2    3    3    0    0 -0.36642985665E+01 -0.60371880327E+02  0.92525040732E+02  0.28545229107E+03  0.26318042537E+03 0.  0.
         25    1    4    4    0    0  0.38342830216E+02 -0.32624242045E+02  0.53624280153E+02  0.14511231967E+03  0.12509000000E+03 0.  0.
         25    1    4    4    0    0 -0.42007128783E+02 -0.27747638282E+02  0.38900760579E+02  0.14033997140E+03  0.12509000000E+03 0.  0.
         25    1    3    3    0    0  0.36642985665E+01  0.60371880327E+02 -0.85001869797E+02  0.16288344602E+03  0.12509000000E+03 0.  0.
<mgrwt>
<rscale>  2 0.44827261E+03</rscale>
<asrwt>0</asrwt>
<pdfrwt beam="1">  1       21 0.33519037E-01 0.44827261E+03</pdfrwt>
<pdfrwt beam="2">  1       21 0.32412689E-01 0.44827261E+03</pdfrwt>
<totfact> 0.72870447E+04</totfact>
</mgrwt>
</event>
<event>
 7    0  0.4709932E-002  0.4656625E+03  0.7546771E-02  0.1023152E+00
         21   -1    0    0  502  501  0.00000000000E+00  0.00000000000E+00  0.49775863531E+03  0.49775863531E+03  0.00000000000E+00 0.  1.
         21   -1    0    0  501  502 -0.00000000000E+00 -0.00000000000E+00 -0.10890900054E+03  0.10890900054E+03  0.00000000000E+00 0.  1.
      99926    2    1    2    0    0  0.00000000000E+00  0.00000000000E+00  0.38884963477E+03  0.60666763584E+03  0.46566251934E+03 0.  0.
      99925    2    3    3    0    0 -0.11354221793E+02 -0.31270497310E+02  0.88206787729E+02  0.27934456618E+03  0.26295662551E+03 0.  0.
         25    1    4    4    0    0 -0.57334457369E+01 -0.45418113842E+01  0.26106527641E+01  0.12533085837E+03  0.12509000000E+03 0.  0.
         25    1    4    4    0    0 -0.56207760565E+01 -0.26728685925E+02  0.85596134965E+02  0.15401370782E+03  0.12509000000E+03 0.  0.
         25    1    3    3    0    0  0.11354221793E+02  0.31270497310E+02  0.30064284704E+03  0.32732306966E+03  0.12509000000E+03 0.  0.
<mgrwt>
<rscale>  2 0.46566252E+03</rscale>
<asrwt>0</asrwt>
<pdfrwt beam="1">  1       21 0.73199799E-01 0.46566252E+03</pdfrwt>
<pdfrwt beam="2">  1       21 0.16016030E-01 0.46566252E+03</pdfrwt>
<totfact> 0.53609177E+04</totfact>
</mgrwt>
</event>
<event>
 6    0  0.4709932E-002  0.4540982E+03  0.7546771E-02  0.1026507E+00
         21   -1    0    0  502  501  0.00000000000E+00  0.00000000000E+00  0.18291966059E+03  0.18291966059E+03  0.00000000000E+00 0. -1.
         21   -1    0    0  501  502 -0.00000000000E+00 -0.00000000000E+00 -0.28182481323E+03  0.28182481323E+03  0.00000000000E+00 0. -1.
      99926    2    1    2    0    0 -0.88817841970E-15 -0.52735593670E-15 -0.98905152636E+02  0.46474447382E+03  0.45409822366E+03 0.  0.
         25    1    3    3    0    0 -0.15935440176E+02 -0.14310297564E+02 -0.13438890898E+03  0.18484212135E+03  0.12509000000E+03 0.  0.
         25    1    3    3    0    0 -0.36239377597E+01 -0.24440275539E+00  0.75707969206E+02  0.14626140078E+03  0.12509000000E+03 0.  0.
         25    1    3    3    0    0  0.19559377936E+02  0.14554700319E+02 -0.40224212865E+02  0.13364095168E+03  0.12509000000E+03 0.  0.
<mgrwt>
<rscale>  2 0.45409822E+03</rscale>
<asrwt>0</asrwt>
<pdfrwt beam="1">  1       21 0.26899950E-01 0.45409822E+03</pdfrwt>
<pdfrwt beam="2">  1       21 0.41444825E-01 0.45409822E+03</pdfrwt>
<totfact> 0.68316486E+04</totfact>
</mgrwt>
</event>
<event>
 7    0  0.4709932E-002  0.4597625E+03  0.7546771E-02  0.1024850E+00
         21   -1    0    0  502  501  0.00000000000E+00  0.00000000000E+00  0.21135339545E+03  0.21135339545E+03  0.00000000000E+00 0. -1.
         21   -1    0    0  501  502 -0.00000000000E+00 -0.00000000000E+00 -0.25003327198E+03  0.25003327198E+03  0.00000000000E+00 0. -1.
      99926    2    1    2    0    0  0.00000000000E+00 -0.14210854715E-13 -0.38679876538E+02  0.46138666743E+03  0.45976246479E+03 0.  0.
      99925    2    3    3    0    0  0.84413575691E+02  0.80967479461E+02 -0.36988371711E+02  0.29012151108E+03  0.26290866676E+03 0.  0.
         25    1    3    3    0    0 -0.84413575691E+02 -0.80967479461E+02 -0.16915048272E+01  0.17126515635E+03  0.12509000000E+03 0.  0.
         25    1    4    4    0    0  0.53231704313E+02  0.77868522923E+02 -0.37804068070E+02  0.16116381997E+03  0.12509000000E+03 0.  0.
         25    1    4    4    0    0  0.31181871379E+02  0.30989565388E+01  0.81569635954E+00  0.12895769110E+03  0.12509000000E+03 0.  0.
<mgrwt>
<rscale>  2 0.45976246E+03</rscale>
<asrwt>0</asrwt>
<pdfrwt beam="1">  1       21 0.31081382E-01 0.45976246E+03</pdfrwt>
<pdfrwt beam="2">  1       21 0.36769599E-01 0.45976246E+03</pdfrwt>
<totfact> 0.65553883E+04</totfact>
</mgrwt>
</event>
<event>
 7    0  0.4709932E-002  0.4506555E+03  0.7546771E-02  0.1027527E+00
         21   -1    0    0  502  501  0.00000000000E+00  0.00000000000E+00  0.52181638551E+02  0.52181638551E+02  0.00000000000E+00 0. -1.
         21   -1    0    0  501  502 -0.00000000000E+00 -0.00000000000E+00 -0.97299732609E+03  0.97299732609E+03  0.00000000000E+00 0. -1.
      99926    2    1    2    0    0 -0.35527136788E-14 -0.14432899320E-14 -0.92081568754E+03  0.10251789646E+04  0.45065549938E+03 0.  0.
      99925    2    3    3    0    0 -0.12848071341E+02 -0.99411363973E+00 -0.33619618138E+03  0.42718771363E+03  0.26324021179E+03 0.  0.
         25    1    4    4    0    0  0.15909591292E+02 -0.34795429135E+02 -0.16922054351E+03  0.21388533711E+03  0.12509000000E+03 0.  0.
         25    1    4    4    0    0 -0.28757662633E+02  0.33801315495E+02 -0.16697563787E+03  0.21330237652E+03  0.12509000000E+03 0.  0.
         25    1    3    3    0    0  0.12848071341E+02  0.99411363973E+00 -0.58461950616E+03  0.59799125101E+03  0.12509000000E+03 0.  0.
<mgrwt>
<rscale>  2 0.45065550E+03</rscale>
<asrwt>0</asrwt>
<pdfrwt beam="1">  1       21 0.76737706E-02 0.45065550E+03</pdfrwt>
<pdfrwt beam="2">  1       21 0.14308784E+00 0.45065550E+03</pdfrwt>
<totfact> 0.39525266E+04</totfact>
</mgrwt>
</event>
<event>
 7    0  0.4709932E-002  0.4567944E+03  0.7546771E-02  0.1025715E+00
         21   -1    0    0  502  501  0.00000000000E+00  0.00000000000E+00  0.43168029957E+02  0.43168029957E+02  0.00000000000E+00 0.  1.
         21   -1    0    0  501  502 -0.00000000000E+00 -0.00000000000E+00 -0.12084239944E+04  0.12084239944E+04  0.00000000000E+00 0.  1.
      99926    2    1    2    0    0 -0.71054273576E-14  0.00000000000E+00 -0.11652559644E+04  0.12515920244E+04  0.45679440973E+03 0.  0.
      99925    2    3    3    0    0 -0.61925974472E+02 -0.92472758398E+02 -0.65428183235E+03  0.71388568338E+03  0.26298672101E+03 0.  0.
         25    1    3    3    0    0  0.61925974472E+02  0.92472758398E+02 -0.51097413209E+03  0.53770634098E+03  0.12509000000E+03 0.  0.
         25    1    4    4    0    0 -0.10837447071E+02 -0.57567880412E+02 -0.40883840818E+03  0.43154126479E+03  0.12509000000E+03 0.  0.
         25    1    4    4    0    0 -0.51088527401E+02 -0.34904877986E+02 -0.24544342417E+03  0.28234441859E+03  0.12509000000E+03 0.  0.
<mgrwt>
<rscale>  2 0.45679441E+03</rscale>
<asrwt>0</asrwt>
<pdfrwt beam="1">  1       21 0.63482393E-02 0.45679441E+03</pdfrwt>
<pdfrwt beam="2">  1       21 0.17770942E+00 0.45679441E+03</pdfrwt>
<totfact> 0.30130516E+04</totfact>
</mgrwt>
</event>
<event>
 7    0  0.4709932E-002  0.4545615E+03  0.7546771E-02  0.1026370E+00
         21   -1    0    0  502  501  0.00000000000E+00  0.00000000000E+00  0.10961713255E+03  0.10961713255E+03  0.00000000000E+00 0. -1.
         21   -1    0    0  501  502 -0.00000000000E+00 -0.00000000000E+00 -0.47124510126E+03  0.47124510126E+03  0.00000000000E+00 0. -1.
      99926    2    1    2    0    0  0.00000000000E+00  0.00000000000E+00 -0.36162796870E+03  0.58086223381E+03  0.45456148860E+03 0.  0.
      99925    2    3    3    0    0  0.42944764675E+02 -0.97320073264E+02 -0.17956965886E+03  0.33569252574E+03  0.26292348693E+03 0.  0.
         25    1    4    4    0    0  0.12974744702E+02 -0.74638803030E+02 -0.13101232396E+03  0.19634416734E+03  0.12509000000E+03 0.  0.
         25    1    3    3    0    0 -0.42944764675E+02  0.97320073264E+02 -0.18205830984E+03  0.24516970807E+03  0.12509000000E+03 0.  0.
         25    1    4    4    0    0  0.29970019973E+02 -0.22681270234E+02 -0.48557334899E+02  0.13934835840E+03  0.12509000000E+03 0.  0.
<mgrwt>
<rscale>  2 0.45456149E+03</rscale>
<asrwt>0</asrwt>
<pdfrwt beam="1">  1       21 0.16120167E-01 0.45456149E+03</pdfrwt>
<pdfrwt beam="2">  1       21 0.69300749E-01 0.45456149E+03</pdfrwt>
<totfact> 0.60079991E+04</totfact>
</mgrwt>
</event>
<event>
 7    0  0.4709932E-002  0.4550876E+03  0.7546771E-02  0.1026216E+00
         21   -1    0    0  502  501  0.00000000000E+00  0.00000000000E+00  0.20151436998E+03  0.20151436998E+03  0.00000000000E+00 0. -1.
         21   -1    0    0  501  502 -0.00000000000E+00 -0.00000000000E+00 -0.25693541853E+03  0.25693541853E+03  0.00000000000E+00 0. -1.
      99926    2    1    2    0    0  0.71054273576E-14  0.00000000000E+00 -0.55421048551E+02  0.45844978851E+03  0.45508759153E+03 0.  0.
      99925    2    3    3    0    0 -0.54361151182E+02  0.88951341744E+02  0.96615188248E+01  0.28309094319E+03  0.26302026769E+03 0.  0.
         25    1    4    4    0    0 -0.30130002566E+02  0.85375506163E+02 -0.68073323848E+01  0.15456597938E+03  0.12509000000E+03 0.  0.
         25    1    4    4    0    0 -0.24231148616E+02  0.35758355808E+01  0.16468851210E+02  0.12852496381E+03  0.12509000000E+03 0.  0.
         25    1    3    3    0    0  0.54361151182E+02 -0.88951341744E+02 -0.65082567376E+02  0.17535884532E+03  0.12509000000E+03 0.  0.
<mgrwt>
<rscale>  2 0.45508759E+03</rscale>
<asrwt>0</asrwt>
<pdfrwt beam="1">  1       21 0.29634466E-01 0.45508759E+03</pdfrwt>
<pdfrwt beam="2">  1       21 0.37784620E-01 0.45508759E+03</pdfrwt>
<totfact> 0.68245961E+04</totfact>
</mgrwt>
</event>
<event>
 7    0  0.4709932E-002  0.4545389E+03  0.7546771E-02  0.1026377E+00
         21   -1    0    0  502  501  0.00000000000E+00  0.00000000000E+00  0.13875001336E+03  0.13875001336E+03  0.00000000000E+00 0.  1.
         21   -1    0    0  501  502 -0.00000000000E+00 -0.00000000000E+00 -0.37226233771E+03  0.37226233771E+03  0.00000000000E+00 0.  1.
      99926    2    1    2    0    0  0.00000000000E+00 -0.14210854715E-13 -0.23351232436E+03  0.51101235107E+03  0.45453890628E+03 0.  0.
      99925    2    3    3    0    0 -0.34701504200E+02  0.71205879796E+02 -0.56844472390E+02  0.28050528018E+03  0.26301605741E+03 0.  0.
         25    1    3    3    0    0  0.34701504200E+02 -0.71205879796E+02 -0.17666785197E+03  0.23050707089E+03  0.12509000000E+03 0.  0.
         25    1    4    4    0    0 -0.25990293885E+02  0.67955180215E+02 -0.55716080946E+02  0.15506512074E+03  0.12509000000E+03 0.  0.
         25    1    4    4    0    0 -0.87112103149E+01  0.32506995811E+01 -0.11283914442E+01  0.12544015944E+03  0.12509000000E+03 0.  0.
<mgrwt>
<rscale>  2 0.45453891E+03</rscale>
<asrwt>0</asrwt>
<pdfrwt beam="1">  1       21 0.20404414E-01 0.45453891E+03</pdfrwt>
<pdfrwt beam="2">  1       21 0.54744461E-01 0.45453891E+03</pdfrwt>
<totfact> 0.64740305E+04</totfact>
</mgrwt>
</event>
<event>
 7    0  0.4709932E-002  0.4551569E+03  0.7546771E-02  0.1026195E+00
         21   -1    0    0  502  501  0.00000000000E+00  0.00000000000E+00  0.15727876187E+04  0.15727876187E+04  0.00000000000E+00 0.  1.
         21   -1    0    0  501  502 -0.00000000000E+00 -0.00000000000E+00 -0.32930039030E+02  0.32930039030E+02  0.00000000000E+00 0.  1.
      99926    2    1    2    0    0  0.00000000000E+00  0.17763568394E-14  0.15398575796E+04  0.16057176577E+04  0.45515692972E+03 0.  0.
      99925    2    3    3    0    0  0.79288238975E+02  0.14173326232E+02  0.68763641568E+03  0.74060730149E+03  0.26299776965E+03 0.  0.
         25    1    3    3    0    0 -0.79288238975E+02 -0.14173326232E+02  0.85222116396E+03  0.86511035621E+03  0.12509000000E+03 0.  0.
         25    1    4    4    0    0  0.62765485946E+02  0.36919028498E+02  0.40995156317E+03  0.43475316346E+03  0.12509000000E+03 0.  0.
         25    1    4    4    0    0  0.16522753029E+02 -0.22745702267E+02  0.27768485251E+03  0.30585413804E+03  0.12509000000E+03 0.  0.
<mgrwt>
<rscale>  2 0.45515693E+03</rscale>
<asrwt>0</asrwt>
<pdfrwt beam="1">  1       21 0.23129225E+00 0.45515693E+03</pdfrwt>
<pdfrwt beam="2">  1       21 0.48426539E-02 0.45515693E+03</pdfrwt>
<totfact> 0.21274962E+04</totfact>
</mgrwt>
</event>
<event>
 7    0  0.4709932E-002  0.4407359E+03  0.7546771E-02  0.1030521E+00
         21   -1    0    0  502  501  0.00000000000E+00  0.00000000000E+00  0.64649429114E+03  0.64649429114E+03  0.00000000000E+00 0. -1.
         21   -1    0    0  501  502 -0.00000000000E+00 -0.00000000000E+00 -0.75115944344E+02  0.75115944344E+02  0.00000000000E+00 0. -1.
      99926    2    1    2    0    0  0.00000000000E+00  0.00000000000E+00  0.57137834680E+03  0.72161023549E+03  0.44073588096E+03 0.  0.
      99925    2    3    3    0    0 -0.40311594759E+01  0.12449500445E+02  0.20252429153E+03  0.33190257262E+03  0.26262518681E+03 0.  0.
         25    1    3    3    0    0  0.40311594759E+01 -0.12449500445E+02  0.36885405527E+03  0.38970766287E+03  0.12509000000E+03 0.  0.
         25    1    4    4    0    0 -0.13790783276E+02  0.32432183824E+02  0.67285591343E+02  0.14634510977E+03  0.12509000000E+03 0.  0.
         25    1    4    4    0    0  0.97596238005E+01 -0.19982683378E+02  0.13523870019E+03  0.18555746285E+03  0.12509000000E+03 0.  0.
<mgrwt>
<rscale>  2 0.44073588E+03</rscale>
<asrwt>0</asrwt>
<pdfrwt beam="1">  1       21 0.95072687E-01 0.44073588E+03</pdfrwt>
<pdfrwt beam="2">  1       21 0.11046463E-01 0.44073588E+03</pdfrwt>
<totfact> 0.57981575E+04</totfact>
</mgrwt>
</event>
<event>
 7    0  0.4709932E-002  0.4551727E+03  0.7546771E-02  0.1026191E+00
         21   -1    0    0  502  501  0.00000000000E+00  0.00000000000E+00  0.39338190695E+03  0.39338190695E+03  0.00000000000E+00 0. -1.
         21   -1    0    0  501  502 -0.00000000000E+00 -0.00000000000E+00 -0.13166733941E+03  0.13166733941E+03  0.00000000000E+00 0. -1.
      99926    2    1    2    0    0  0.00000000000E+00 -0.71054273576E-14  0.26171456755E+03  0.52504924636E+03  0.45517271034E+03 0.  0.
      99925    2    3    3    0    0  0.87544290558E+02 -0.50132590108E+02  0.10512886891E+03  0.30067485273E+03  0.26301332397E+03 0.  0.
         25    1    3    3    0    0 -0.87544290558E+02  0.50132590108E+02  0.15658569863E+03  0.22437439363E+03  0.12509000000E+03 0.  0.
         25    1    4    4    0    0  0.46289048231E+02  0.13869260330E+02  0.63854412428E+02  0.14852584440E+03  0.12509000000E+03 0.  0.
         25    1    4    4    0    0  0.41255242327E+02 -0.64001850438E+02  0.41274456485E+02  0.15214900833E+03  0.12509000000E+03 0.  0.
<mgrwt>
<rscale>  2 0.45517271E+03</rscale>
<asrwt>0</asrwt>
<pdfrwt beam="1">  1       21 0.57850280E-01 0.45517271E+03</pdfrwt>
<pdfrwt beam="2">  1       21 0.19362844E-01 0.45517271E+03</pdfrwt>
<totfact> 0.63455974E+04</totfact>
</mgrwt>
</event>
<event>
 7    0  0.4709932E-002  0.4496519E+03  0.7546771E-02  0.1027826E+00
         21   -1    0    0  502  501  0.00000000000E+00  0.00000000000E+00  0.21878858168E+03  0.21878858168E+03  0.00000000000E+00 0.  1.
         21   -1    0    0  501  502 -0.00000000000E+00 -0.00000000000E+00 -0.23102990388E+03  0.23102990388E+03  0.00000000000E+00 0.  1.
      99926    2    1    2    0    0 -0.71054273576E-14  0.17763568394E-14 -0.12241322201E+02  0.44981848556E+03  0.44965188756E+03 0.  0.
      99925    2    3    3    0    0  0.35438628472E+02 -0.10848512144E+02 -0.11017956442E+03  0.28668359048E+03  0.26205792877E+03 0.  0.
         25    1    4    4    0    0  0.47586917596E+02  0.43981824693E+00 -0.29929182486E+02  0.13714216066E+03  0.12509000000E+03 0.  0.
         25    1    4    4    0    0 -0.12148289124E+02 -0.11288330391E+02 -0.80250381935E+02  0.14954142982E+03  0.12509000000E+03 0.  0.
         25    1    3    3    0    0 -0.35438628472E+02  0.10848512144E+02  0.97938242220E+02  0.16313489508E+03  0.12509000000E+03 0.  0.
<mgrwt>
<rscale>  2 0.44965189E+03</rscale>
<asrwt>0</asrwt>
<pdfrwt beam="1">  1       21 0.32174791E-01 0.44965189E+03</pdfrwt>
<pdfrwt beam="2">  1       21 0.33974986E-01 0.44965189E+03</pdfrwt>
<totfact> 0.71948612E+04</totfact>
</mgrwt>
</event>
<event>
 7    0  0.4709932E-002  0.4537785E+03  0.7546771E-02  0.1026601E+00
         21   -1    0    0  502  501  0.00000000000E+00  0.00000000000E+00  0.11331431621E+03  0.11331431621E+03  0.00000000000E+00 0. -1.
         21   -1    0    0  501  502 -0.00000000000E+00 -0.00000000000E+00 -0.45430040781E+03  0.45430040781E+03  0.00000000000E+00 0. -1.
      99926    2    1    2    0    0  0.00000000000E+00  0.00000000000E+00 -0.34098609160E+03  0.56761472402E+03  0.45377853658E+03 0.  0.
      99925    2    3    3    0    0  0.81823635685E+02 -0.59086187303E+02 -0.27557294379E+03  0.39408468947E+03  0.26301332711E+03 0.  0.
         25    1    4    4    0    0 -0.99055970352E+00 -0.21802445410E+02 -0.11787585955E+03  0.17325863384E+03  0.12509000000E+03 0.  0.
         25    1    4    4    0    0  0.82814195388E+02 -0.37283741894E+02 -0.15769708424E+03  0.22082605563E+03  0.12509000000E+03 0.  0.
         25    1    3    3    0    0 -0.81823635685E+02  0.59086187303E+02 -0.65413147810E+02  0.17353003456E+03  0.12509000000E+03 0.  0.
<mgrwt>
<rscale>  2 0.45377854E+03</rscale>
<asrwt>0</asrwt>
<pdfrwt beam="1">  1       21 0.16663870E-01 0.45377854E+03</pdfrwt>
<pdfrwt beam="2">  1       21 0.66808883E-01 0.45377854E+03</pdfrwt>
<totfact> 0.61307373E+04</totfact>
</mgrwt>
</event>
<event>
 7    0  0.4709932E-002  0.4557104E+03  0.7546771E-02  0.1026033E+00
         21   -1    0    0  502  501  0.00000000000E+00  0.00000000000E+00  0.49721696690E+03  0.49721696690E+03  0.00000000000E+00 0.  1.
         21   -1    0    0  501  502 -0.00000000000E+00 -0.00000000000E+00 -0.10441717013E+03  0.10441717013E+03  0.00000000000E+00 0.  1.
      99926    2    1    2    0    0  0.00000000000E+00  0.00000000000E+00  0.39279979676E+03  0.60163413703E+03  0.45571038446E+03 0.  0.
      99925    2    3    3    0    0 -0.59115197435E+02  0.41974034790E+02  0.36284076617E+03  0.45398090213E+03  0.26303766219E+03 0.  0.
         25    1    4    4    0    0 -0.51136563540E+02  0.55861481481E+02  0.18098903407E+03  0.23268002019E+03  0.12509000000E+03 0.  0.
         25    1    3    3    0    0  0.59115197435E+02 -0.41974034790E+02  0.29959030590E+02  0.14765323491E+03  0.12509000000E+03 0.  0.
         25    1    4    4    0    0 -0.79786338944E+01 -0.13887446691E+02  0.18185173210E+03  0.22130088193E+03  0.12509000000E+03 0.  0.
<mgrwt>
<rscale>  2 0.45571038E+03</rscale>
<asrwt>0</asrwt>
<pdfrwt beam="1">  1       21 0.73120141E-01 0.45571038E+03</pdfrwt>
<pdfrwt beam="2">  1       21 0.15355466E-01 0.45571038E+03</pdfrwt>
<totfact> 0.58250166E+04</totfact>
</mgrwt>
</event>
<event>
 7    0  0.4709932E-002  0.4562710E+03  0.7546771E-02  0.1025868E+00
         21   -1    0    0  502  501  0.00000000000E+00  0.00000000000E+00  0.94922653683E+02  0.94922653683E+02  0.00000000000E+00 0. -1.
         21   -1    0    0  501  502 -0.00000000000E+00 -0.00000000000E+00 -0.54829705190E+03  0.54829705190E+03  0.00000000000E+00 0. -1.
      99926    2    1    2    0    0  0.00000000000E+00 -0.71054273576E-14 -0.45337439822E+03  0.64321970558E+03  0.45627102110E+03 0.  0.
      99925    2    3    3    0    0 -0.97300008852E+02  0.58707788695E+02 -0.26917748801E+03  0.39323989439E+03  0.26318662259E+03 0.  0.
         25    1    4    4    0    0 -0.53961491347E+02  0.64675138487E+02 -0.11317265682E+03  0.18854780412E+03  0.12509000000E+03 0.  0.
         25    1    4    4    0    0 -0.43338517505E+02 -0.59673497919E+01 -0.15600483119E+03  0.20469209027E+03  0.12509000000E+03 0.  0.
         25    1    3    3    0    0  0.97300008852E+02 -0.58707788695E+02 -0.18419691021E+03  0.24997981120E+03  0.12509000000E+03 0.  0.
<mgrwt>
<rscale>  2 0.45627102E+03</rscale>
<asrwt>0</asrwt>
<pdfrwt beam="1">  1       21 0.13959214E-01 0.45627102E+03</pdfrwt>
<pdfrwt beam="2">  1       21 0.80631917E-01 0.45627102E+03</pdfrwt>
<totfact> 0.55534723E+04</totfact>
</mgrwt>
</event>
<event>
 7    0  0.4709932E-002  0.4503062E+03  0.7546771E-02  0.1027631E+00
         21   -1    0    0  502  501  0.00000000000E+00  0.00000000000E+00  0.95986466282E+02  0.95986466282E+02  0.00000000000E+00 0. -1.
         21   -1    0    0  501  502 -0.00000000000E+00 -0.00000000000E+00 -0.52813619755E+03  0.52813619755E+03  0.00000000000E+00 0. -1.
      99926    2    1    2    0    0  0.00000000000E+00  0.00000000000E+00 -0.43214973127E+03  0.62412266384E+03  0.45030623944E+03 0.  0.
      99925    2    3    3    0    0  0.63958407460E+02  0.30541654144E+02 -0.38732506281E+03  0.47352309702E+03  0.26302081402E+03 0.  0.
         25    1    3    3    0    0 -0.63958407460E+02 -0.30541654144E+02 -0.44824668462E+02  0.15059956682E+03  0.12509000000E+03 0.  0.
         25    1    4    4    0    0  0.61749091947E+02 -0.12407237685E+02 -0.20475746268E+03  0.24807260334E+03  0.12509000000E+03 0.  0.
         25    1    4    4    0    0  0.22093155136E+01  0.42948891830E+02 -0.18256760013E+03  0.22545049368E+03  0.12509000000E+03 0.  0.
<mgrwt>
<rscale>  2 0.45030624E+03</rscale>
<asrwt>0</asrwt>
<pdfrwt beam="1">  1       21 0.14115657E-01 0.45030624E+03</pdfrwt>
<pdfrwt beam="2">  1       21 0.77667087E-01 0.45030624E+03</pdfrwt>
<totfact> 0.59387906E+04</totfact>
</mgrwt>
</event>
<event>
 7    0  0.4709932E-002  0.4468318E+03  0.7546771E-02  0.1028671E+00
         21   -1    0    0  502  501  0.00000000000E+00  0.00000000000E+00  0.46683230489E+03  0.46683230489E+03  0.00000000000E+00 0. -1.
         21   -1    0    0  501  502 -0.00000000000E+00 -0.00000000000E+00 -0.10692206744E+03  0.10692206744E+03  0.00000000000E+00 0. -1.
      99926    2    1    2    0    0  0.00000000000E+00  0.88817841970E-15  0.35991023745E+03  0.57375437234E+03  0.44683184841E+03 0.  0.
      99925    2    3    3    0    0 -0.72160398057E+02 -0.35390716371E+01  0.32672097229E+03  0.42553600810E+03  0.26289665722E+03 0.  0.
         25    1    4    4    0    0 -0.56404589315E+02  0.29187851638E+02  0.19565050346E+03  0.24074890650E+03  0.12509000000E+03 0.  0.
         25    1    4    4    0    0 -0.15755808741E+02 -0.32726923275E+02  0.13107046884E+03  0.18478710160E+03  0.12509000000E+03 0.  0.
         25    1    3    3    0    0  0.72160398057E+02  0.35390716371E+01  0.33189265156E+02  0.14821836424E+03  0.12509000000E+03 0.  0.
<mgrwt>
<rscale>  2 0.44683185E+03</rscale>
<asrwt>0</asrwt>
<pdfrwt beam="1">  1       21 0.68651809E-01 0.44683185E+03</pdfrwt>
<pdfrwt beam="2">  1       21 0.15723834E-01 0.44683185E+03</pdfrwt>
<totfact> 0.64381961E+04</totfact>
</mgrwt>
</event>
<event>
 7    0  0.4709932E-002  0.4616221E+03  0.7546771E-02  0.1024312E+00
         21   -1    0    0  502  501  0.00000000000E+00  0.00000000000E+00  0.34259687740E+03  0.34259687740E+03  0.00000000000E+00 0.  1.
         21   -1    0    0  501  502 -0.00000000000E+00 -0.00000000000E+00 -0.15549980979E+03  0.15549980979E+03  0.00000000000E+00 0.  1.
      99926    2    1    2    0    0  0.35527136788E-14  0.14210854715E-13  0.18709706761E+03  0.49809668719E+03  0.46162213668E+03 0.  0.
      99925    2    3    3    0    0 -0.26815654809E+02 -0.11634868862E+03  0.11406423676E+03  0.31038041413E+03  0.26281030170E+03 0.  0.
         25    1    4    4    0    0  0.72786000037E+01 -0.35673695158E+02  0.22155322190E+02  0.13215126540E+03  0.12509000000E+03 0.  0.
         25    1    3    3    0    0  0.26815654809E+02  0.11634868862E+03  0.73032830850E+02  0.18771627305E+03  0.12509000000E+03 0.  0.
         25    1    4    4    0    0 -0.34094254812E+02 -0.80674993466E+02  0.91908914572E+02  0.17822914874E+03  0.12509000000E+03 0.  0.
<mgrwt>
<rscale>  2 0.46162214E+03</rscale>
<asrwt>0</asrwt>
<pdfrwt beam="1">  1       21 0.50381894E-01 0.46162214E+03</pdfrwt>
<pdfrwt beam="2">  1       21 0.22867619E-01 0.46162214E+03</pdfrwt>
<totfact> 0.62076464E+04</totfact>
</mgrwt>
</event>
<event>
 7    0  0.4709932E-002  0.4610374E+03  0.7546771E-02  0.1024481E+00
         21   -1    0    0  502  501  0.00000000000E+00  0.00000000000E+00  0.46935642592E+03  0.46935642592E+03  0.00000000000E+00 0. -1.
         21   -1    0    0  501  502 -0.00000000000E+00 -0.00000000000E+00 -0.11321645479E+03  0.11321645479E+03  0.00000000000E+00 0. -1.
      99926    2    1    2    0    0 -0.14210854715E-13  0.00000000000E+00  0.35613997113E+03  0.58257288071E+03  0.46103739794E+03 0.  0.
      99925    2    3    3    0    0 -0.79486036639E+02 -0.79728774969E+02  0.27066606179E+03  0.39381905994E+03  0.26298027946E+03 0.  0.
         25    1    4    4    0    0 -0.82075264931E+02 -0.43664293574E+02  0.14785636424E+03  0.21483000766E+03  0.12509000000E+03 0.  0.
         25    1    3    3    0    0  0.79486036639E+02  0.79728774969E+02  0.85473909341E+02  0.18875382077E+03  0.12509000000E+03 0.  0.
         25    1    4    4    0    0  0.25892282912E+01 -0.36064481395E+02  0.12280969755E+03  0.17898905227E+03  0.12509000000E+03 0.  0.
<mgrwt>
<rscale>  2 0.46103740E+03</rscale>
<asrwt>0</asrwt>
<pdfrwt beam="1">  1       21 0.69023003E-01 0.46103740E+03</pdfrwt>
<pdfrwt beam="2">  1       21 0.16649479E-01 0.46103740E+03</pdfrwt>
<totfact> 0.56994664E+04</totfact>
</mgrwt>
</event>
<event>
 7    0  0.4709932E-002  0.4617117E+03  0.7546771E-02  0.1024286E+00
         21   -1    0    0  502  501  0.00000000000E+00  0.00000000000E+00  0.98284728497E+02  0.98284728497E+02  0.00000000000E+00 0.  1.
         21   -1    0    0  501  502 -0.00000000000E+00 -0.00000000000E+00 -0.54224531980E+03  0.54224531980E+03  0.00000000000E+00 0.  1.
      99926    2    1    2    0    0  0.00000000000E+00  0.00000000000E+00 -0.44396059131E+03  0.64053004830E+03  0.46171174573E+03 0.  0.
      99925    2    3    3    0    0 -0.74717407878E+02 -0.87518541911E+02 -0.23346351115E+03  0.36997743775E+03  0.26293707839E+03 0.  0.
         25    1    3    3    0    0  0.74717407878E+02  0.87518541911E+02 -0.21049708016E+03  0.27055261055E+03  0.12509000000E+03 0.  0.
         25    1    4    4    0    0 -0.46818723915E+01 -0.67483035081E+02 -0.11922584107E+03  0.18557529262E+03  0.12509000000E+03 0.  0.
         25    1    4    4    0    0 -0.70035535487E+02 -0.20035506830E+02 -0.11423767008E+03  0.18440214513E+03  0.12509000000E+03 0.  0.
<mgrwt>
<rscale>  2 0.46171175E+03</rscale>
<asrwt>0</asrwt>
<pdfrwt beam="1">  1       21 0.14453636E-01 0.46171175E+03</pdfrwt>
<pdfrwt beam="2">  1       21 0.79741960E-01 0.46171175E+03</pdfrwt>
<totfact> 0.53366963E+04</totfact>
</mgrwt>
</event>
<event>
 7    0  0.4709932E-002  0.4598749E+03  0.7546771E-02  0.1024817E+00
         21   -1    0    0  502  501  0.00000000000E+00  0.00000000000E+00  0.48885687598E+03  0.48885687598E+03  0.00000000000E+00 0.  1.
         21   -1    0    0  501  502 -0.00000000000E+00 -0.00000000000E+00 -0.10815280028E+03  0.10815280028E+03  0.00000000000E+00 0.  1.
      99926    2    1    2    0    0 -0.14210854715E-13  0.00000000000E+00  0.38070407570E+03  0.59700967625E+03  0.45987493983E+03 0.  0.
      99925    2    3    3    0    0 -0.73750723591E+02 -0.81236917905E+02  0.29354012790E+03  0.40917020235E+03  0.26308903767E+03 0.  0.
         25    1    4    4    0    0 -0.17489207438E+02 -0.51498356372E+02  0.95784471464E+02  0.16667371166E+03  0.12509000000E+03 0.  0.
         25    1    3    3    0    0  0.73750723591E+02  0.81236917905E+02  0.87163947802E+02  0.18783947391E+03  0.12509000000E+03 0.  0.
         25    1    4    4    0    0 -0.56261516153E+02 -0.29738561533E+02  0.19775565644E+03  0.24249649069E+03  0.12509000000E+03 0.  0.
<mgrwt>
<rscale>  2 0.45987494E+03</rscale>
<asrwt>0</asrwt>
<pdfrwt beam="1">  1       21 0.71890716E-01 0.45987494E+03</pdfrwt>
<pdfrwt beam="2">  1       21 0.15904824E-01 0.45987494E+03</pdfrwt>
<totfact> 0.56648721E+04</totfact>
</mgrwt>
</event>
<event>
 6    0  0.4709932E-002  0.4543074E+03  0.7546771E-02  0.1026445E+00
         21   -1    0    0  502  501  0.00000000000E+00  0.00000000000E+00  0.73025896678E+03  0.73025896678E+03  0.00000000000E+00 0.  1.
         21   -1    0    0  501  502 -0.00000000000E+00 -0.00000000000E+00 -0.70658234726E+02  0.70658234726E+02  0.00000000000E+00 0.  1.
      99926    2    1    2    0    0  0.53290705182E-14  0.71054273576E-14  0.65960073205E+03  0.80091720150E+03  0.45430742669E+03 0.  0.
         25    1    3    3    0    0  0.13574439995E+02  0.53815299178E+02  0.40538834112E+03  0.42786395859E+03  0.12509000000E+03 0.  0.
         25    1    3    3    0    0  0.31953637329E+02 -0.53040211783E+02  0.13929821078E+03  0.19719482405E+03  0.12509000000E+03 0.  0.
         25    1    3    3    0    0 -0.45528077324E+02 -0.77508739536E+00  0.11491418015E+03  0.17585841886E+03  0.12509000000E+03 0.  0.
<mgrwt>
<rscale>  2 0.45430743E+03</rscale>
<asrwt>0</asrwt>
<pdfrwt beam="1">  1       21 0.10739102E+00 0.45430743E+03</pdfrwt>
<pdfrwt beam="2">  1       21 0.10390917E-01 0.45430743E+03</pdfrwt>
<totfact> 0.47980727E+04</totfact>
</mgrwt>
</event>
<event>
 7    0  0.4709932E-002  0.4484841E+03  0.7546771E-02  0.1028175E+00
         21   -1    0    0  502  501  0.00000000000E+00  0.00000000000E+00  0.41359248481E+03  0.41359248481E+03  0.00000000000E+00 0.  1.
         21   -1    0    0  501  502 -0.00000000000E+00 -0.00000000000E+00 -0.12157978969E+03  0.12157978969E+03  0.00000000000E+00 0.  1.
      99926    2    1    2    0    0  0.00000000000E+00  0.00000000000E+00  0.29201269512E+03  0.53517227449E+03  0.44848405688E+03 0.  0.
      99925    2    3    3    0    0 -0.89899308954E+02  0.51727727231E+02  0.15399534064E+03  0.32197297395E+03  0.26304826078E+03 0.  0.
         25    1    3    3    0    0  0.89899308954E+02 -0.51727727231E+02  0.13801735448E+03  0.21319930054E+03  0.12509000000E+03 0.  0.
         25    1    4    4    0    0 -0.44419927821E+02  0.21472579584E+02  0.12247577378E+03  0.18188464730E+03  0.12509000000E+03 0.  0.
         25    1    4    4    0    0 -0.45479381133E+02  0.30255147647E+02  0.31519566860E+02  0.14008832665E+03  0.12509000000E+03 0.  0.
<mgrwt>
<rscale>  2 0.44848406E+03</rscale>
<asrwt>0</asrwt>
<pdfrwt beam="1">  1       21 0.60822424E-01 0.44848406E+03</pdfrwt>
<pdfrwt beam="2">  1       21 0.17879381E-01 0.44848406E+03</pdfrwt>
<totfact> 0.66206010E+04</totfact>
</mgrwt>
</event>
<event>
 7    0  0.4709932E-002  0.4546192E+03  0.7546771E-02  0.1026353E+00
         21   -1    0    0  502  501  0.00000000000E+00  0.00000000000E+00  0.77815839510E+02  0.77815839510E+02  0.00000000000E+00 0. -1.
         21   -1    0    0  501  502 -0.00000000000E+00 -0.00000000000E+00 -0.66399918723E+03  0.66399918723E+03  0.00000000000E+00 0. -1.
      99926    2    1    2    0    0  0.00000000000E+00 -0.71054273576E-14 -0.58618334772E+03  0.74181502674E+03  0.45461919972E+03 0.  0.
      99925    2    3    3    0    0  0.90850186243E+02  0.61684116640E+02 -0.41133154386E+03  0.50040386710E+03  0.26296711704E+03 0.  0.
         25    1    4    4    0    0  0.39529416314E+02 -0.61734701536E+01 -0.15932762558E+03  0.20647878066E+03  0.12509000000E+03 0.  0.
         25    1    4    4    0    0  0.51320769929E+02  0.67857586794E+02 -0.25200391828E+03  0.29392508644E+03  0.12509000000E+03 0.  0.
         25    1    3    3    0    0 -0.90850186243E+02 -0.61684116640E+02 -0.17485180386E+03  0.24141115964E+03  0.12509000000E+03 0.  0.
<mgrwt>
<rscale>  2 0.45461920E+03</rscale>
<asrwt>0</asrwt>
<pdfrwt beam="1">  1       21 0.11443506E-01 0.45461920E+03</pdfrwt>
<pdfrwt beam="2">  1       21 0.97646939E-01 0.45461920E+03</pdfrwt>
<totfact> 0.50842801E+04</totfact>
</mgrwt>
</event>
<event>
 7    0  0.4709932E-002  0.4539637E+03  0.7546771E-02  0.1026547E+00
         21   -1    0    0  502  501  0.00000000000E+00  0.00000000000E+00  0.87176912631E+02  0.87176912631E+02  0.00000000000E+00 0. -1.
         21   -1    0    0  501  502 -0.00000000000E+00 -0.00000000000E+00 -0.59099093468E+03  0.59099093468E+03  0.00000000000E+00 0. -1.
      99926    2    1    2    0    0  0.00000000000E+00  0.00000000000E+00 -0.50381402205E+03  0.67816784731E+03  0.45396372136E+03 0.  0.
      99925    2    3    3    0    0  0.10309094633E+03  0.40915230742E+02 -0.34092062661E+03  0.44475069777E+03  0.26320051329E+03 0.  0.
         25    1    4    4    0    0  0.86983314493E+02 -0.10581890754E+01 -0.17141805014E+03  0.22934444135E+03  0.12509000000E+03 0.  0.
         25    1    3    3    0    0 -0.10309094633E+03 -0.40915230742E+02 -0.16289339545E+03  0.23341714955E+03  0.12509000000E+03 0.  0.
         25    1    4    4    0    0  0.16107631842E+02  0.41973419817E+02 -0.16950257646E+03  0.21540625641E+03  0.12509000000E+03 0.  0.
<mgrwt>
<rscale>  2 0.45396372E+03</rscale>
<asrwt>0</asrwt>
<pdfrwt beam="1">  1       21 0.12820134E-01 0.45396372E+03</pdfrwt>
<pdfrwt beam="2">  1       21 0.86910432E-01 0.45396372E+03</pdfrwt>
<totfact> 0.54548688E+04</totfact>
</mgrwt>
</event>
<event>
 7    0  0.4709932E-002  0.4540592E+03  0.7546771E-02  0.1026518E+00
         21   -1    0    0  502  501  0.00000000000E+00  0.00000000000E+00  0.14056414748E+04  0.14056414748E+04  0.00000000000E+00 0. -1.
         21   -1    0    0  501  502 -0.00000000000E+00 -0.00000000000E+00 -0.36668274858E+02  0.36668274858E+02  0.00000000000E+00 0. -1.
      99926    2    1    2    0    0  0.00000000000E+00  0.00000000000E+00  0.13689732000E+04  0.14423097497E+04  0.45405923821E+03 0.  0.
      99925    2    3    3    0    0  0.18571574729E+02 -0.11059894276E+03  0.84779050297E+03  0.89471871499E+03  0.26305096940E+03 0.  0.
         25    1    4    4    0    0 -0.23226707899E+02 -0.46941379094E+02  0.48163444579E+03  0.50036208939E+03  0.12509000000E+03 0.  0.
         25    1    3    3    0    0 -0.18571574729E+02  0.11059894276E+03  0.52118269700E+03  0.54759103469E+03  0.12509000000E+03 0.  0.
         25    1    4    4    0    0  0.41798282628E+02 -0.63657563666E+02  0.36615605718E+03  0.39435662560E+03  0.12509000000E+03 0.  0.
<mgrwt>
<rscale>  2 0.45405924E+03</rscale>
<asrwt>0</asrwt>
<pdfrwt beam="1">  1       21 0.20671195E+00 0.45405924E+03</pdfrwt>
<pdfrwt beam="2">  1       21 0.53923943E-02 0.45405924E+03</pdfrwt>
<totfact> 0.25411265E+04</totfact>
</mgrwt>
</event>
<event>
 7    0  0.4709932E-002  0.4582872E+03  0.7546771E-02  0.1025279E+00
         21   -1    0    0  502  501  0.00000000000E+00  0.00000000000E+00  0.11214358164E+03  0.11214358164E+03  0.00000000000E+00 0. -1.
         21   -1    0    0  501  502 -0.00000000000E+00 -0.00000000000E+00 -0.46821034523E+03  0.46821034523E+03  0.00000000000E+00 0. -1.
      99926    2    1    2    0    0  0.00000000000E+00  0.00000000000E+00 -0.35606676359E+03  0.58035392687E+03  0.45828718104E+03 0.  0.
      99925    2    3    3    0    0  0.11383349028E+03  0.22130172006E+02 -0.22892938256E+03  0.36761175950E+03  0.26321461870E+03 0.  0.
         25    1    4    4    0    0  0.24224352273E+02  0.18183216441E+01 -0.69664854124E+02  0.14522680722E+03  0.12509000000E+03 0.  0.
         25    1    3    3    0    0 -0.11383349028E+03 -0.22130172006E+02 -0.12713738103E+03  0.21274216737E+03  0.12509000000E+03 0.  0.
         25    1    4    4    0    0  0.89609138011E+02  0.20311850362E+02 -0.15926452844E+03  0.22238495227E+03  0.12509000000E+03 0.  0.
<mgrwt>
<rscale>  2 0.45828718E+03</rscale>
<asrwt>0</asrwt>
<pdfrwt beam="1">  1       21 0.16491703E-01 0.45828718E+03</pdfrwt>
<pdfrwt beam="2">  1       21 0.68854462E-01 0.45828718E+03</pdfrwt>
<totfact> 0.58372321E+04</totfact>
</mgrwt>
</event>
<event>
 7    0  0.4709932E-002  0.4564366E+03  0.7546771E-02  0.1025820E+00
         21   -1    0    0  502  501  0.00000000000E+00  0.00000000000E+00  0.22463144000E+03  0.22463144000E+03  0.00000000000E+00 0. -1.
         21   -1    0    0  501  502 -0.00000000000E+00 -0.00000000000E+00 -0.23186247823E+03  0.23186247823E+03  0.00000000000E+00 0. -1.
      99926    2    1    2    0    0  0.00000000000E+00  0.00000000000E+00 -0.72310382341E+01  0.45649391822E+03  0.45643664343E+03 0.  0.
      99925    2    3    3    0    0  0.26095078728E+02 -0.37043192835E+02  0.10057481805E+03  0.28525501488E+03  0.26306268877E+03 0.  0.
         25    1    4    4    0    0  0.47756629595E+02 -0.40394724799E+02  0.56278858681E+02  0.15075558861E+03  0.12509000000E+03 0.  0.
         25    1    4    4    0    0 -0.21661550867E+02  0.33515319645E+01  0.44295959365E+02  0.13449942628E+03  0.12509000000E+03 0.  0.
         25    1    3    3    0    0 -0.26095078728E+02  0.37043192835E+02 -0.10780585628E+03  0.17123890334E+03  0.12509000000E+03 0.  0.
<mgrwt>
<rscale>  2 0.45643664E+03</rscale>
<asrwt>0</asrwt>
<pdfrwt beam="1">  1       21 0.33034035E-01 0.45643664E+03</pdfrwt>
<pdfrwt beam="2">  1       21 0.34097423E-01 0.45643664E+03</pdfrwt>
<totfact> 0.67657603E+04</totfact>
</mgrwt>
</event>
<event>
 7    0  0.4709932E-002  0.4559260E+03  0.7546771E-02  0.1025969E+00
         21   -1    0    0  502  501  0.00000000000E+00  0.00000000000E+00  0.16263789172E+03  0.16263789172E+03  0.00000000000E+00 0. -1.
         21   -1    0    0  501  502 -0.00000000000E+00 -0.00000000000E+00 -0.31952654637E+03  0.31952654637E+03  0.00000000000E+00 0. -1.
      99926    2    1    2    0    0  0.00000000000E+00  0.35527136788E-14 -0.15688865465E+03  0.48216443809E+03  0.45592597579E+03 0.  0.
      99925    2    3    3    0    0 -0.10523722348E+03 -0.22352554177E+02 -0.13865901289E+03  0.31616944473E+03  0.26298723551E+03 0.  0.
         25    1    3    3    0    0  0.10523722348E+03  0.22352554177E+02 -0.18229641765E+02  0.16599499337E+03  0.12509000000E+03 0.  0.
         25    1    4    4    0    0 -0.18194675329E+02 -0.29825872436E+01 -0.89366504884E+02  0.15483482274E+03  0.12509000000E+03 0.  0.
         25    1    4    4    0    0 -0.87042548150E+02 -0.19369966934E+02 -0.49292508006E+02  0.16133462199E+03  0.12509000000E+03 0.  0.
<mgrwt>
<rscale>  2 0.45592598E+03</rscale>
<asrwt>0</asrwt>
<pdfrwt beam="1">  1       21 0.23917337E-01 0.45592598E+03</pdfrwt>
<pdfrwt beam="2">  1       21 0.46989198E-01 0.45592598E+03</pdfrwt>
<totfact> 0.66056017E+04</totfact>
</mgrwt>
</event>
<event>
 7    0  0.4709932E-002  0.4540951E+03  0.7546771E-02  0.1026508E+00
         21   -1    0    0  502  501  0.00000000000E+00  0.00000000000E+00  0.74299406440E+02  0.74299406440E+02  0.00000000000E+00 0. -1.
         21   -1    0    0  501  502 -0.00000000000E+00 -0.00000000000E+00 -0.69382244743E+03  0.69382244743E+03  0.00000000000E+00 0. -1.
      99926    2    1    2    0    0  0.17763568394E-14  0.14210854715E-13 -0.61952304099E+03  0.76812185387E+03  0.45409512668E+03 0.  0.
      99925    2    3    3    0    0  0.13172422795E+02  0.10099867372E+03 -0.46833140304E+03  0.54703213385E+03  0.26369605149E+03 0.  0.
         25    1    4    4    0    0  0.37455119023E+02  0.30947991555E+02 -0.18475379718E+03  0.22834653007E+03  0.12509000000E+03 0.  0.
         25    1    3    3    0    0 -0.13172422795E+02 -0.10099867372E+03 -0.15119163795E+03  0.22108972002E+03  0.12509000000E+03 0.  0.
         25    1    4    4    0    0 -0.24282696228E+02  0.70050682163E+02 -0.28357760587E+03  0.31868560378E+03  0.12509000000E+03 0.  0.
<mgrwt>
<rscale>  2 0.45409513E+03</rscale>
<asrwt>0</asrwt>
<pdfrwt beam="1">  1       21 0.10926384E-01 0.45409513E+03</pdfrwt>
<pdfrwt beam="2">  1       21 0.10203271E+00 0.45409513E+03</pdfrwt>
<totfact> 0.49697359E+04</totfact>
</mgrwt>
</event>
<event>
 7    0  0.4709932E-002  0.4574345E+03  0.7546771E-02  0.1025528E+00
         21   -1    0    0  502  501  0.00000000000E+00  0.00000000000E+00  0.99294635723E+02  0.99294635723E+02  0.00000000000E+00 0.  1.
         21   -1    0    0  501  502 -0.00000000000E+00 -0.00000000000E+00 -0.52683198804E+03  0.52683198804E+03  0.00000000000E+00 0.  1.
      99926    2    1    2    0    0  0.00000000000E+00 -0.35527136788E-14 -0.42753735232E+03  0.62612662376E+03  0.45743454325E+03 0.  0.
      99925    2    3    3    0    0 -0.11083250919E+03 -0.31424564948E+02 -0.25740609048E+03  0.38557828615E+03  0.26294746805E+03 0.  0.
         25    1    4    4    0    0 -0.22255257469E+02 -0.39100762713E+02 -0.13268377362E+03  0.18782081357E+03  0.12509000000E+03 0.  0.
         25    1    4    4    0    0 -0.88577251724E+02  0.76761977650E+01 -0.12472231687E+03  0.19775747258E+03  0.12509000000E+03 0.  0.
         25    1    3    3    0    0  0.11083250919E+03  0.31424564948E+02 -0.17013126183E+03  0.24054833762E+03  0.12509000000E+03 0.  0.
<mgrwt>
<rscale>  2 0.45743454E+03</rscale>
<asrwt>0</asrwt>
<pdfrwt beam="1">  1       21 0.14602152E-01 0.45743454E+03</pdfrwt>
<pdfrwt beam="2">  1       21 0.77475293E-01 0.45743454E+03</pdfrwt>
<totfact> 0.56013811E+04</totfact>
</mgrwt>
</event>
<event>
 7    0  0.4709932E-002  0.4563675E+03  0.7546771E-02  0.1025840E+00
         21   -1    0    0  502  501  0.00000000000E+00  0.00000000000E+00  0.54316739577E+03  0.54316739577E+03  0.00000000000E+00 0.  1.
         21   -1    0    0  501  502 -0.00000000000E+00 -0.00000000000E+00 -0.95859645151E+02  0.95859645151E+02  0.00000000000E+00 0.  1.
      99926    2    1    2    0    0  0.00000000000E+00  0.00000000000E+00  0.44730775062E+03  0.63902704093E+03  0.45636754405E+03 0.  0.
      99925    2    3    3    0    0  0.46307882195E+02 -0.46771568902E+02  0.15012957692E+03  0.30994593445E+03  0.26305055181E+03 0.  0.
         25    1    4    4    0    0 -0.10842555762E+02 -0.35772431330E+02  0.94589851711E+02  0.16122027170E+03  0.12509000000E+03 0.  0.
         25    1    4    4    0    0  0.57150437957E+02 -0.10999137572E+02  0.55539725205E+02  0.14872566275E+03  0.12509000000E+03 0.  0.
         25    1    3    3    0    0 -0.46307882195E+02  0.46771568902E+02  0.29717817371E+03  0.32908110648E+03  0.12509000000E+03 0.  0.
<mgrwt>
<rscale>  2 0.45636754E+03</rscale>
<asrwt>0</asrwt>
<pdfrwt beam="1">  1       21 0.79877557E-01 0.45636754E+03</pdfrwt>
<pdfrwt beam="2">  1       21 0.14097007E-01 0.45636754E+03</pdfrwt>
<totfact> 0.55734159E+04</totfact>
</mgrwt>
</event>
<event>
 7    0  0.4709932E-002  0.4600985E+03  0.7546771E-02  0.1024753E+00
         21   -1    0    0  502  501  0.00000000000E+00  0.00000000000E+00  0.63105441864E+02  0.63105441864E+02  0.00000000000E+00 0.  1.
         21   -1    0    0  501  502 -0.00000000000E+00 -0.00000000000E+00 -0.83863863558E+03  0.83863863558E+03  0.00000000000E+00 0.  1.
      99926    2    1    2    0    0  0.14210854715E-13  0.88817841970E-15 -0.77553319371E+03  0.90174407744E+03  0.46009851842E+03 0.  0.
      99925    2    3    3    0    0  0.11379402593E+03  0.52265711660E+01 -0.42859995334E+03  0.51575628131E+03  0.26330633173E+03 0.  0.
         25    1    3    3    0    0 -0.11379402593E+03 -0.52265711660E+01 -0.34693324038E+03  0.38598779613E+03  0.12509000000E+03 0.  0.
         25    1    4    4    0    0  0.67294804158E+02 -0.27826370785E+01 -0.14921784792E+03  0.20603351177E+03  0.12509000000E+03 0.  0.
         25    1    4    4    0    0  0.46499221773E+02  0.80092082446E+01 -0.27938210542E+03  0.30972276954E+03  0.12509000000E+03 0.  0.
<mgrwt>
<rscale>  2 0.46009852E+03</rscale>
<asrwt>0</asrwt>
<pdfrwt beam="1">  1       21 0.92802113E-02 0.46009852E+03</pdfrwt>
<pdfrwt beam="2">  1       21 0.12332922E+00 0.46009852E+03</pdfrwt>
<totfact> 0.41477704E+04</totfact>
</mgrwt>
</event>
<event>
 7    0  0.4709932E-002  0.4579411E+03  0.7546771E-02  0.1025380E+00
         21   -1    0    0  502  501  0.00000000000E+00  0.00000000000E+00  0.15942385153E+03  0.15942385153E+03  0.00000000000E+00 0. -1.
         21   -1    0    0  501  502 -0.00000000000E+00 -0.00000000000E+00 -0.32885610650E+03  0.32885610650E+03  0.00000000000E+00 0. -1.
      99926    2    1    2    0    0  0.00000000000E+00 -0.35527136788E-14 -0.16943225497E+03  0.48827995803E+03  0.45794107524E+03 0.  0.
      99925    2    3    3    0    0 -0.63125473076E+02  0.16225396613E+02 -0.20853737664E+03  0.34190780396E+03  0.26299243356E+03 0.  0.
         25    1    3    3    0    0  0.63125473076E+02 -0.16225396613E+02  0.39105121666E+02  0.14637215407E+03  0.12509000000E+03 0.  0.
         25    1    4    4    0    0 -0.25819556393E+02 -0.31380687205E+02 -0.91264656826E+02  0.16008792180E+03  0.12509000000E+03 0.  0.
         25    1    4    4    0    0 -0.37305916683E+02  0.47606083818E+02 -0.11727271981E+03  0.18181988216E+03  0.12509000000E+03 0.  0.
<mgrwt>
<rscale>  2 0.45794108E+03</rscale>
<asrwt>0</asrwt>
<pdfrwt beam="1">  1       21 0.23444685E-01 0.45794108E+03</pdfrwt>
<pdfrwt beam="2">  1       21 0.48361191E-01 0.45794108E+03</pdfrwt>
<totfact> 0.64581097E+04</totfact>
</mgrwt>
</event>
<event>
 7    0  0.4709932E-002  0.4561937E+03  0.7546771E-02  0.1025891E+00
         21   -1    0    0  502  501  0.00000000000E+00  0.00000000000E+00  0.25472574679E+03  0.25472574679E+03  0.00000000000E+00 0. -1.
         21   -1    0    0  501  502 -0.00000000000E+00 -0.00000000000E+00 -0.20425171589E+03  0.20425171589E+03  0.00000000000E+00 0. -1.
      99926    2    1    2    0    0  0.44408920985E-15  0.14210854715E-13  0.50474030904E+02  0.45897746268E+03  0.45619369072E+03 0.  0.
      99925    2    3    3    0    0  0.33155785805E+01 -0.10803382801E+03  0.68954472999E+02  0.29263042816E+03  0.26305046489E+03 0.  0.
         25    1    3    3    0    0 -0.33155785805E+01  0.10803382801E+03 -0.18480442095E+02  0.16634703453E+03  0.12509000000E+03 0.  0.
         25    1    4    4    0    0  0.73370296848E+01 -0.11703937199E+02  0.40081517773E+02  0.13207895486E+03  0.12509000000E+03 0.  0.
         25    1    4    4    0    0 -0.40214511042E+01 -0.96329890814E+02  0.28872955226E+02  0.16055147329E+03  0.12509000000E+03 0.  0.
<mgrwt>
<rscale>  2 0.45619369E+03</rscale>
<asrwt>0</asrwt>
<pdfrwt beam="1">  1       21 0.37459669E-01 0.45619369E+03</pdfrwt>
<pdfrwt beam="2">  1       21 0.30037017E-01 0.45619369E+03</pdfrwt>
<totfact> 0.67609131E+04</totfact>
</mgrwt>
</event>
<event>
 7    0  0.4709932E-002  0.4594913E+03  0.7546771E-02  0.1024929E+00
         21   -1    0    0  502  501  0.00000000000E+00  0.00000000000E+00  0.25690985910E+03  0.25690985910E+03  0.00000000000E+00 0. -1.
         21   -1    0    0  501  502 -0.00000000000E+00 -0.00000000000E+00 -0.20545365625E+03  0.20545365625E+03  0.00000000000E+00 0. -1.
      99926    2    1    2    0    0  0.14210854715E-13  0.00000000000E+00  0.51456202852E+02  0.46236351535E+03  0.45949132692E+03 0.  0.
      99925    2    3    3    0    0  0.99921362017E+02  0.44820605677E+02 -0.98263458437E+01  0.28517371837E+03  0.26312416707E+03 0.  0.
         25    1    4    4    0    0  0.28647874946E+02  0.23184949425E+02  0.30861567021E+02  0.13400816034E+03  0.12509000000E+03 0.  0.
         25    1    3    3    0    0 -0.99921362017E+02 -0.44820605677E+02  0.61282548696E+02  0.17718979698E+03  0.12509000000E+03 0.  0.
         25    1    4    4    0    0  0.71273487071E+02  0.21635656252E+02 -0.40687912865E+02  0.15116555803E+03  0.12509000000E+03 0.  0.
<mgrwt>
<rscale>  2 0.45949133E+03</rscale>
<asrwt>0</asrwt>
<pdfrwt beam="1">  1       21 0.37780862E-01 0.45949133E+03</pdfrwt>
<pdfrwt beam="2">  1       21 0.30213773E-01 0.45949133E+03</pdfrwt>
<totfact> 0.65626251E+04</totfact>
</mgrwt>
</event>
<event>
 6    0  0.4709932E-002  0.4480684E+03  0.7546771E-02  0.1028300E+00
         21   -1    0    0  502  501  0.00000000000E+00  0.00000000000E+00  0.79520245885E+03  0.79520245885E+03  0.00000000000E+00 0.  1.
         21   -1    0    0  501  502 -0.00000000000E+00 -0.00000000000E+00 -0.63117658009E+02  0.63117658009E+02  0.00000000000E+00 0.  1.
      99926    2    1    2    0    0  0.00000000000E+00  0.00000000000E+00  0.73208480084E+03  0.85832011686E+03  0.44806837356E+03 0.  0.
         25    1    3    3    0    0  0.39387132981E+02 -0.25088966046E+02  0.45818333172E+03  0.47724236612E+03  0.12509000000E+03 0.  0.
         25    1    3    3    0    0 -0.22042172739E+00  0.43698469569E+02  0.13318089920E+03  0.18786767908E+03  0.12509000000E+03 0.  0.
         25    1    3    3    0    0 -0.39166711254E+02 -0.18609503522E+02  0.14072056992E+03  0.19321007166E+03  0.12509000000E+03 0.  0.
<mgrwt>
<rscale>  2 0.44806837E+03</rscale>
<asrwt>0</asrwt>
<pdfrwt beam="1">  1       21 0.11694153E+00 0.44806837E+03</pdfrwt>
<pdfrwt beam="2">  1       21 0.92820090E-02 0.44806837E+03</pdfrwt>
<totfact> 0.47605368E+04</totfact>
</mgrwt>
</event>
<event>
 7    0  0.4709932E-002  0.4532136E+03  0.7546771E-02  0.1026768E+00
         21   -1    0    0  502  501  0.00000000000E+00  0.00000000000E+00  0.68433946584E+03  0.68433946584E+03  0.00000000000E+00 0. -1.
         21   -1    0    0  501  502 -0.00000000000E+00 -0.00000000000E+00 -0.75036788395E+02  0.75036788395E+02  0.00000000000E+00 0. -1.
      99926    2    1    2    0    0 -0.35527136788E-14  0.00000000000E+00  0.60930267745E+03  0.75937625424E+03  0.45321357300E+03 0.  0.
      99925    2    3    3    0    0  0.16732746562E+02  0.10729115392E+02  0.56800693330E+03  0.62615483963E+03  0.26276017239E+03 0.  0.
         25    1    3    3    0    0 -0.16732746562E+02 -0.10729115392E+02  0.41295744149E+02  0.13322141461E+03  0.12509000000E+03 0.  0.
         25    1    4    4    0    0  0.45426661308E+02  0.34896576233E+01  0.25199060038E+03  0.28499566672E+03  0.12509000000E+03 0.  0.
         25    1    4    4    0    0 -0.28693914746E+02  0.72394577683E+01  0.31601633292E+03  0.34115917291E+03  0.12509000000E+03 0.  0.
<mgrwt>
<rscale>  2 0.45321357E+03</rscale>
<asrwt>0</asrwt>
<pdfrwt beam="1">  1       21 0.10063815E+00 0.45321357E+03</pdfrwt>
<pdfrwt beam="2">  1       21 0.11034822E-01 0.45321357E+03</pdfrwt>
<totfact> 0.50496549E+04</totfact>
</mgrwt>
</event>
<event>
 7    0  0.4709932E-002  0.4529225E+03  0.7546771E-02  0.1026854E+00
         21   -1    0    0  502  501  0.00000000000E+00  0.00000000000E+00  0.91297472894E+03  0.91297472894E+03  0.00000000000E+00 0.  1.
         21   -1    0    0  501  502 -0.00000000000E+00 -0.00000000000E+00 -0.56173181500E+02  0.56173181500E+02  0.00000000000E+00 0.  1.
      99926    2    1    2    0    0  0.00000000000E+00  0.00000000000E+00  0.85680154744E+03  0.96914791044E+03  0.45292248853E+03 0.  0.
      99925    2    3    3    0    0  0.31946034571E+02 -0.50209160032E+02  0.74106602863E+03  0.78863827832E+03  0.26311588009E+03 0.  0.
         25    1    4    4    0    0  0.52897962443E+02 -0.31487152350E+02  0.43531099750E+03  0.45709168428E+03  0.12509000000E+03 0.  0.
         25    1    4    4    0    0 -0.20951927872E+02 -0.18722007682E+02  0.30575503114E+03  0.33154659404E+03  0.12509000000E+03 0.  0.
         25    1    3    3    0    0 -0.31946034571E+02  0.50209160032E+02  0.11573551880E+03  0.18050963212E+03  0.12509000000E+03 0.  0.
<mgrwt>
<rscale>  2 0.45292249E+03</rscale>
<asrwt>0</asrwt>
<pdfrwt beam="1">  1       21 0.13426098E+00 0.45292249E+03</pdfrwt>
<pdfrwt beam="2">  1       21 0.82607626E-02 0.45292249E+03</pdfrwt>
<totfact> 0.41037532E+04</totfact>
</mgrwt>
</event>
<event>
 7    0  0.4709932E-002  0.4449177E+03  0.7546771E-02  0.1029249E+00
         21   -1    0    0  502  501  0.00000000000E+00  0.00000000000E+00  0.56720137038E+03  0.56720137038E+03  0.00000000000E+00 0. -1.
         21   -1    0    0  501  502 -0.00000000000E+00 -0.00000000000E+00 -0.87249337022E+02  0.87249337022E+02  0.00000000000E+00 0. -1.
      99926    2    1    2    0    0 -0.14210854715E-13  0.00000000000E+00  0.47995203336E+03  0.65445070740E+03  0.44491771609E+03 0.  0.
      99925    2    3    3    0    0 -0.98962810390E+02  0.18538261599E+00  0.34847401614E+03  0.44774403282E+03  0.26314807008E+03 0.  0.
         25    1    4    4    0    0 -0.93059178403E+02 -0.34102898379E+00  0.19237690224E+03  0.24762170261E+03  0.12509000000E+03 0.  0.
         25    1    4    4    0    0 -0.59036319875E+01  0.52641159978E+00  0.15609711390E+03  0.20012233021E+03  0.12509000000E+03 0.  0.
         25    1    3    3    0    0  0.98962810390E+02 -0.18538261599E+00  0.13147801721E+03  0.20670667458E+03  0.12509000000E+03 0.  0.
<mgrwt>
<rscale>  2 0.44491772E+03</rscale>
<asrwt>0</asrwt>
<pdfrwt beam="1">  1       21 0.83411964E-01 0.44491772E+03</pdfrwt>
<pdfrwt beam="2">  1       21 0.12830785E-01 0.44491772E+03</pdfrwt>
<totfact> 0.60082187E+04</totfact>
</mgrwt>
</event>
<event>
 7    0  0.4709932E-002  0.4462017E+03  0.7546771E-02  0.1028861E+00
         21   -1    0    0  502  501  0.00000000000E+00  0.00000000000E+00  0.57297606375E+03  0.57297606375E+03  0.00000000000E+00 0.  1.
         21   -1    0    0  501  502 -0.00000000000E+00 -0.00000000000E+00 -0.86869227243E+02  0.86869227243E+02  0.00000000000E+00 0.  1.
      99926    2    1    2    0    0 -0.35527136788E-14  0.71054273576E-14  0.48610683651E+03  0.65984529099E+03  0.44620169380E+03 0.  0.
      99925    2    3    3    0    0  0.30728903116E+02 -0.61099956338E+02  0.19487067752E+03  0.33558693944E+03  0.26451189541E+03 0.  0.
         25    1    4    4    0    0  0.31606878586E+02 -0.70101836108E+02  0.91050258444E+02  0.17277418749E+03  0.12509000000E+03 0.  0.
         25    1    3    3    0    0 -0.30728903116E+02  0.61099956338E+02  0.29123615899E+03  0.32425835156E+03  0.12509000000E+03 0.  0.
         25    1    4    4    0    0 -0.87797547022E+00  0.90018797698E+01  0.10382041907E+03  0.16281275195E+03  0.12509000000E+03 0.  0.
<mgrwt>
<rscale>  2 0.44620169E+03</rscale>
<asrwt>0</asrwt>
<pdfrwt beam="1">  1       21 0.84261184E-01 0.44620169E+03</pdfrwt>
<pdfrwt beam="2">  1       21 0.12774887E-01 0.44620169E+03</pdfrwt>
<totfact> 0.59133514E+04</totfact>
</mgrwt>
</event>
<event>
 7    0  0.4709932E-002  0.4574388E+03  0.7546771E-02  0.1025527E+00
         21   -1    0    0  502  501  0.00000000000E+00  0.00000000000E+00  0.36201880894E+03  0.36201880894E+03  0.00000000000E+00 0. -1.
         21   -1    0    0  501  502 -0.00000000000E+00 -0.00000000000E+00 -0.14450234593E+03  0.14450234593E+03  0.00000000000E+00 0. -1.
      99926    2    1    2    0    0 -0.35527136788E-14  0.00000000000E+00  0.21751646301E+03  0.50652115487E+03  0.45743881410E+03 0.  0.
      99925    2    3    3    0    0 -0.25943989805E+02  0.75535815765E+02  0.22888845177E+03  0.35767364801E+03  0.26298624499E+03 0.  0.
         25    1    4    4    0    0  0.22047799418E+02  0.44676255948E+02  0.88213207306E+02  0.16096941122E+03  0.12509000000E+03 0.  0.
         25    1    4    4    0    0 -0.47991789224E+02  0.30859559817E+02  0.14067524447E+03  0.19670423679E+03  0.12509000000E+03 0.  0.
         25    1    3    3    0    0  0.25943989805E+02 -0.75535815765E+02 -0.11371988760E+02  0.14884750686E+03  0.12509000000E+03 0.  0.
<mgrwt>
<rscale>  2 0.45743881E+03</rscale>
<asrwt>0</asrwt>
<pdfrwt beam="1">  1       21 0.53238060E-01 0.45743881E+03</pdfrwt>
<pdfrwt beam="2">  1       21 0.21250345E-01 0.45743881E+03</pdfrwt>
<totfact> 0.63575315E+04</totfact>
</mgrwt>
</event>
<event>
 7    0  0.4709932E-002  0.4545291E+03  0.7546771E-02  0.1026380E+00
         21   -1    0    0  502  501  0.00000000000E+00  0.00000000000E+00  0.24816993341E+03  0.24816993341E+03  0.00000000000E+00 0. -1.
         21   -1    0    0  501  502 -0.00000000000E+00 -0.00000000000E+00 -0.20812023663E+03  0.20812023663E+03  0.00000000000E+00 0. -1.
      99926    2    1    2    0    0  0.00000000000E+00  0.00000000000E+00  0.40049696781E+02  0.45629017004E+03  0.45452914215E+03 0.  0.
      99925    2    3    3    0    0 -0.65149233317E+02 -0.91969142532E+02  0.27752509350E+02  0.28746637226E+03  0.26299043257E+03 0.  0.
         25    1    4    4    0    0 -0.66413031246E+02 -0.28130559100E+02  0.27678409349E+02  0.14702252045E+03  0.12509000000E+03 0.  0.
         25    1    3    3    0    0  0.65149233317E+02  0.91969142532E+02  0.12297187431E+02  0.16882379778E+03  0.12509000000E+03 0.  0.
         25    1    4    4    0    0  0.12637979292E+01 -0.63838583432E+02  0.74100000857E-01  0.14044385181E+03  0.12509000000E+03 0.  0.
<mgrwt>
<rscale>  2 0.45452914E+03</rscale>
<asrwt>0</asrwt>
<pdfrwt beam="1">  1       21 0.36495578E-01 0.45452914E+03</pdfrwt>
<pdfrwt beam="2">  1       21 0.30605917E-01 0.45452914E+03</pdfrwt>
<totfact> 0.68709165E+04</totfact>
</mgrwt>
</event>
<event>
 7    0  0.4709932E-002  0.4536227E+03  0.7546771E-02  0.1026647E+00
         21   -1    0    0  502  501  0.00000000000E+00  0.00000000000E+00  0.10757409339E+03  0.10757409339E+03  0.00000000000E+00 0.  1.
         21   -1    0    0  501  502 -0.00000000000E+00 -0.00000000000E+00 -0.47821362344E+03  0.47821362344E+03  0.00000000000E+00 0.  1.
      99926    2    1    2    0    0  0.00000000000E+00  0.14210854715E-13 -0.37063953005E+03  0.58578771683E+03  0.45362273748E+03 0.  0.
      99925    2    3    3    0    0 -0.43050429465E+02 -0.10100182119E+03 -0.20604113139E+03  0.35170472236E+03  0.26303717712E+03 0.  0.
         25    1    3    3    0    0  0.43050429465E+02  0.10100182119E+03 -0.16459839866E+03  0.23408299447E+03  0.12509000000E+03 0.  0.
         25    1    4    4    0    0 -0.12389362443E+02 -0.92184158124E+02 -0.11618712229E+03  0.19441803105E+03  0.12509000000E+03 0.  0.
         25    1    4    4    0    0 -0.30661067022E+02 -0.88176630620E+01 -0.89854009091E+02  0.15728669131E+03  0.12509000000E+03 0.  0.
<mgrwt>
<rscale>  2 0.45362274E+03</rscale>
<asrwt>0</asrwt>
<pdfrwt beam="1">  1       21 0.15819720E-01 0.45362274E+03</pdfrwt>
<pdfrwt beam="2">  1       21 0.70325532E-01 0.45362274E+03</pdfrwt>
<totfact> 0.60214559E+04</totfact>
</mgrwt>
</event>
<event>
 7    0  0.4709932E-002  0.4313967E+03  0.7546771E-02  0.1033420E+00
         21   -1    0    0  502  501  0.00000000000E+00  0.00000000000E+00  0.17664707750E+03  0.17664707750E+03  0.00000000000E+00 0.  1.
         21   -1    0    0  501  502 -0.00000000000E+00 -0.00000000000E+00 -0.26338261311E+03  0.26338261311E+03  0.00000000000E+00 0.  1.
      99926    2    1    2    0    0 -0.71054273576E-14  0.14210854715E-13 -0.86735535611E+02  0.44002969060E+03  0.43139665677E+03 0.  0.
      99925    2    3    3    0    0  0.35896615807E+02 -0.79286611909E+02 -0.71041843457E+02  0.28683460606E+03  0.26391705867E+03 0.  0.
         25    1    4    4    0    0 -0.18020678169E+02 -0.61179421226E+02 -0.32604592468E+02  0.14414657115E+03  0.12509000000E+03 0.  0.
         25    1    4    4    0    0  0.53917293976E+02 -0.18107190683E+02 -0.38437250988E+02  0.14268803491E+03  0.12509000000E+03 0.  0.
         25    1    3    3    0    0 -0.35896615807E+02  0.79286611909E+02 -0.15693692155E+02  0.15319508454E+03  0.12509000000E+03 0.  0.
<mgrwt>
<rscale>  2 0.43139666E+03</rscale>
<asrwt>0</asrwt>
<pdfrwt beam="1">  1       21 0.25977512E-01 0.43139666E+03</pdfrwt>
<pdfrwt beam="2">  1       21 0.38732737E-01 0.43139666E+03</pdfrwt>
<totfact> 0.84468431E+04</totfact>
</mgrwt>
</event>
<event>
 7    0  0.4709932E-002  0.4567854E+03  0.7546771E-02  0.1025718E+00
         21   -1    0    0  502  501  0.00000000000E+00  0.00000000000E+00  0.11367870581E+03  0.11367870581E+03  0.00000000000E+00 0. -1.
         21   -1    0    0  501  502 -0.00000000000E+00 -0.00000000000E+00 -0.45886533066E+03  0.45886533066E+03  0.00000000000E+00 0. -1.
      99926    2    1    2    0    0 -0.14210854715E-13 -0.71054273576E-14 -0.34518662485E+03  0.57254403646E+03  0.45678536285E+03 0.  0.
      99925    2    3    3    0    0  0.92970292661E+02 -0.46276435370E+02 -0.15593271664E+03  0.32304547201E+03  0.26316987115E+03 0.  0.
         25    1    4    4    0    0  0.83698889298E+02 -0.39589465491E+02 -0.68716151131E+02  0.17012421160E+03  0.12509000000E+03 0.  0.
         25    1    4    4    0    0  0.92714033628E+01 -0.66869698796E+01 -0.87216565504E+02  0.15292126041E+03  0.12509000000E+03 0.  0.
         25    1    3    3    0    0 -0.92970292661E+02  0.46276435370E+02 -0.18925390822E+03  0.24949856445E+03  0.12509000000E+03 0.  0.
<mgrwt>
<rscale>  2 0.45678536E+03</rscale>
<asrwt>0</asrwt>
<pdfrwt beam="1">  1       21 0.16717457E-01 0.45678536E+03</pdfrwt>
<pdfrwt beam="2">  1       21 0.67480196E-01 0.45678536E+03</pdfrwt>
<totfact> 0.59555665E+04</totfact>
</mgrwt>
</event>
<event>
 7    0  0.4709932E-002  0.4643954E+03  0.7546771E-02  0.1023514E+00
         21   -1    0    0  502  501  0.00000000000E+00  0.00000000000E+00  0.13341019722E+03  0.13341019722E+03  0.00000000000E+00 0. -1.
         21   -1    0    0  501  502 -0.00000000000E+00 -0.00000000000E+00 -0.40413523439E+03  0.40413523439E+03  0.00000000000E+00 0. -1.
      99926    2    1    2    0    0  0.14210854715E-13  0.17763568394E-14 -0.27072503717E+03  0.53754543160E+03  0.46439535450E+03 0.  0.
      99925    2    3    3    0    0 -0.10426948139E+03 -0.99984916127E+01 -0.97038580025E+02  0.29924606509E+03  0.26298217977E+03 0.  0.
         25    1    3    3    0    0  0.10426948139E+03  0.99984916127E+01 -0.17368645714E+03  0.23829936651E+03  0.12509000000E+03 0.  0.
         25    1    4    4    0    0 -0.60279183939E+02  0.25118814941E+02 -0.21764574424E+02  0.14277863874E+03  0.12509000000E+03 0.  0.
         25    1    4    4    0    0 -0.43990297454E+02 -0.35117306554E+02 -0.75274005601E+02  0.15646742635E+03  0.12509000000E+03 0.  0.
<mgrwt>
<rscale>  2 0.46439535E+03</rscale>
<asrwt>0</asrwt>
<pdfrwt beam="1">  1       21 0.19619146E-01 0.46439535E+03</pdfrwt>
<pdfrwt beam="2">  1       21 0.59431653E-01 0.46439535E+03</pdfrwt>
<totfact> 0.58239527E+04</totfact>
</mgrwt>
</event>
<event>
 7    0  0.4709932E-002  0.4517486E+03  0.7546771E-02  0.1027202E+00
         21   -1    0    0  502  501  0.00000000000E+00  0.00000000000E+00  0.14169148270E+03  0.14169148270E+03  0.00000000000E+00 0. -1.
         21   -1    0    0  501  502 -0.00000000000E+00 -0.00000000000E+00 -0.36007238519E+03  0.36007238519E+03  0.00000000000E+00 0. -1.
      99926    2    1    2    0    0  0.00000000000E+00  0.00000000000E+00 -0.21838090249E+03  0.50176386790E+03  0.45174855899E+03 0.  0.
      99925    2    3    3    0    0 -0.64677349768E+02  0.42408711014E+02 -0.22491905130E+03  0.35455003080E+03  0.26293627813E+03 0.  0.
         25    1    4    4    0    0 -0.34054513576E+02  0.49119285345E+02 -0.15463509386E+03  0.20768229208E+03  0.12509000000E+03 0.  0.
         25    1    3    3    0    0  0.64677349768E+02 -0.42408711014E+02  0.65381488110E+01  0.14721383710E+03  0.12509000000E+03 0.  0.
         25    1    4    4    0    0 -0.30622836192E+02 -0.67105743307E+01 -0.70283957439E+02  0.14686773872E+03  0.12509000000E+03 0.  0.
<mgrwt>
<rscale>  2 0.45174856E+03</rscale>
<asrwt>0</asrwt>
<pdfrwt beam="1">  1       21 0.20836983E-01 0.45174856E+03</pdfrwt>
<pdfrwt beam="2">  1       21 0.52951822E-01 0.45174856E+03</pdfrwt>
<totfact> 0.66855772E+04</totfact>
</mgrwt>
</event>
<event>
 7    0  0.4709932E-002  0.4599040E+03  0.7546771E-02  0.1024809E+00
         21   -1    0    0  502  501  0.00000000000E+00  0.00000000000E+00  0.50983805463E+02  0.50983805463E+02  0.00000000000E+00 0.  1.
         21   -1    0    0  501  502 -0.00000000000E+00 -0.00000000000E+00 -0.10371514221E+04  0.10371514221E+04  0.00000000000E+00 0.  1.
      99926    2    1    2    0    0  0.00000000000E+00  0.00000000000E+00 -0.98616761668E+03  0.10881352276E+04  0.45990401756E+03 0.  0.
      99925    2    3    3    0    0 -0.70728104263E+02  0.69884274490E+02 -0.76671960061E+03  0.81667396626E+03  0.26308011072E+03 0.  0.
         25    1    4    4    0    0 -0.25963763695E+02  0.56752119424E+02 -0.48802281305E+03  0.50765016915E+03  0.12509000000E+03 0.  0.
         25    1    4    4    0    0 -0.44764340568E+02  0.13132155066E+02 -0.27869678755E+03  0.30902379710E+03  0.12509000000E+03 0.  0.
         25    1    3    3    0    0  0.70728104263E+02 -0.69884274490E+02 -0.21944801608E+03  0.27146126135E+03  0.12509000000E+03 0.  0.
<mgrwt>
<rscale>  2 0.45990402E+03</rscale>
<asrwt>0</asrwt>
<pdfrwt beam="1">  1       21 0.74976189E-02 0.45990402E+03</pdfrwt>
<pdfrwt beam="2">  1       21 0.15252226E+00 0.45990402E+03</pdfrwt>
<totfact> 0.34566749E+04</totfact>
</mgrwt>
</event>
<event>
 7    0  0.4709932E-002  0.4545965E+03  0.7546771E-02  0.1026360E+00
         21   -1    0    0  502  501  0.00000000000E+00  0.00000000000E+00  0.66724751258E+02  0.66724751258E+02  0.00000000000E+00 0. -1.
         21   -1    0    0  501  502 -0.00000000000E+00 -0.00000000000E+00 -0.77429265610E+03  0.77429265610E+03  0.00000000000E+00 0. -1.
      99926    2    1    2    0    0 -0.14210854715E-13  0.00000000000E+00 -0.70756790484E+03  0.84101740735E+03  0.45459645788E+03 0.  0.
      99925    2    3    3    0    0  0.77370249357E+02  0.79508101088E+02 -0.40144214208E+03  0.49220773955E+03  0.26230701824E+03 0.  0.
         25    1    3    3    0    0 -0.77370249357E+02 -0.79508101088E+02 -0.30612576276E+03  0.34880966780E+03  0.12509000000E+03 0.  0.
         25    1    4    4    0    0  0.60360238277E+02  0.74786383364E+02 -0.24027371448E+03  0.28742882157E+03  0.12509000000E+03 0.  0.
         25    1    4    4    0    0  0.17010011080E+02  0.47217177240E+01 -0.16116842760E+03  0.20477891798E+03  0.12509000000E+03 0.  0.
<mgrwt>
<rscale>  2 0.45459646E+03</rscale>
<asrwt>0</asrwt>
<pdfrwt beam="1">  1       21 0.98124643E-02 0.45459646E+03</pdfrwt>
<pdfrwt beam="2">  1       21 0.11386656E+00 0.45459646E+03</pdfrwt>
<totfact> 0.45989340E+04</totfact>
</mgrwt>
</event>
<event>
 7    0  0.4709932E-002  0.4522497E+03  0.7546771E-02  0.1027053E+00
         21   -1    0    0  502  501  0.00000000000E+00  0.00000000000E+00  0.95347392339E+03  0.95347392339E+03  0.00000000000E+00 0. -1.
         21   -1    0    0  501  502 -0.00000000000E+00 -0.00000000000E+00 -0.53627536382E+02  0.53627536382E+02  0.00000000000E+00 0. -1.
      99926    2    1    2    0    0  0.00000000000E+00  0.00000000000E+00  0.89984638701E+03  0.10071014598E+04  0.45224974302E+03 0.  0.
      99925    2    3    3    0    0 -0.80030568598E+02  0.43357799729E+02  0.42778238166E+03  0.51033519285E+03  0.26298184784E+03 0.  0.
         25    1    4    4    0    0 -0.24169419808E+02  0.18737359412E+02  0.27498766935E+03  0.30364613597E+03  0.12509000000E+03 0.  0.
         25    1    3    3    0    0  0.80030568598E+02 -0.43357799729E+02  0.47206400535E+03  0.49676626692E+03  0.12509000000E+03 0.  0.
         25    1    4    4    0    0 -0.55861148791E+02  0.24620440317E+02  0.15279471231E+03  0.20668905688E+03  0.12509000000E+03 0.  0.
<mgrwt>
<rscale>  2 0.45224974E+03</rscale>
<asrwt>0</asrwt>
<pdfrwt beam="1">  1       21 0.14021674E+00 0.45224974E+03</pdfrwt>
<pdfrwt beam="2">  1       21 0.78864030E-02 0.45224974E+03</pdfrwt>
<totfact> 0.39738324E+04</totfact>
</mgrwt>
</event>
<event>
 6    0  0.4709932E-002  0.4462017E+03  0.7546771E-02  0.1028861E+00
         21   -1    0    0  502  501  0.00000000000E+00  0.00000000000E+00  0.10107709606E+03  0.10107709606E+03  0.00000000000E+00 0.  1.
         21   -1    0    0  501  502 -0.00000000000E+00 -0.00000000000E+00 -0.49243592456E+03  0.49243592456E+03  0.00000000000E+00 0.  1.
      99926    2    1    2    0    0  0.00000000000E+00  0.00000000000E+00 -0.39135882850E+03  0.59351302062E+03  0.44620171783E+03 0.  0.
         25    1    3    3    0    0  0.18695531339E+02 -0.10567620426E+02 -0.24335885007E+03  0.27446718474E+03  0.12509000000E+03 0.  0.
         25    1    3    3    0    0 -0.47436684926E+02  0.44850328048E+02 -0.36853317250E+02  0.14583369328E+03  0.12509000000E+03 0.  0.
         25    1    3    3    0    0  0.28741153586E+02 -0.34282707621E+02 -0.11114666118E+03  0.17321214260E+03  0.12509000000E+03 0.  0.
<mgrwt>
<rscale>  2 0.44620172E+03</rscale>
<asrwt>0</asrwt>
<pdfrwt beam="1">  1       21 0.14864279E-01 0.44620172E+03</pdfrwt>
<pdfrwt beam="2">  1       21 0.72417048E-01 0.44620172E+03</pdfrwt>
<totfact> 0.63371850E+04</totfact>
</mgrwt>
</event>
<event>
 7    0  0.4709932E-002  0.4566287E+03  0.7546771E-02  0.1025764E+00
         21   -1    0    0  502  501  0.00000000000E+00  0.00000000000E+00  0.95288344748E+02  0.95288344748E+02  0.00000000000E+00 0. -1.
         21   -1    0    0  501  502 -0.00000000000E+00 -0.00000000000E+00 -0.54704956652E+03  0.54704956652E+03  0.00000000000E+00 0. -1.
      99926    2    1    2    0    0  0.00000000000E+00  0.00000000000E+00 -0.45176122178E+03  0.64233791127E+03  0.45662872310E+03 0.  0.
      99925    2    3    3    0    0 -0.43800717770E+02  0.87244180130E+02 -0.36849215453E+03  0.46314166270E+03  0.26302791093E+03 0.  0.
         25    1    4    4    0    0 -0.18299989480E+02  0.70187508723E+02 -0.24627212405E+03  0.28558473905E+03  0.12509000000E+03 0.  0.
         25    1    4    4    0    0 -0.25500728290E+02  0.17056671407E+02 -0.12222003049E+03  0.17755692365E+03  0.12509000000E+03 0.  0.
         25    1    3    3    0    0  0.43800717770E+02 -0.87244180130E+02 -0.83269067242E+02  0.17919624857E+03  0.12509000000E+03 0.  0.
<mgrwt>
<rscale>  2 0.45662872E+03</rscale>
<asrwt>0</asrwt>
<pdfrwt beam="1">  1       21 0.14012992E-01 0.45662872E+03</pdfrwt>
<pdfrwt beam="2">  1       21 0.80448467E-01 0.45662872E+03</pdfrwt>
<totfact> 0.55429234E+04</totfact>
</mgrwt>
</event>
<event>
 7    0  0.4709932E-002  0.4334031E+03  0.7546771E-02  0.1032790E+00
         21   -1    0    0  502  501  0.00000000000E+00  0.00000000000E+00  0.29185034209E+03  0.29185034209E+03  0.00000000000E+00 0.  1.
         21   -1    0    0  501  502 -0.00000000000E+00 -0.00000000000E+00 -0.16090286825E+03  0.16090286825E+03  0.00000000000E+00 0.  1.
      99926    2    1    2    0    0  0.00000000000E+00  0.00000000000E+00  0.13094747384E+03  0.45275321034E+03  0.43340307863E+03 0.  0.
      99925    2    3    3    0    0  0.39955242737E+02  0.55046391515E+02  0.20198807156E+02  0.27236667560E+03  0.26296214086E+03 0.  0.
         25    1    4    4    0    0  0.45151614203E+01 -0.29306247937E+01  0.32872013540E+02  0.12944903483E+03  0.12509000000E+03 0.  0.
         25    1    4    4    0    0  0.35440081317E+02  0.57977016308E+02 -0.12673206383E+02  0.14291764077E+03  0.12509000000E+03 0.  0.
         25    1    3    3    0    0 -0.39955242737E+02 -0.55046391515E+02  0.11074866669E+03  0.18038653474E+03  0.12509000000E+03 0.  0.
<mgrwt>
<rscale>  2 0.43340308E+03</rscale>
<asrwt>0</asrwt>
<pdfrwt beam="1">  1       21 0.42919168E-01 0.43340308E+03</pdfrwt>
<pdfrwt beam="2">  1       21 0.23662186E-01 0.43340308E+03</pdfrwt>
<totfact> 0.81897666E+04</totfact>
</mgrwt>
</event>
<event>
 7    0  0.4709932E-002  0.4573040E+03  0.7546771E-02  0.1025566E+00
         21   -1    0    0  502  501  0.00000000000E+00  0.00000000000E+00  0.62609581884E+03  0.62609581884E+03  0.00000000000E+00 0. -1.
         21   -1    0    0  501  502 -0.00000000000E+00 -0.00000000000E+00 -0.83504387431E+02  0.83504387431E+02  0.00000000000E+00 0. -1.
      99926    2    1    2    0    0  0.00000000000E+00  0.00000000000E+00  0.54259143140E+03  0.70960020627E+03  0.45730404689E+03 0.  0.
      99925    2    3    3    0    0 -0.64611620111E+02 -0.65005597011E+02  0.23260066130E+03  0.36298489393E+03  0.26316264265E+03 0.  0.
         25    1    3    3    0    0  0.64611620111E+02  0.65005597011E+02  0.30999077011E+03  0.34661531234E+03  0.12509000000E+03 0.  0.
         25    1    4    4    0    0 -0.59325511409E+02 -0.20291218854E+01  0.11931203264E+03  0.18277445903E+03  0.12509000000E+03 0.  0.
         25    1    4    4    0    0 -0.52861087022E+01 -0.62976475125E+02  0.11328862866E+03  0.18021043490E+03  0.12509000000E+03 0.  0.
<mgrwt>
<rscale>  2 0.45730405E+03</rscale>
<asrwt>0</asrwt>
<pdfrwt beam="1">  1       21 0.92072912E-01 0.45730405E+03</pdfrwt>
<pdfrwt beam="2">  1       21 0.12280057E-01 0.45730405E+03</pdfrwt>
<totfact> 0.51445874E+04</totfact>
</mgrwt>
</event>
<event>
 7    0  0.4709932E-002  0.4586034E+03  0.7546771E-02  0.1025187E+00
         21   -1    0    0  502  501  0.00000000000E+00  0.00000000000E+00  0.71608104997E+03  0.71608104997E+03  0.00000000000E+00 0.  1.
         21   -1    0    0  501  502 -0.00000000000E+00 -0.00000000000E+00 -0.73426407125E+02  0.73426407125E+02  0.00000000000E+00 0.  1.
      99926    2    1    2    0    0  0.00000000000E+00  0.00000000000E+00  0.64265464285E+03  0.78950745710E+03  0.45860335241E+03 0.  0.
      99925    2    3    3    0    0  0.17788646041E+02 -0.88879357523E+02  0.27736075614E+03  0.39289289875E+03  0.26309668323E+03 0.  0.
         25    1    3    3    0    0 -0.17788646041E+02  0.88879357523E+02  0.36529388671E+03  0.39661455834E+03  0.12509000000E+03 0.  0.
         25    1    4    4    0    0  0.31456068094E+02 -0.29563703890E+02  0.92138407136E+02  0.16124667741E+03  0.12509000000E+03 0.  0.
         25    1    4    4    0    0 -0.13667422053E+02 -0.59315653633E+02  0.18522234900E+03  0.23164622134E+03  0.12509000000E+03 0.  0.
<mgrwt>
<rscale>  2 0.45860335E+03</rscale>
<asrwt>0</asrwt>
<pdfrwt beam="1">  1       21 0.10530603E+00 0.45860335E+03</pdfrwt>
<pdfrwt beam="2">  1       21 0.10798001E-01 0.45860335E+03</pdfrwt>
<totfact> 0.46935032E+04</totfact>
</mgrwt>
</event>
<event>
 7    0  0.4709932E-002  0.4414877E+03  0.7546771E-02  0.1030291E+00
         21   -1    0    0  502  501  0.00000000000E+00  0.00000000000E+00  0.23888957615E+03  0.23888957615E+03  0.00000000000E+00 0. -1.
         21   -1    0    0  501  502 -0.00000000000E+00 -0.00000000000E+00 -0.20397646794E+03  0.20397646794E+03  0.00000000000E+00 0. -1.
      99926    2    1    2    0    0 -0.71054273576E-14  0.00000000000E+00  0.34913108210E+02  0.44286604409E+03  0.44148772110E+03 0.  0.
      99925    2    3    3    0    0  0.37934789455E+02 -0.88659022897E+02 -0.43289255958E+01  0.28011803056E+03  0.26295988450E+03 0.  0.
         25    1    4    4    0    0  0.14524854832E+02 -0.90057797695E+01  0.20621436600E+02  0.12792508442E+03  0.12509000000E+03 0.  0.
         25    1    3    3    0    0 -0.37934789455E+02  0.88659022897E+02  0.39242033806E+02  0.16274801353E+03  0.12509000000E+03 0.  0.
         25    1    4    4    0    0  0.23409934623E+02 -0.79653243128E+02 -0.24950362195E+02  0.15219294614E+03  0.12509000000E+03 0.  0.
<mgrwt>
<rscale>  2 0.44148772E+03</rscale>
<asrwt>0</asrwt>
<pdfrwt beam="1">  1       21 0.35130820E-01 0.44148772E+03</pdfrwt>
<pdfrwt beam="2">  1       21 0.29996539E-01 0.44148772E+03</pdfrwt>
<totfact> 0.77464703E+04</totfact>
</mgrwt>
</event>
<event>
 7    0  0.4709932E-002  0.4499395E+03  0.7546771E-02  0.1027740E+00
         21   -1    0    0  502  501  0.00000000000E+00  0.00000000000E+00  0.14462728036E+03  0.14462728036E+03  0.00000000000E+00 0.  1.
         21   -1    0    0  501  502 -0.00000000000E+00 -0.00000000000E+00 -0.34994362933E+03  0.34994362933E+03  0.00000000000E+00 0.  1.
      99926    2    1    2    0    0 -0.14210854715E-13  0.00000000000E+00 -0.20531634897E+03  0.49457090970E+03  0.44993953101E+03 0.  0.
      99925    2    3    3    0    0  0.10030408103E+03  0.15714320991E+02 -0.17129719117E+03  0.32991168659E+03  0.26304209680E+03 0.  0.
         25    1    4    4    0    0  0.75886270392E+02 -0.24347051528E+02 -0.87481435420E+02  0.17219760334E+03  0.12509000000E+03 0.  0.
         25    1    3    3    0    0 -0.10030408103E+03 -0.15714320991E+02 -0.34019157799E+02  0.16465922311E+03  0.12509000000E+03 0.  0.
         25    1    4    4    0    0  0.24417810642E+02  0.40061372519E+02 -0.83815755748E+02  0.15771408325E+03  0.12509000000E+03 0.  0.
<mgrwt>
<rscale>  2 0.44993953E+03</rscale>
<asrwt>0</asrwt>
<pdfrwt beam="1">  1       21 0.21268718E-01 0.44993953E+03</pdfrwt>
<pdfrwt beam="2">  1       21 0.51462298E-01 0.44993953E+03</pdfrwt>
<totfact> 0.68358868E+04</totfact>
</mgrwt>
</event>
<event>
 7    0  0.4709932E-002  0.4527362E+03  0.7546771E-02  0.1026909E+00
         21   -1    0    0  502  501  0.00000000000E+00  0.00000000000E+00  0.57804909219E+02  0.57804909219E+02  0.00000000000E+00 0.  1.
         21   -1    0    0  501  502 -0.00000000000E+00 -0.00000000000E+00 -0.88647350466E+03  0.88647350466E+03  0.00000000000E+00 0.  1.
      99926    2    1    2    0    0  0.00000000000E+00  0.00000000000E+00 -0.82866859544E+03  0.94427841388E+03  0.45273621663E+03 0.  0.
      99925    2    3    3    0    0  0.33707776408E+02 -0.44738348525E+02 -0.72242940779E+03  0.77086559108E+03  0.26304329729E+03 0.  0.
         25    1    4    4    0    0 -0.10595179442E+02 -0.40564576076E+02 -0.29190756424E+03  0.32033619343E+03  0.12509000000E+03 0.  0.
         25    1    4    4    0    0  0.44302955850E+02 -0.41737724493E+01 -0.43052184354E+03  0.45052939764E+03  0.12509000000E+03 0.  0.
         25    1    3    3    0    0 -0.33707776408E+02  0.44738348525E+02 -0.10623918765E+03  0.17341282280E+03  0.12509000000E+03 0.  0.
<mgrwt>
<rscale>  2 0.45273622E+03</rscale>
<asrwt>0</asrwt>
<pdfrwt beam="1">  1       21 0.85007222E-02 0.45273622E+03</pdfrwt>
<pdfrwt beam="2">  1       21 0.13036375E+00 0.45273622E+03</pdfrwt>
<totfact> 0.42113985E+04</totfact>
</mgrwt>
</event>
<event>
 7    0  0.4709932E-002  0.4548639E+03  0.7546771E-02  0.1026281E+00
         21   -1    0    0  502  501  0.00000000000E+00  0.00000000000E+00  0.41092648022E+03  0.41092648022E+03  0.00000000000E+00 0.  1.
         21   -1    0    0  501  502 -0.00000000000E+00 -0.00000000000E+00 -0.12587483399E+03  0.12587483399E+03  0.00000000000E+00 0.  1.
      99926    2    1    2    0    0 -0.35527136788E-14  0.00000000000E+00  0.28505164623E+03  0.53680131422E+03  0.45486394661E+03 0.  0.
      99925    2    3    3    0    0 -0.10264444588E+02  0.30693531477E+01  0.31211733503E+03  0.40836907776E+03  0.26312220183E+03 0.  0.
         25    1    4    4    0    0  0.33006196527E+02 -0.40141837681E+01  0.13353705897E+03  0.18597090337E+03  0.12509000000E+03 0.  0.
         25    1    4    4    0    0 -0.43270641115E+02  0.70835369159E+01  0.17858027605E+03  0.22239817439E+03  0.12509000000E+03 0.  0.
         25    1    3    3    0    0  0.10264444588E+02 -0.30693531477E+01 -0.27065688795E+02  0.12843223646E+03  0.12509000000E+03 0.  0.
<mgrwt>
<rscale>  2 0.45486395E+03</rscale>
<asrwt>0</asrwt>
<pdfrwt beam="1">  1       21 0.60430364E-01 0.45486395E+03</pdfrwt>
<pdfrwt beam="2">  1       21 0.18511005E-01 0.45486395E+03</pdfrwt>
<totfact> 0.62814820E+04</totfact>
</mgrwt>
</event>
<event>
 7    0  0.4709932E-002  0.4595709E+03  0.7546771E-02  0.1024906E+00
         21   -1    0    0  502  501  0.00000000000E+00  0.00000000000E+00  0.89430146036E+02  0.89430146036E+02  0.00000000000E+00 0. -1.
         21   -1    0    0  501  502 -0.00000000000E+00 -0.00000000000E+00 -0.59042004208E+03  0.59042004208E+03  0.00000000000E+00 0. -1.
      99926    2    1    2    0    0  0.00000000000E+00  0.35527136788E-14 -0.50098989605E+03  0.67985018812E+03  0.45957088936E+03 0.  0.
      99925    2    3    3    0    0 -0.89109703729E+02 -0.18847159873E+02 -0.20440131759E+03  0.34532358573E+03  0.26300708260E+03 0.  0.
         25    1    4    4    0    0 -0.36708151274E+02 -0.48682994922E+02 -0.11042700387E+03  0.17764896186E+03  0.12509000000E+03 0.  0.
         25    1    3    3    0    0  0.89109703729E+02  0.18847159873E+02 -0.29658857846E+03  0.33452660239E+03  0.12509000000E+03 0.  0.
         25    1    4    4    0    0 -0.52401552455E+02  0.29835835049E+02 -0.93974313717E+02  0.16767462387E+03  0.12509000000E+03 0.  0.
<mgrwt>
<rscale>  2 0.45957089E+03</rscale>
<asrwt>0</asrwt>
<pdfrwt beam="1">  1       21 0.13151492E-01 0.45957089E+03</pdfrwt>
<pdfrwt beam="2">  1       21 0.86826474E-01 0.45957089E+03</pdfrwt>
<totfact> 0.52108848E+04</totfact>
</mgrwt>
</event>
<event>
 7    0  0.4709932E-002  0.4588639E+03  0.7546771E-02  0.1025111E+00
         21   -1    0    0  502  501  0.00000000000E+00  0.00000000000E+00  0.42048489557E+03  0.42048489557E+03  0.00000000000E+00 0. -1.
         21   -1    0    0  501  502 -0.00000000000E+00 -0.00000000000E+00 -0.12518645265E+03  0.12518645265E+03  0.00000000000E+00 0. -1.
      99926    2    1    2    0    0  0.35527136788E-14 -0.14210854715E-13  0.29529844292E+03  0.54567134822E+03  0.45886386858E+03 0.  0.
      99925    2    3    3    0    0  0.22233790854E+02 -0.11398937878E+03  0.16984840271E+03  0.33383853533E+03  0.26289117109E+03 0.  0.
         25    1    3    3    0    0 -0.22233790854E+02  0.11398937878E+03  0.12545004021E+03  0.21183281289E+03  0.12509000000E+03 0.  0.
         25    1    4    4    0    0  0.33556878053E+02 -0.78051857671E+02  0.58336044366E+02  0.16207639780E+03  0.12509000000E+03 0.  0.
         25    1    4    4    0    0 -0.11323087200E+02 -0.35937521107E+02  0.11151235834E+03  0.17176213753E+03  0.12509000000E+03 0.  0.
<mgrwt>
<rscale>  2 0.45886387E+03</rscale>
<asrwt>0</asrwt>
<pdfrwt beam="1">  1       21 0.61836014E-01 0.45886387E+03</pdfrwt>
<pdfrwt beam="2">  1       21 0.18409773E-01 0.45886387E+03</pdfrwt>
<totfact> 0.60288923E+04</totfact>
</mgrwt>
</event>
<event>
 7    0  0.4709932E-002  0.4520083E+03  0.7546771E-02  0.1027125E+00
         21   -1    0    0  502  501  0.00000000000E+00  0.00000000000E+00  0.65055089755E+03  0.65055089755E+03  0.00000000000E+00 0. -1.
         21   -1    0    0  501  502 -0.00000000000E+00 -0.00000000000E+00 -0.78514806320E+02  0.78514806320E+02  0.00000000000E+00 0. -1.
      99926    2    1    2    0    0  0.35527136788E-14 -0.14210854715E-13  0.57203609123E+03  0.72906570387E+03  0.45200830843E+03 0.  0.
      99925    2    3    3    0    0  0.21396844922E+02 -0.10518987682E+03  0.31914184744E+03  0.42719529823E+03  0.26290981132E+03 0.  0.
         25    1    3    3    0    0 -0.21396844922E+02  0.10518987682E+03  0.25289424379E+03  0.30187040564E+03  0.12509000000E+03 0.  0.
         25    1    4    4    0    0 -0.15466264329E+02 -0.65304317595E+02  0.20504146048E+03  0.24938598165E+03  0.12509000000E+03 0.  0.
         25    1    4    4    0    0  0.36863109251E+02 -0.39885559225E+02  0.11410038696E+03  0.17780931658E+03  0.12509000000E+03 0.  0.
<mgrwt>
<rscale>  2 0.45200831E+03</rscale>
<asrwt>0</asrwt>
<pdfrwt beam="1">  1       21 0.95669247E-01 0.45200831E+03</pdfrwt>
<pdfrwt beam="2">  1       21 0.11546295E-01 0.45200831E+03</pdfrwt>
<totfact> 0.52579253E+04</totfact>
</mgrwt>
</event>
<event>
 7    0  0.4709932E-002  0.4598742E+03  0.7546771E-02  0.1024818E+00
         21   -1    0    0  502  501  0.00000000000E+00  0.00000000000E+00  0.20047387913E+03  0.20047387913E+03  0.00000000000E+00 0.  1.
         21   -1    0    0  501  502 -0.00000000000E+00 -0.00000000000E+00 -0.26373051697E+03  0.26373051697E+03  0.00000000000E+00 0.  1.
      99926    2    1    2    0    0 -0.35527136788E-14  0.00000000000E+00 -0.63256637841E+02  0.46420439609E+03  0.45987424272E+03 0.  0.
      99925    2    3    3    0    0  0.19103497680E+02  0.35998546021E+02  0.71805429831E+02  0.27565703026E+03  0.26300178638E+03 0.  0.
         25    1    4    4    0    0  0.33908269124E+02 -0.10982216207E+02  0.50557773176E+02  0.13954918959E+03  0.12509000000E+03 0.  0.
         25    1    4    4    0    0 -0.14804771444E+02  0.46980762228E+02  0.21247656655E+02  0.13610784066E+03  0.12509000000E+03 0.  0.
         25    1    3    3    0    0 -0.19103497680E+02 -0.35998546021E+02 -0.13506206767E+03  0.18854736583E+03  0.12509000000E+03 0.  0.
<mgrwt>
<rscale>  2 0.45987424E+03</rscale>
<asrwt>0</asrwt>
<pdfrwt beam="1">  1       21 0.29481453E-01 0.45987424E+03</pdfrwt>
<pdfrwt beam="2">  1       21 0.38783899E-01 0.45987424E+03</pdfrwt>
<totfact> 0.65299819E+04</totfact>
</mgrwt>
</event>
<event>
 7    0  0.4709932E-002  0.4587580E+03  0.7546771E-02  0.1025142E+00
         21   -1    0    0  502  501  0.00000000000E+00  0.00000000000E+00  0.34548979965E+03  0.34548979965E+03  0.00000000000E+00 0.  1.
         21   -1    0    0  501  502 -0.00000000000E+00 -0.00000000000E+00 -0.15229023707E+03  0.15229023707E+03  0.00000000000E+00 0.  1.
      99926    2    1    2    0    0  0.00000000000E+00  0.00000000000E+00  0.19319956258E+03  0.49778003672E+03  0.45875799064E+03 0.  0.
      99925    2    3    3    0    0 -0.19752559779E+02 -0.10816848863E+03  0.79262748390E+02  0.29598882958E+03  0.26312776061E+03 0.  0.
         25    1    4    4    0    0 -0.45918982312E+02 -0.70956897160E+02  0.55105936411E+02  0.16070969641E+03  0.12509000000E+03 0.  0.
         25    1    4    4    0    0  0.26166422532E+02 -0.37211591472E+02  0.24156811978E+02  0.13527913318E+03  0.12509000000E+03 0.  0.
         25    1    3    3    0    0  0.19752559779E+02  0.10816848863E+03  0.11393681419E+03  0.20179120714E+03  0.12509000000E+03 0.  0.
<mgrwt>
<rscale>  2 0.45875799E+03</rscale>
<asrwt>0</asrwt>
<pdfrwt beam="1">  1       21 0.50807324E-01 0.45875799E+03</pdfrwt>
<pdfrwt beam="2">  1       21 0.22395623E-01 0.45875799E+03</pdfrwt>
<totfact> 0.63510943E+04</totfact>
</mgrwt>
</event>
<event>
 7    0  0.4709932E-002  0.4346061E+03  0.7546771E-02  0.1032415E+00
         21   -1    0    0  502  501  0.00000000000E+00  0.00000000000E+00  0.31454478248E+03  0.31454478248E+03  0.00000000000E+00 0.  1.
         21   -1    0    0  501  502 -0.00000000000E+00 -0.00000000000E+00 -0.15012363512E+03  0.15012363512E+03  0.00000000000E+00 0.  1.
      99926    2    1    2    0    0  0.00000000000E+00 -0.71054273576E-14  0.16442114736E+03  0.46466841760E+03  0.43460605681E+03 0.  0.
      99925    2    3    3    0    0 -0.65969754262E+02 -0.55588998079E+02  0.14184932288E+03  0.31104829995E+03  0.26303549061E+03 0.  0.
         25    1    4    4    0    0 -0.72269637915E+01 -0.58979858249E+02  0.75105680302E+02  0.15754118191E+03  0.12509000000E+03 0.  0.
         25    1    4    4    0    0 -0.58742790470E+02  0.33908601704E+01  0.66743642575E+02  0.15350711804E+03  0.12509000000E+03 0.  0.
         25    1    3    3    0    0  0.65969754262E+02  0.55588998079E+02  0.22571824480E+02  0.15362011764E+03  0.12509000000E+03 0.  0.
<mgrwt>
<rscale>  2 0.43460606E+03</rscale>
<asrwt>0</asrwt>
<pdfrwt beam="1">  1       21 0.46256586E-01 0.43460606E+03</pdfrwt>
<pdfrwt beam="2">  1       21 0.22077005E-01 0.43460606E+03</pdfrwt>
<totfact> 0.80022403E+04</totfact>
</mgrwt>
</event>
<event>
 7    0  0.4709932E-002  0.4496716E+03  0.7546771E-02  0.1027820E+00
         21   -1    0    0  502  501  0.00000000000E+00  0.00000000000E+00  0.32194090748E+02  0.32194090748E+02  0.00000000000E+00 0. -1.
         21   -1    0    0  501  502 -0.00000000000E+00 -0.00000000000E+00 -0.15701989485E+04  0.15701989485E+04  0.00000000000E+00 0. -1.
      99926    2    1    2    0    0  0.00000000000E+00  0.14210854715E-13 -0.15380048578E+04  0.16023930393E+04  0.44967155766E+03 0.  0.
      99925    2    3    3    0    0 -0.14383166234E+02  0.10709125355E+03 -0.96046600674E+03  0.10016651103E+04  0.26298789152E+03 0.  0.
         25    1    4    4    0    0  0.30047161266E+02  0.68646046630E+02 -0.47001523427E+03  0.49211476321E+03  0.12509000000E+03 0.  0.
         25    1    3    3    0    0  0.14383166234E+02 -0.10709125355E+03 -0.57753885106E+03  0.60072792896E+03  0.12509000000E+03 0.  0.
         25    1    4    4    0    0 -0.44430327500E+02  0.38445206925E+02 -0.49045077247E+03  0.50955034712E+03  0.12509000000E+03 0.  0.
<mgrwt>
<rscale>  2 0.44967156E+03</rscale>
<asrwt>0</asrwt>
<pdfrwt beam="1">  1       21 0.47344246E-02 0.44967156E+03</pdfrwt>
<pdfrwt beam="2">  1       21 0.23091163E+00 0.44967156E+03</pdfrwt>
<totfact> 0.22283589E+04</totfact>
</mgrwt>
</event>
<event>
 7    0  0.4709932E-002  0.4541156E+03  0.7546771E-02  0.1026502E+00
         21   -1    0    0  502  501  0.00000000000E+00  0.00000000000E+00  0.80637966660E+02  0.80637966660E+02  0.00000000000E+00 0. -1.
         21   -1    0    0  501  502 -0.00000000000E+00 -0.00000000000E+00 -0.63934195880E+03  0.63934195880E+03  0.00000000000E+00 0. -1.
      99926    2    1    2    0    0  0.00000000000E+00  0.00000000000E+00 -0.55870399214E+03  0.71997992546E+03  0.45411556044E+03 0.  0.
      99925    2    3    3    0    0  0.10138220069E+03 -0.42643126848E+02 -0.31785249124E+03  0.42714252950E+03  0.26329403229E+03 0.  0.
         25    1    3    3    0    0 -0.10138220069E+03  0.42643126848E+02 -0.24085150090E+03  0.29283739595E+03  0.12509000000E+03 0.  0.
         25    1    4    4    0    0  0.57684865241E+02 -0.52741380595E+01 -0.10347415627E+03  0.17236522075E+03  0.12509000000E+03 0.  0.
         25    1    4    4    0    0  0.43697335449E+02 -0.37368988788E+02 -0.21437833497E+03  0.25477730875E+03  0.12509000000E+03 0.  0.
<mgrwt>
<rscale>  2 0.45411556E+03</rscale>
<asrwt>0</asrwt>
<pdfrwt beam="1">  1       21 0.11858524E-01 0.45411556E+03</pdfrwt>
<pdfrwt beam="2">  1       21 0.94020878E-01 0.45411556E+03</pdfrwt>
<totfact> 0.52193751E+04</totfact>
</mgrwt>
</event>
<event>
 7    0  0.4709932E-002  0.4465319E+03  0.7546771E-02  0.1028761E+00
         21   -1    0    0  502  501  0.00000000000E+00  0.00000000000E+00  0.61751537328E+03  0.61751537328E+03  0.00000000000E+00 0. -1.
         21   -1    0    0  501  502 -0.00000000000E+00 -0.00000000000E+00 -0.80722977075E+02  0.80722977075E+02  0.00000000000E+00 0. -1.
      99926    2    1    2    0    0  0.00000000000E+00 -0.71054273576E-14  0.53679239620E+03  0.69823835035E+03  0.44653187712E+03 0.  0.
      99925    2    3    3    0    0  0.87505185487E+02 -0.50863172284E+02  0.38465583160E+03  0.47679476347E+03  0.26292378726E+03 0.  0.
         25    1    4    4    0    0  0.69816216096E+02 -0.13614971444E+02  0.24984679640E+03  0.28832377850E+03  0.12509000000E+03 0.  0.
         25    1    4    4    0    0  0.17688969391E+02 -0.37248200840E+02  0.13480903520E+03  0.18847098497E+03  0.12509000000E+03 0.  0.
         25    1    3    3    0    0 -0.87505185487E+02  0.50863172284E+02  0.15213656460E+03  0.22144358688E+03  0.12509000000E+03 0.  0.
<mgrwt>
<rscale>  2 0.44653188E+03</rscale>
<asrwt>0</asrwt>
<pdfrwt beam="1">  1       21 0.90811082E-01 0.44653188E+03</pdfrwt>
<pdfrwt beam="2">  1       21 0.11871026E-01 0.44653188E+03</pdfrwt>
<totfact> 0.56682903E+04</totfact>
</mgrwt>
</event>
<event>
 7    0  0.4709932E-002  0.4577782E+03  0.7546771E-02  0.1025428E+00
         21   -1    0    0  502  501  0.00000000000E+00  0.00000000000E+00  0.29378029904E+03  0.29378029904E+03  0.00000000000E+00 0.  1.
         21   -1    0    0  501  502 -0.00000000000E+00 -0.00000000000E+00 -0.17833130126E+03  0.17833130126E+03  0.00000000000E+00 0.  1.
      99926    2    1    2    0    0 -0.71054273576E-14 -0.71054273576E-14  0.11544899778E+03  0.47211160030E+03  0.45777821273E+03 0.  0.
      99925    2    3    3    0    0 -0.50603720302E+02 -0.34133974389E+02 -0.29067244146E+02  0.27146684707E+03  0.26291344519E+03 0.  0.
         25    1    4    4    0    0 -0.42371601289E+02 -0.29263123850E+02 -0.50113370223E+02  0.14425859069E+03  0.12509000000E+03 0.  0.
         25    1    4    4    0    0 -0.82321190135E+01 -0.48708505393E+01  0.21046126077E+02  0.12720825638E+03  0.12509000000E+03 0.  0.
         25    1    3    3    0    0  0.50603720302E+02  0.34133974389E+02  0.14451624193E+03  0.20064475323E+03  0.12509000000E+03 0.  0.
<mgrwt>
<rscale>  2 0.45777821E+03</rscale>
<asrwt>0</asrwt>
<pdfrwt beam="1">  1       21 0.43202985E-01 0.45777821E+03</pdfrwt>
<pdfrwt beam="2">  1       21 0.26225191E-01 0.45777821E+03</pdfrwt>
<totfact> 0.65816416E+04</totfact>
</mgrwt>
</event>
<event>
 7    0  0.4709932E-002  0.4508340E+03  0.7546771E-02  0.1027474E+00
         21   -1    0    0  502  501  0.00000000000E+00  0.00000000000E+00  0.44508585992E+03  0.44508585992E+03  0.00000000000E+00 0. -1.
         21   -1    0    0  501  502 -0.00000000000E+00 -0.00000000000E+00 -0.11416409392E+03  0.11416409392E+03  0.00000000000E+00 0. -1.
      99926    2    1    2    0    0  0.14210854715E-13  0.00000000000E+00  0.33092176600E+03  0.55924995384E+03  0.45083400012E+03 0.  0.
      99925    2    3    3    0    0 -0.80492800082E+02  0.26742077623E+02  0.12360815318E+03  0.30269455682E+03  0.26296537721E+03 0.  0.
         25    1    4    4    0    0 -0.70023215950E+02  0.11274782346E+02  0.96981721002E+02  0.17344547788E+03  0.12509000000E+03 0.  0.
         25    1    4    4    0    0 -0.10469584132E+02  0.15467295278E+02  0.26626432174E+02  0.12924907893E+03  0.12509000000E+03 0.  0.
         25    1    3    3    0    0  0.80492800082E+02 -0.26742077623E+02  0.20731361283E+03  0.25655539703E+03  0.12509000000E+03 0.  0.
<mgrwt>
<rscale>  2 0.45083400E+03</rscale>
<asrwt>0</asrwt>
<pdfrwt beam="1">  1       21 0.65453802E-01 0.45083400E+03</pdfrwt>
<pdfrwt beam="2">  1       21 0.16788838E-01 0.45083400E+03</pdfrwt>
<totfact> 0.63320310E+04</totfact>
</mgrwt>
</event>
<event>
 7    0  0.4709932E-002  0.4455344E+03  0.7546771E-02  0.1029062E+00
         21   -1    0    0  502  501  0.00000000000E+00  0.00000000000E+00  0.63456270753E+03  0.63456270753E+03  0.00000000000E+00 0.  1.
         21   -1    0    0  501  502 -0.00000000000E+00 -0.00000000000E+00 -0.78203816849E+02  0.78203816849E+02  0.00000000000E+00 0.  1.
      99926    2    1    2    0    0 -0.71054273576E-14  0.00000000000E+00  0.55635889069E+03  0.71276652438E+03  0.44553440163E+03 0.  0.
      99925    2    3    3    0    0  0.41896964347E+02 -0.94340630308E+02  0.37263345590E+03  0.46769907726E+03  0.26311827050E+03 0.  0.
         25    1    4    4    0    0  0.21276340001E+01 -0.56191706935E+02  0.12869887477E+03  0.18807696090E+03  0.12509000000E+03 0.  0.
         25    1    3    3    0    0 -0.41896964347E+02  0.94340630308E+02  0.18372543479E+03  0.24506744712E+03  0.12509000000E+03 0.  0.
         25    1    4    4    0    0  0.39769330347E+02 -0.38148923373E+02  0.24393458112E+03  0.27962211636E+03  0.12509000000E+03 0.  0.
<mgrwt>
<rscale>  2 0.44553440E+03</rscale>
<asrwt>0</asrwt>
<pdfrwt beam="1">  1       21 0.93318043E-01 0.44553440E+03</pdfrwt>
<pdfrwt beam="2">  1       21 0.11500562E-01 0.44553440E+03</pdfrwt>
<totfact> 0.56291429E+04</totfact>
</mgrwt>
</event>
<event>
 7    0  0.4709932E-002  0.4546170E+03  0.7546771E-02  0.1026354E+00
         21   -1    0    0  502  501  0.00000000000E+00  0.00000000000E+00  0.32698977958E+03  0.32698977958E+03  0.00000000000E+00 0. -1.
         21   -1    0    0  501  502 -0.00000000000E+00 -0.00000000000E+00 -0.15801461441E+03  0.15801461441E+03  0.00000000000E+00 0. -1.
      99926    2    1    2    0    0  0.00000000000E+00  0.00000000000E+00  0.16897516518E+03  0.48500439399E+03  0.45461704295E+03 0.  0.
      99925    2    3    3    0    0  0.92298676989E+02  0.50318711476E+02  0.15202945360E+03  0.32073119551E+03  0.26211548316E+03 0.  0.
         25    1    4    4    0    0  0.30140320487E+02  0.60829843002E+02  0.77870549114E+02  0.16223451926E+03  0.12509000000E+03 0.  0.
         25    1    3    3    0    0 -0.92298676989E+02 -0.50318711476E+02  0.16945711578E+02  0.16427319848E+03  0.12509000000E+03 0.  0.
         25    1    4    4    0    0  0.62158356502E+02 -0.10511131526E+02  0.74158904485E+02  0.15849667625E+03  0.12509000000E+03 0.  0.
<mgrwt>
<rscale>  2 0.45461704E+03</rscale>
<asrwt>0</asrwt>
<pdfrwt beam="1">  1       21 0.48086732E-01 0.45461704E+03</pdfrwt>
<pdfrwt beam="2">  1       21 0.23237443E-01 0.45461704E+03</pdfrwt>
<totfact> 0.66539641E+04</totfact>
</mgrwt>
</event>
<event>
 7    0  0.4709932E-002  0.4541432E+03  0.7546771E-02  0.1026494E+00
         21   -1    0    0  502  501  0.00000000000E+00  0.00000000000E+00  0.38040271126E+02  0.38040271126E+02  0.00000000000E+00 0.  1.
         21   -1    0    0  501  502 -0.00000000000E+00 -0.00000000000E+00 -0.13554453696E+04  0.13554453696E+04  0.00000000000E+00 0.  1.
      99926    2    1    2    0    0  0.26645352591E-14  0.00000000000E+00 -0.13174050985E+04  0.13934856407E+04  0.45414319044E+03 0.  0.
      99925    2    3    3    0    0 -0.45984328202E+01 -0.93718625911E+02 -0.10200290739E+04  0.10575030005E+04  0.26277168432E+03 0.  0.
         25    1    3    3    0    0  0.45984328202E+01  0.93718625911E+02 -0.29737602457E+03  0.33598264020E+03  0.12509000000E+03 0.  0.
         25    1    4    4    0    0 -0.40390720017E+02 -0.52915696382E+02 -0.47584459847E+03  0.49649478465E+03  0.12509000000E+03 0.  0.
         25    1    4    4    0    0  0.35792287197E+02 -0.40802929529E+02 -0.54418447541E+03  0.56100821586E+03  0.12509000000E+03 0.  0.
<mgrwt>
<rscale>  2 0.45414319E+03</rscale>
<asrwt>0</asrwt>
<pdfrwt beam="1">  1       21 0.55941574E-02 0.45414319E+03</pdfrwt>
<pdfrwt beam="2">  1       21 0.19933021E+00 0.45414319E+03</pdfrwt>
<totfact> 0.26683345E+04</totfact>
</mgrwt>
</event>
<event>
 7    0  0.4709932E-002  0.4585988E+03  0.7546771E-02  0.1025188E+00
         21   -1    0    0  502  501  0.00000000000E+00  0.00000000000E+00  0.37257650808E+03  0.37257650808E+03  0.00000000000E+00 0.  1.
         21   -1    0    0  501  502 -0.00000000000E+00 -0.00000000000E+00 -0.14112058271E+03  0.14112058271E+03  0.00000000000E+00 0.  1.
      99926    2    1    2    0    0  0.00000000000E+00  0.00000000000E+00  0.23145592537E+03  0.51369709080E+03  0.45859879601E+03 0.  0.
      99925    2    3    3    0    0  0.10350647803E+03  0.38479087685E+02  0.18663527579E+03  0.34092374241E+03  0.26306280768E+03 0.  0.
         25    1    4    4    0    0  0.51818826881E+02  0.47831041328E+02  0.61005065203E+02  0.15601963150E+03  0.12509000000E+03 0.  0.
         25    1    4    4    0    0  0.51687651153E+02 -0.93519536434E+01  0.12563021058E+03  0.18490411091E+03  0.12509000000E+03 0.  0.
         25    1    3    3    0    0 -0.10350647803E+03 -0.38479087685E+02  0.44820649580E+02  0.17277334839E+03  0.12509000000E+03 0.  0.
<mgrwt>
<rscale>  2 0.45859880E+03</rscale>
<asrwt>0</asrwt>
<pdfrwt beam="1">  1       21 0.54790663E-01 0.45859880E+03</pdfrwt>
<pdfrwt beam="2">  1       21 0.20753027E-01 0.45859880E+03</pdfrwt>
<totfact> 0.62514162E+04</totfact>
</mgrwt>
</event>
<event>
 7    0  0.4709932E-002  0.4595066E+03  0.7546771E-02  0.1024924E+00
         21   -1    0    0  502  501  0.00000000000E+00  0.00000000000E+00  0.12758756180E+03  0.12758756180E+03  0.00000000000E+00 0.  1.
         21   -1    0    0  501  502 -0.00000000000E+00 -0.00000000000E+00 -0.41372821158E+03  0.41372821158E+03  0.00000000000E+00 0.  1.
      99926    2    1    2    0    0 -0.14210854715E-13 -0.71054273576E-14 -0.28614064978E+03  0.54131577338E+03  0.45950657782E+03 0.  0.
      99925    2    3    3    0    0 -0.10210316923E+03 -0.52981288256E+02 -0.15060823386E+03  0.32394830126E+03  0.26273101779E+03 0.  0.
         25    1    4    4    0    0 -0.76176759136E+02 -0.11011162321E+02 -0.47045093703E+02  0.15422351724E+03  0.12509000000E+03 0.  0.
         25    1    4    4    0    0 -0.25926410095E+02 -0.41970125935E+02 -0.10356314016E+03  0.16972478402E+03  0.12509000000E+03 0.  0.
         25    1    3    3    0    0  0.10210316923E+03  0.52981288256E+02 -0.13553241592E+03  0.21736747212E+03  0.12509000000E+03 0.  0.
<mgrwt>
<rscale>  2 0.45950658E+03</rscale>
<asrwt>0</asrwt>
<pdfrwt beam="1">  1       21 0.18762877E-01 0.45950658E+03</pdfrwt>
<pdfrwt beam="2">  1       21 0.60842384E-01 0.45950658E+03</pdfrwt>
<totfact> 0.60265678E+04</totfact>
</mgrwt>
</event>
<event>
 7    0  0.4709932E-002  0.4587269E+03  0.7546771E-02  0.1025151E+00
         21   -1    0    0  502  501  0.00000000000E+00  0.00000000000E+00  0.12646861169E+03  0.12646861169E+03  0.00000000000E+00 0.  1.
         21   -1    0    0  501  502 -0.00000000000E+00 -0.00000000000E+00 -0.41597354196E+03  0.41597354196E+03  0.00000000000E+00 0.  1.
      99926    2    1    2    0    0  0.00000000000E+00 -0.53290705182E-14 -0.28950493027E+03  0.54244215365E+03  0.45872691812E+03 0.  0.
      99925    2    3    3    0    0  0.11244782244E+03 -0.39447399238E+01 -0.14643190398E+03  0.32158592735E+03  0.26327767171E+03 0.  0.
         25    1    4    4    0    0  0.69461079700E+02 -0.41087255066E+02 -0.72780916151E+02  0.16570327087E+03  0.12509000000E+03 0.  0.
         25    1    4    4    0    0  0.42986742737E+02  0.37142515142E+02 -0.73650987833E+02  0.15588265648E+03  0.12509000000E+03 0.  0.
         25    1    3    3    0    0 -0.11244782244E+03  0.39447399238E+01 -0.14307302629E+03  0.22085622630E+03  0.12509000000E+03 0.  0.
<mgrwt>
<rscale>  2 0.45872692E+03</rscale>
<asrwt>0</asrwt>
<pdfrwt beam="1">  1       21 0.18598325E-01 0.45872692E+03</pdfrwt>
<pdfrwt beam="2">  1       21 0.61172579E-01 0.45872692E+03</pdfrwt>
<totfact> 0.60562683E+04</totfact>
</mgrwt>
</event>
<event>
 7    0  0.4709932E-002  0.4532953E+03  0.7546771E-02  0.1026744E+00
         21   -1    0    0  502  501  0.00000000000E+00  0.00000000000E+00  0.76679978794E+02  0.76679978794E+02  0.00000000000E+00 0. -1.
         21   -1    0    0  501  502 -0.00000000000E+00 -0.00000000000E+00 -0.66991602758E+03  0.66991602758E+03  0.00000000000E+00 0. -1.
      99926    2    1    2    0    0  0.00000000000E+00  0.00000000000E+00 -0.59323604879E+03  0.74659600638E+03  0.45329525384E+03 0.  0.
      99925    2    3    3    0    0  0.10351293209E+03 -0.37496823259E+02 -0.34446937058E+03  0.44717438533E+03  0.26303012139E+03 0.  0.
         25    1    4    4    0    0  0.44527121043E+02  0.16622206277E+02 -0.19474329180E+03  0.23628673270E+03  0.12509000000E+03 0.  0.
         25    1    4    4    0    0  0.58985811049E+02 -0.54119029536E+02 -0.14972607878E+03  0.21088765263E+03  0.12509000000E+03 0.  0.
         25    1    3    3    0    0 -0.10351293209E+03  0.37496823259E+02 -0.24876667821E+03  0.29942162105E+03  0.12509000000E+03 0.  0.
<mgrwt>
<rscale>  2 0.45329525E+03</rscale>
<asrwt>0</asrwt>
<pdfrwt beam="1">  1       21 0.11276468E-01 0.45329525E+03</pdfrwt>
<pdfrwt beam="2">  1       21 0.98517058E-01 0.45329525E+03</pdfrwt>
<totfact> 0.51126666E+04</totfact>
</mgrwt>
</event>
<event>
 7    0  0.4709932E-002  0.4300304E+03  0.7546771E-02  0.1033850E+00
         21   -1    0    0  502  501  0.00000000000E+00  0.00000000000E+00  0.58755373275E+02  0.58755373275E+02  0.00000000000E+00 0. -1.
         21   -1    0    0  501  502 -0.00000000000E+00 -0.00000000000E+00 -0.78684774977E+03  0.78684774977E+03  0.00000000000E+00 0. -1.
      99926    2    1    2    0    0  0.00000000000E+00 -0.17763568394E-14 -0.72809237649E+03  0.84560312304E+03  0.43003038613E+03 0.  0.
      99925    2    3    3    0    0 -0.49824326131E+02 -0.15071900055E+02 -0.33084696968E+03  0.42588768732E+03  0.26307979630E+03 0.  0.
         25    1    3    3    0    0  0.49824326131E+02  0.15071900055E+02 -0.39724540681E+03  0.41971543572E+03  0.12509000000E+03 0.  0.
         25    1    4    4    0    0  0.13718001415E+02 -0.24414856386E+01 -0.13417159791E+03  0.18396649206E+03  0.12509000000E+03 0.  0.
         25    1    4    4    0    0 -0.63542327546E+02 -0.12630414416E+02 -0.19667537176E+03  0.24192119526E+03  0.12509000000E+03 0.  0.
<mgrwt>
<rscale>  2 0.43003039E+03</rscale>
<asrwt>0</asrwt>
<pdfrwt beam="1">  1       21 0.86404960E-02 0.43003039E+03</pdfrwt>
<pdfrwt beam="2">  1       21 0.11571291E+00 0.43003039E+03</pdfrwt>
<totfact> 0.55785615E+04</totfact>
</mgrwt>
</event>
<event>
 7    0  0.4709932E-002  0.4532483E+03  0.7546771E-02  0.1026758E+00
         21   -1    0    0  502  501  0.00000000000E+00  0.00000000000E+00  0.10395562522E+03  0.10395562522E+03  0.00000000000E+00 0. -1.
         21   -1    0    0  501  502 -0.00000000000E+00 -0.00000000000E+00 -0.49404251196E+03  0.49404251196E+03  0.00000000000E+00 0. -1.
      99926    2    1    2    0    0  0.00000000000E+00  0.00000000000E+00 -0.39008688674E+03  0.59799813718E+03  0.45324826846E+03 0.  0.
      99925    2    3    3    0    0 -0.96262320715E+02 -0.23419086830E+02 -0.17821157005E+03  0.33275570856E+03  0.26296788751E+03 0.  0.
         25    1    4    4    0    0 -0.16499026776E+02  0.14891362545E+01 -0.11073888176E+03  0.16788401784E+03  0.12509000000E+03 0.  0.
         25    1    3    3    0    0  0.96262320715E+02  0.23419086830E+02 -0.21187531670E+03  0.26524242862E+03  0.12509000000E+03 0.  0.
         25    1    4    4    0    0 -0.79763293939E+02 -0.24908223085E+02 -0.67472688286E+02  0.16487169072E+03  0.12509000000E+03 0.  0.
<mgrwt>
<rscale>  2 0.45324827E+03</rscale>
<asrwt>0</asrwt>
<pdfrwt beam="1">  1       21 0.15287592E-01 0.45324827E+03</pdfrwt>
<pdfrwt beam="2">  1       21 0.72653309E-01 0.45324827E+03</pdfrwt>
<totfact> 0.59622652E+04</totfact>
</mgrwt>
</event>
<event>
 7    0  0.4709932E-002  0.4543609E+03  0.7546771E-02  0.1026429E+00
         21   -1    0    0  502  501  0.00000000000E+00  0.00000000000E+00  0.10085496119E+03  0.10085496119E+03  0.00000000000E+00 0.  1.
         21   -1    0    0  501  502 -0.00000000000E+00 -0.00000000000E+00 -0.51173453267E+03  0.51173453267E+03  0.00000000000E+00 0.  1.
      99926    2    1    2    0    0 -0.14210854715E-13  0.17763568394E-14 -0.41087957148E+03  0.61258949386E+03  0.45436094212E+03 0.  0.
      99925    2    3    3    0    0 -0.10975416656E+03  0.94387038134E+01 -0.28911836616E+03  0.40617155514E+03  0.26315553640E+03 0.  0.
         25    1    4    4    0    0 -0.11637402554E+02 -0.21968184367E+01 -0.13553414713E+03  0.18481685066E+03  0.12509000000E+03 0.  0.
         25    1    3    3    0    0  0.10975416656E+03 -0.94387038134E+01 -0.12176120531E+03  0.20641793872E+03  0.12509000000E+03 0.  0.
         25    1    4    4    0    0 -0.98116764006E+02  0.11635522250E+02 -0.15358421904E+03  0.22135470448E+03  0.12509000000E+03 0.  0.
<mgrwt>
<rscale>  2 0.45436094E+03</rscale>
<asrwt>0</asrwt>
<pdfrwt beam="1">  1       21 0.14831612E-01 0.45436094E+03</pdfrwt>
<pdfrwt beam="2">  1       21 0.75255079E-01 0.45436094E+03</pdfrwt>
<totfact> 0.58203192E+04</totfact>
</mgrwt>
</event>
<event>
 7    0  0.4709932E-002  0.4544518E+03  0.7546771E-02  0.1026403E+00
         21   -1    0    0  502  501  0.00000000000E+00  0.00000000000E+00  0.46325688530E+03  0.46325688530E+03  0.00000000000E+00 0. -1.
         21   -1    0    0  501  502 -0.00000000000E+00 -0.00000000000E+00 -0.11145349522E+03  0.11145349522E+03  0.00000000000E+00 0. -1.
      99926    2    1    2    0    0  0.00000000000E+00  0.00000000000E+00  0.35180339008E+03  0.57471038051E+03  0.45445175343E+03 0.  0.
      99925    2    3    3    0    0  0.19339925193E+02 -0.96216551341E+02  0.15126734849E+03  0.31879267980E+03  0.26289789752E+03 0.  0.
         25    1    4    4    0    0  0.18022902729E+02 -0.67982514231E+02  0.11931629848E+03  0.18662886821E+03  0.12509000000E+03 0.  0.
         25    1    4    4    0    0  0.13170224637E+01 -0.28234037110E+02  0.31951050001E+02  0.13216381160E+03  0.12509000000E+03 0.  0.
         25    1    3    3    0    0 -0.19339925193E+02  0.96216551341E+02  0.20053604159E+03  0.25591770071E+03  0.12509000000E+03 0.  0.
<mgrwt>
<rscale>  2 0.45445175E+03</rscale>
<asrwt>0</asrwt>
<pdfrwt beam="1">  1       21 0.68126012E-01 0.45445175E+03</pdfrwt>
<pdfrwt beam="2">  1       21 0.16390220E-01 0.45445175E+03</pdfrwt>
<totfact> 0.60524494E+04</totfact>
</mgrwt>
</event>
<event>
 7    0  0.4709932E-002  0.4539368E+03  0.7546771E-02  0.1026555E+00
         21   -1    0    0  502  501  0.00000000000E+00  0.00000000000E+00  0.49080639211E+03  0.49080639211E+03  0.00000000000E+00 0. -1.
         21   -1    0    0  501  502 -0.00000000000E+00 -0.00000000000E+00 -0.10495921691E+03  0.10495921691E+03  0.00000000000E+00 0. -1.
      99926    2    1    2    0    0 -0.88817841970E-15  0.00000000000E+00  0.38584717520E+03  0.59576560903E+03  0.45393679988E+03 0.  0.
      99925    2    3    3    0    0  0.22634642601E+01  0.32164677001E+02  0.10198747970E+03  0.28389460277E+03  0.26297340122E+03 0.  0.
         25    1    4    4    0    0 -0.20947996117E+02  0.14012045447E+02  0.87156051816E+02  0.15452780147E+03  0.12509000000E+03 0.  0.
         25    1    3    3    0    0 -0.22634642601E+01 -0.32164677001E+02  0.28385969550E+03  0.31187100626E+03  0.12509000000E+03 0.  0.
         25    1    4    4    0    0  0.23211460377E+02  0.18152631553E+02  0.14831427887E+02  0.12936680130E+03  0.12509000000E+03 0.  0.
<mgrwt>
<rscale>  2 0.45393680E+03</rscale>
<asrwt>0</asrwt>
<pdfrwt beam="1">  1       21 0.72177410E-01 0.45393680E+03</pdfrwt>
<pdfrwt beam="2">  1       21 0.15435179E-01 0.45393680E+03</pdfrwt>
<totfact> 0.59437462E+04</totfact>
</mgrwt>
</event>
<event>
 7    0  0.4709932E-002  0.4587898E+03  0.7546771E-02  0.1025133E+00
         21   -1    0    0  502  501  0.00000000000E+00  0.00000000000E+00  0.67572292612E+02  0.67572292612E+02  0.00000000000E+00 0. -1.
         21   -1    0    0  501  502 -0.00000000000E+00 -0.00000000000E+00 -0.77875138301E+03  0.77875138301E+03  0.00000000000E+00 0. -1.
      99926    2    1    2    0    0  0.00000000000E+00  0.00000000000E+00 -0.71117909040E+03  0.84632367562E+03  0.45878978334E+03 0.  0.
      99925    2    3    3    0    0  0.22980473078E+02 -0.94908929989E+02 -0.32753713243E+03  0.43115567692E+03  0.26282853248E+03 0.  0.
         25    1    4    4    0    0  0.14569011584E+02 -0.10842584643E+02 -0.11808350874E+03  0.17297699522E+03  0.12509000000E+03 0.  0.
         25    1    4    4    0    0  0.84114614942E+01 -0.84066345346E+02 -0.20945362370E+03  0.25817868170E+03  0.12509000000E+03 0.  0.
         25    1    3    3    0    0 -0.22980473078E+02  0.94908929989E+02 -0.38364195796E+03  0.41516799870E+03  0.12509000000E+03 0.  0.
<mgrwt>
<rscale>  2 0.45878978E+03</rscale>
<asrwt>0</asrwt>
<pdfrwt beam="1">  1       21 0.99371013E-02 0.45878978E+03</pdfrwt>
<pdfrwt beam="2">  1       21 0.11452227E+00 0.45878978E+03</pdfrwt>
<totfact> 0.44273259E+04</totfact>
</mgrwt>
</event>
<event>
 7    0  0.4709932E-002  0.4586555E+03  0.7546771E-02  0.1025172E+00
         21   -1    0    0  502  501  0.00000000000E+00  0.00000000000E+00  0.17138144534E+03  0.17138144534E+03  0.00000000000E+00 0.  1.
         21   -1    0    0  501  502 -0.00000000000E+00 -0.00000000000E+00 -0.30686647041E+03  0.30686647041E+03  0.00000000000E+00 0.  1.
      99926    2    1    2    0    0  0.00000000000E+00  0.35527136788E-14 -0.13548502507E+03  0.47824791576E+03  0.45865551006E+03 0.  0.
      99925    2    3    3    0    0 -0.75551575966E+02 -0.20228187969E+02  0.40306756390E+01  0.27519777647E+03  0.26381878176E+03 0.  0.
         25    1    4    4    0    0 -0.21697737811E+02 -0.19640240329E+02 -0.35687804234E+02  0.13333288543E+03  0.12509000000E+03 0.  0.
         25    1    4    4    0    0 -0.53853838155E+02 -0.58794763988E+00  0.39718479873E+02  0.14186489104E+03  0.12509000000E+03 0.  0.
         25    1    3    3    0    0  0.75551575966E+02  0.20228187969E+02 -0.13951570071E+03  0.20305013929E+03  0.12509000000E+03 0.  0.
<mgrwt>
<rscale>  2 0.45865551E+03</rscale>
<asrwt>0</asrwt>
<pdfrwt beam="1">  1       21 0.25203154E-01 0.45865551E+03</pdfrwt>
<pdfrwt beam="2">  1       21 0.45127421E-01 0.45865551E+03</pdfrwt>
<totfact> 0.64923814E+04</totfact>
</mgrwt>
</event>
<event>
 7    0  0.4709932E-002  0.4582900E+03  0.7546771E-02  0.1025278E+00
         21   -1    0    0  502  501  0.00000000000E+00  0.00000000000E+00  0.14132896029E+03  0.14132896029E+03  0.00000000000E+00 0.  1.
         21   -1    0    0  501  502 -0.00000000000E+00 -0.00000000000E+00 -0.37152634680E+03  0.37152634680E+03  0.00000000000E+00 0.  1.
      99926    2    1    2    0    0  0.00000000000E+00  0.00000000000E+00 -0.23019738652E+03  0.51285530709E+03  0.45829000562E+03 0.  0.
      99925    2    3    3    0    0 -0.16977167179E+02  0.44324543736E+02 -0.26322614653E+03  0.37504639420E+03  0.26290474360E+03 0.  0.
         25    1    4    4    0    0  0.88109704144E+01  0.53717710908E+02 -0.10926363976E+03  0.17478351392E+03  0.12509000000E+03 0.  0.
         25    1    4    4    0    0 -0.25788137593E+02 -0.93931671727E+01 -0.15396250676E+03  0.20026288028E+03  0.12509000000E+03 0.  0.
         25    1    3    3    0    0  0.16977167179E+02 -0.44324543736E+02  0.33028760008E+02  0.13780891288E+03  0.12509000000E+03 0.  0.
<mgrwt>
<rscale>  2 0.45829001E+03</rscale>
<asrwt>0</asrwt>
<pdfrwt beam="1">  1       21 0.20783671E-01 0.45829001E+03</pdfrwt>
<pdfrwt beam="2">  1       21 0.54636227E-01 0.45829001E+03</pdfrwt>
<totfact> 0.62722902E+04</totfact>
</mgrwt>
</event>
<event>
 7    0  0.4709932E-002  0.4535115E+03  0.7546771E-02  0.1026680E+00
         21   -1    0    0  502  501  0.00000000000E+00  0.00000000000E+00  0.14978273342E+03  0.14978273342E+03  0.00000000000E+00 0. -1.
         21   -1    0    0  501  502 -0.00000000000E+00 -0.00000000000E+00 -0.34328498665E+03  0.34328498665E+03  0.00000000000E+00 0. -1.
      99926    2    1    2    0    0  0.00000000000E+00  0.00000000000E+00 -0.19350225323E+03  0.49306772007E+03  0.45351147127E+03 0.  0.
      99925    2    3    3    0    0  0.23434351061E+02  0.10906200932E+03 -0.11343804100E+03  0.30732198832E+03  0.26293521003E+03 0.  0.
         25    1    4    4    0    0 -0.87790255728E+01  0.53469462000E+02 -0.93462715197E+02  0.16528412473E+03  0.12509000000E+03 0.  0.
         25    1    4    4    0    0  0.32213376634E+02  0.55592547316E+02 -0.19975325807E+02  0.14203786359E+03  0.12509000000E+03 0.  0.
         25    1    3    3    0    0 -0.23434351061E+02 -0.10906200932E+03 -0.80064212223E+02  0.18574573175E+03  0.12509000000E+03 0.  0.
<mgrwt>
<rscale>  2 0.45351147E+03</rscale>
<asrwt>0</asrwt>
<pdfrwt beam="1">  1       21 0.22026873E-01 0.45351147E+03</pdfrwt>
<pdfrwt beam="2">  1       21 0.50483086E-01 0.45351147E+03</pdfrwt>
<totfact> 0.66543327E+04</totfact>
</mgrwt>
</event>
<event>
 7    0  0.4709932E-002  0.4516706E+03  0.7546771E-02  0.1027225E+00
         21   -1    0    0  502  501  0.00000000000E+00  0.00000000000E+00  0.15149493469E+04  0.15149493469E+04  0.00000000000E+00 0. -1.
         21   -1    0    0  501  502 -0.00000000000E+00 -0.00000000000E+00 -0.33665537440E+02  0.33665537440E+02  0.00000000000E+00 0. -1.
      99926    2    1    2    0    0  0.00000000000E+00 -0.71054273576E-14  0.14812838094E+04  0.15486148843E+04  0.45167060545E+03 0.  0.
      99925    2    3    3    0    0 -0.88802278415E+02 -0.43580023092E+02  0.76963547689E+03  0.81931664602E+03  0.26297516251E+03 0.  0.
         25    1    4    4    0    0 -0.28923958949E+02 -0.21369872542E+02  0.48137055078E+03  0.49865657733E+03  0.12509000000E+03 0.  0.
         25    1    3    3    0    0  0.88802278415E+02  0.43580023092E+02  0.71164833256E+03  0.72929823831E+03  0.12509000000E+03 0.  0.
         25    1    4    4    0    0 -0.59878319466E+02 -0.22210150551E+02  0.28826492610E+03  0.32066006869E+03  0.12509000000E+03 0.  0.
<mgrwt>
<rscale>  2 0.45167061E+03</rscale>
<asrwt>0</asrwt>
<pdfrwt beam="1">  1       21 0.22278662E+00 0.45167061E+03</pdfrwt>
<pdfrwt beam="2">  1       21 0.49508153E-02 0.45167061E+03</pdfrwt>
<totfact> 0.23206731E+04</totfact>
</mgrwt>
</event>
<event>
 7    0  0.4709932E-002  0.4560659E+03  0.7546771E-02  0.1025928E+00
         21   -1    0    0  502  501  0.00000000000E+00  0.00000000000E+00  0.21048118349E+03  0.21048118349E+03  0.00000000000E+00 0. -1.
         21   -1    0    0  501  502 -0.00000000000E+00 -0.00000000000E+00 -0.24704829133E+03  0.24704829133E+03  0.00000000000E+00 0. -1.
      99926    2    1    2    0    0 -0.71054273576E-14  0.00000000000E+00 -0.36567107834E+02  0.45752947482E+03  0.45606585813E+03 0.  0.
      99925    2    3    3    0    0 -0.49215775211E+02  0.10160047689E+03 -0.40002437300E+02  0.28899414018E+03  0.26300678439E+03 0.  0.
         25    1    3    3    0    0  0.49215775211E+02 -0.10160047689E+03  0.34353294660E+01  0.16853533464E+03  0.12509000000E+03 0.  0.
         25    1    4    4    0    0 -0.30170824839E+02  0.92003951865E+02 -0.34942392430E+02  0.16199840962E+03  0.12509000000E+03 0.  0.
         25    1    4    4    0    0 -0.19044950372E+02  0.95965250203E+01 -0.50600448705E+01  0.12699573056E+03  0.12509000000E+03 0.  0.
<mgrwt>
<rscale>  2 0.45606586E+03</rscale>
<asrwt>0</asrwt>
<pdfrwt beam="1">  1       21 0.30953115E-01 0.45606586E+03</pdfrwt>
<pdfrwt beam="2">  1       21 0.36330631E-01 0.45606586E+03</pdfrwt>
<totfact> 0.67782642E+04</totfact>
</mgrwt>
</event>
<event>
 7    0  0.4709932E-002  0.4530863E+03  0.7546771E-02  0.1026806E+00
         21   -1    0    0  502  501  0.00000000000E+00  0.00000000000E+00  0.91144401779E+03  0.91144401779E+03  0.00000000000E+00 0.  1.
         21   -1    0    0  501  502 -0.00000000000E+00 -0.00000000000E+00 -0.56308217360E+02  0.56308217360E+02  0.00000000000E+00 0.  1.
      99926    2    1    2    0    0 -0.17763568394E-14  0.00000000000E+00  0.85513580043E+03  0.96775223515E+03  0.45308625168E+03 0.  0.
      99925    2    3    3    0    0 -0.68768882146E+01  0.10133153312E+03  0.44155299381E+03  0.52389007498E+03  0.26301405500E+03 0.  0.
         25    1    4    4    0    0  0.19420556524E+02  0.15359397128E+02  0.18650370127E+03  0.22592965228E+03  0.12509000000E+03 0.  0.
         25    1    4    4    0    0 -0.26297444738E+02  0.85972135995E+02  0.25504929255E+03  0.29796042270E+03  0.12509000000E+03 0.  0.
         25    1    3    3    0    0  0.68768882146E+01 -0.10133153312E+03  0.41358280662E+03  0.44386216017E+03  0.12509000000E+03 0.  0.
<mgrwt>
<rscale>  2 0.45308625E+03</rscale>
<asrwt>0</asrwt>
<pdfrwt beam="1">  1       21 0.13403588E+00 0.45308625E+03</pdfrwt>
<pdfrwt beam="2">  1       21 0.82806207E-02 0.45308625E+03</pdfrwt>
<totfact> 0.41040849E+04</totfact>
</mgrwt>
</event>
<event>
 7    0  0.4709932E-002  0.4394989E+03  0.7546771E-02  0.1030901E+00
         21   -1    0    0  502  501  0.00000000000E+00  0.00000000000E+00  0.17040890581E+04  0.17040890581E+04  0.00000000000E+00 0. -1.
         21   -1    0    0  501  502 -0.00000000000E+00 -0.00000000000E+00 -0.28337618322E+02  0.28337618322E+02  0.00000000000E+00 0. -1.
      99926    2    1    2    0    0  0.00000000000E+00  0.00000000000E+00  0.16757514398E+04  0.17324266764E+04  0.43949892066E+03 0.  0.
      99925    2    3    3    0    0 -0.45904308927E+02  0.58825071710E+02  0.13200485705E+04  0.13480575388E+04  0.26298917241E+03 0.  0.
         25    1    3    3    0    0  0.45904308927E+02 -0.58825071710E+02  0.35570286925E+03  0.38436913759E+03  0.12509000000E+03 0.  0.
         25    1    4    4    0    0 -0.19503606969E+02  0.54488125246E+02  0.52534139938E+03  0.54312101827E+03  0.12509000000E+03 0.  0.
         25    1    4    4    0    0 -0.26400701958E+02  0.43369464638E+01  0.79470717113E+03  0.80493652055E+03  0.12509000000E+03 0.  0.
<mgrwt>
<rscale>  2 0.43949892E+03</rscale>
<asrwt>0</asrwt>
<pdfrwt beam="1">  1       21 0.25060126E+00 0.43949892E+03</pdfrwt>
<pdfrwt beam="2">  1       21 0.41672980E-02 0.43949892E+03</pdfrwt>
<totfact> 0.21011743E+04</totfact>
</mgrwt>
</event>
<event>
 7    0  0.4709932E-002  0.4539823E+03  0.7546771E-02  0.1026541E+00
         21   -1    0    0  502  501  0.00000000000E+00  0.00000000000E+00  0.11727389001E+03  0.11727389001E+03  0.00000000000E+00 0. -1.
         21   -1    0    0  501  502 -0.00000000000E+00 -0.00000000000E+00 -0.43935601352E+03  0.43935601352E+03  0.00000000000E+00 0. -1.
      99926    2    1    2    0    0  0.00000000000E+00  0.00000000000E+00 -0.32208212351E+03  0.55662990353E+03  0.45398232920E+03 0.  0.
      99925    2    3    3    0    0 -0.99289050562E+02 -0.26885618056E+02 -0.25776001811E+03  0.38237149380E+03  0.26303342053E+03 0.  0.
         25    1    4    4    0    0 -0.34871926140E+02  0.11269098110E+02 -0.16209054492E+03  0.20799975158E+03  0.12509000000E+03 0.  0.
         25    1    3    3    0    0  0.99289050562E+02  0.26885618056E+02 -0.64322105402E+02  0.17425840973E+03  0.12509000000E+03 0.  0.
         25    1    4    4    0    0 -0.64417124422E+02 -0.38154716166E+02 -0.95669473182E+02  0.17437174222E+03  0.12509000000E+03 0.  0.
<mgrwt>
<rscale>  2 0.45398233E+03</rscale>
<asrwt>0</asrwt>
<pdfrwt beam="1">  1       21 0.17246160E-01 0.45398233E+03</pdfrwt>
<pdfrwt beam="2">  1       21 0.64611178E-01 0.45398233E+03</pdfrwt>
<totfact> 0.61927551E+04</totfact>
</mgrwt>
</event>
<event>
 6    0  0.5546114E-002  0.4275616E+03  0.7546771E-02  0.1034633E+00
         21   -1    0    0  502  501  0.00000000000E+00  0.00000000000E+00  0.12093028650E+03  0.12093028650E+03  0.00000000000E+00 0. -1.
         21   -1    0    0  501  502 -0.00000000000E+00 -0.00000000000E+00 -0.37792207313E+03  0.37792207313E+03  0.00000000000E+00 0. -1.
      99926    2    1    2    0    0 -0.71054273576E-14  0.00000000000E+00 -0.25699178663E+03  0.49885235963E+03  0.42756157254E+03 0.  0.
         25    1    3    3    0    0 -0.37630847504E+02 -0.56875716404E+02 -0.13862362997E+03  0.19878366805E+03  0.12509000000E+03 0.  0.
         25    1    3    3    0    0 -0.83787316259E+01  0.48026958592E+02 -0.94992135295E+02  0.16446217122E+03  0.12509000000E+03 0.  0.
         25    1    3    3    0    0  0.46009579130E+02  0.88487578115E+01 -0.23376021371E+02  0.13560652035E+03  0.12509000000E+03 0.  0.
<mgrwt>
<rscale>  2 0.42756157E+03</rscale>
<asrwt>0</asrwt>
<pdfrwt beam="1">  1       21 0.17783866E-01 0.42756157E+03</pdfrwt>
<pdfrwt beam="2">  1       21 0.55576776E-01 0.42756157E+03</pdfrwt>
<totfact> 0.81746617E+04</totfact>
</mgrwt>
</event>
<event>
 7    0  0.4709932E-002  0.4626147E+03  0.7546771E-02  0.1024026E+00
         21   -1    0    0  502  501  0.00000000000E+00  0.00000000000E+00  0.10525405494E+04  0.10525405494E+04  0.00000000000E+00 0. -1.
         21   -1    0    0  501  502 -0.00000000000E+00 -0.00000000000E+00 -0.50832330711E+02  0.50832330711E+02  0.00000000000E+00 0. -1.
      99926    2    1    2    0    0  0.00000000000E+00 -0.71054273576E-14  0.10017082187E+04  0.11033728801E+04  0.46261469624E+03 0.  0.
      99925    2    3    3    0    0 -0.49946750451E+02  0.45581769043E+02  0.86309497207E+03  0.90479414059E+03  0.26295841970E+03 0.  0.
         25    1    3    3    0    0  0.49946750451E+02 -0.45581769043E+02  0.13861324662E+03  0.19857873952E+03  0.12509000000E+03 0.  0.
         25    1    4    4    0    0 -0.47286332728E+02  0.23061476206E+02  0.33131261460E+03  0.35802707389E+03  0.12509000000E+03 0.  0.
         25    1    4    4    0    0 -0.26604177226E+01  0.22520292837E+02  0.53178235747E+03  0.54676706670E+03  0.12509000000E+03 0.  0.
<mgrwt>
<rscale>  2 0.46261470E+03</rscale>
<asrwt>0</asrwt>
<pdfrwt beam="1">  1       21 0.15478536E+00 0.46261470E+03</pdfrwt>
<pdfrwt beam="2">  1       21 0.74753434E-02 0.46261470E+03</pdfrwt>
<totfact> 0.33351856E+04</totfact>
</mgrwt>
</event>
<event>
 7    0  0.4709932E-002  0.4545890E+03  0.7546771E-02  0.1026362E+00
         21   -1    0    0  502  501  0.00000000000E+00  0.00000000000E+00  0.55745797695E+03  0.55745797695E+03  0.00000000000E+00 0.  1.
         21   -1    0    0  501  502 -0.00000000000E+00 -0.00000000000E+00 -0.92675665073E+02  0.92675665073E+02  0.00000000000E+00 0.  1.
      99926    2    1    2    0    0  0.00000000000E+00  0.00000000000E+00  0.46478231188E+03  0.65013364202E+03  0.45458899575E+03 0.  0.
      99925    2    3    3    0    0 -0.19979505225E+02  0.55232296312E+02  0.43002276002E+03  0.50763619738E+03  0.26329669115E+03 0.  0.
         25    1    4    4    0    0 -0.50101249134E+00  0.28415181231E+02  0.28926636654E+03  0.31643358300E+03  0.12509000000E+03 0.  0.
         25    1    4    4    0    0 -0.19478492733E+02  0.26817115080E+02  0.14075639348E+03  0.19120261438E+03  0.12509000000E+03 0.  0.
         25    1    3    3    0    0  0.19979505225E+02 -0.55232296312E+02  0.34759551858E+02  0.14249744464E+03  0.12509000000E+03 0.  0.
<mgrwt>
<rscale>  2 0.45458900E+03</rscale>
<asrwt>0</asrwt>
<pdfrwt beam="1">  1       21 0.81979113E-01 0.45458900E+03</pdfrwt>
<pdfrwt beam="2">  1       21 0.13628775E-01 0.45458900E+03</pdfrwt>
<totfact> 0.55874739E+04</totfact>
</mgrwt>
</event>
<event>
 7    0  0.4709932E-002  0.4569233E+03  0.7546771E-02  0.1025677E+00
         21   -1    0    0  502  501  0.00000000000E+00  0.00000000000E+00  0.78865694467E+02  0.78865694467E+02  0.00000000000E+00 0.  1.
         21   -1    0    0  501  502 -0.00000000000E+00 -0.00000000000E+00 -0.66181786229E+03  0.66181786229E+03  0.00000000000E+00 0.  1.
      99926    2    1    2    0    0  0.00000000000E+00  0.00000000000E+00 -0.58295216783E+03  0.74068355676E+03  0.45692329912E+03 0.  0.
      99925    2    3    3    0    0  0.33414502853E+02  0.32894143368E+02 -0.19608603562E+03  0.33140191044E+03  0.26301889515E+03 0.  0.
         25    1    4    4    0    0  0.21695849912E+02  0.16389141552E+02 -0.14846415894E+03  0.19603170267E+03  0.12509000000E+03 0.  0.
         25    1    3    3    0    0 -0.33414502853E+02 -0.32894143368E+02 -0.38686613220E+03  0.40928164632E+03  0.12509000000E+03 0.  0.
         25    1    4    4    0    0  0.11718652941E+02  0.16505001815E+02 -0.47621876687E+02  0.13537020777E+03  0.12509000000E+03 0.  0.
<mgrwt>
<rscale>  2 0.45692330E+03</rscale>
<asrwt>0</asrwt>
<pdfrwt beam="1">  1       21 0.11597896E-01 0.45692330E+03</pdfrwt>
<pdfrwt beam="2">  1       21 0.97326156E-01 0.45692330E+03</pdfrwt>
<totfact> 0.49989020E+04</totfact>
</mgrwt>
</event>
<event>
 7    0  0.4709932E-002  0.4423897E+03  0.7546771E-02  0.1030016E+00
         21   -1    0    0  502  501  0.00000000000E+00  0.00000000000E+00  0.89754822549E+03  0.89754822549E+03  0.00000000000E+00 0.  1.
         21   -1    0    0  501  502 -0.00000000000E+00 -0.00000000000E+00 -0.54512007415E+02  0.54512007415E+02  0.00000000000E+00 0.  1.
      99926    2    1    2    0    0  0.00000000000E+00  0.71054273576E-14  0.84303621808E+03  0.95206023291E+03  0.44238967223E+03 0.  0.
      99925    2    3    3    0    0  0.86043591242E+02 -0.52268956866E+02  0.55113724996E+03  0.61891152867E+03  0.26298986403E+03 0.  0.
         25    1    3    3    0    0 -0.86043591242E+02  0.52268956866E+02  0.29189896812E+03  0.33314870424E+03  0.12509000000E+03 0.  0.
         25    1    4    4    0    0  0.26201634907E+02  0.12765218365E+02  0.25080687719E+03  0.28178196219E+03  0.12509000000E+03 0.  0.
         25    1    4    4    0    0  0.59841956335E+02 -0.65034175231E+02  0.30033037277E+03  0.33712956648E+03  0.12509000000E+03 0.  0.
<mgrwt>
<rscale>  2 0.44238967E+03</rscale>
<asrwt>0</asrwt>
<pdfrwt beam="1">  1       21 0.13199238E+00 0.44238967E+03</pdfrwt>
<pdfrwt beam="2">  1       21 0.80164722E-02 0.44238967E+03</pdfrwt>
<totfact> 0.45368632E+04</totfact>
</mgrwt>
</event>
<event>
 7    0  0.4709932E-002  0.4551510E+03  0.7546771E-02  0.1026197E+00
         21   -1    0    0  502  501  0.00000000000E+00  0.00000000000E+00  0.91013971728E+02  0.91013971728E+02  0.00000000000E+00 0. -1.
         21   -1    0    0  501  502 -0.00000000000E+00 -0.00000000000E+00 -0.56904018888E+03  0.56904018888E+03  0.00000000000E+00 0. -1.
      99926    2    1    2    0    0  0.00000000000E+00 -0.71054273576E-14 -0.47802621715E+03  0.66005416060E+03  0.45515099764E+03 0.  0.
      99925    2    3    3    0    0  0.23914100232E+02  0.57576088954E+02 -0.43789681439E+03  0.51464175647E+03  0.26308863002E+03 0.  0.
         25    1    4    4    0    0  0.51911392961E+02  0.21014025430E+02 -0.21861655453E+03  0.25802536310E+03  0.12509000000E+03 0.  0.
         25    1    3    3    0    0 -0.23914100232E+02 -0.57576088954E+02 -0.40129402762E+02  0.14541240413E+03  0.12509000000E+03 0.  0.
         25    1    4    4    0    0 -0.27997292729E+02  0.36562063524E+02 -0.21928025985E+03  0.25661639338E+03  0.12509000000E+03 0.  0.
<mgrwt>
<rscale>  2 0.45515100E+03</rscale>
<asrwt>0</asrwt>
<pdfrwt beam="1">  1       21 0.13384407E-01 0.45515100E+03</pdfrwt>
<pdfrwt beam="2">  1       21 0.83682382E-01 0.45515100E+03</pdfrwt>
<totfact> 0.55059939E+04</totfact>
</mgrwt>
</event>
<event>
 7    0  0.4709932E-002  0.4521963E+03  0.7546771E-02  0.1027069E+00
         21   -1    0    0  502  501  0.00000000000E+00  0.00000000000E+00  0.54131526153E+02  0.54131526153E+02  0.00000000000E+00 0.  1.
         21   -1    0    0  501  502 -0.00000000000E+00 -0.00000000000E+00 -0.94437331174E+03  0.94437331174E+03  0.00000000000E+00 0.  1.
      99926    2    1    2    0    0  0.00000000000E+00  0.00000000000E+00 -0.89024178559E+03  0.99850483789E+03  0.45219627872E+03 0.  0.
      99925    2    3    3    0    0 -0.35751225861E+02 -0.34107342949E+02 -0.77955454673E+03  0.82431920720E+03  0.26335413998E+03 0.  0.
         25    1    4    4    0    0  0.26909582136E+01  0.17857443294E+02 -0.39981918458E+03  0.41931970857E+03  0.12509000000E+03 0.  0.
         25    1    4    4    0    0 -0.38442184075E+02 -0.51964786244E+02 -0.37973536215E+03  0.40499949863E+03  0.12509000000E+03 0.  0.
         25    1    3    3    0    0  0.35751225861E+02  0.34107342949E+02 -0.11068723886E+03  0.17418563069E+03  0.12509000000E+03 0.  0.
<mgrwt>
<rscale>  2 0.45219628E+03</rscale>
<asrwt>0</asrwt>
<pdfrwt beam="1">  1       21 0.79605190E-02 0.45219628E+03</pdfrwt>
<pdfrwt beam="2">  1       21 0.13887842E+00 0.45219628E+03</pdfrwt>
<totfact> 0.40095803E+04</totfact>
</mgrwt>
</event>
<event>
 7    0  0.4709932E-002  0.4557992E+03  0.7546771E-02  0.1026007E+00
         21   -1    0    0  502  501  0.00000000000E+00  0.00000000000E+00  0.46077532264E+02  0.46077532264E+02  0.00000000000E+00 0. -1.
         21   -1    0    0  501  502 -0.00000000000E+00 -0.00000000000E+00 -0.11271918910E+04  0.11271918910E+04  0.00000000000E+00 0. -1.
      99926    2    1    2    0    0  0.00000000000E+00 -0.88817841970E-15 -0.10811143588E+04  0.11732694233E+04  0.45579916949E+03 0.  0.
      99925    2    3    3    0    0 -0.91117763544E+01  0.54719428339E+01 -0.97177549003E+03  0.10067898061E+04  0.26299266913E+03 0.  0.
         25    1    4    4    0    0  0.81884829930E+01 -0.24777180990E+02 -0.37912431543E+03  0.40007963532E+03  0.12509000000E+03 0.  0.
         25    1    4    4    0    0 -0.17300259347E+02  0.30249123824E+02 -0.59265117460E+03  0.60671017078E+03  0.12509000000E+03 0.  0.
         25    1    3    3    0    0  0.91117763544E+01 -0.54719428339E+01 -0.10933886875E+03  0.16647961721E+03  0.12509000000E+03 0.  0.
<mgrwt>
<rscale>  2 0.45579917E+03</rscale>
<asrwt>0</asrwt>
<pdfrwt beam="1">  1       21 0.67761094E-02 0.45579917E+03</pdfrwt>
<pdfrwt beam="2">  1       21 0.16576347E+00 0.45579917E+03</pdfrwt>
<totfact> 0.32810101E+04</totfact>
</mgrwt>
</event>
<event>
 7    0  0.4709932E-002  0.4496831E+03  0.7546771E-02  0.1027817E+00
         21   -1    0    0  502  501  0.00000000000E+00  0.00000000000E+00  0.52848996991E+03  0.52848996991E+03  0.00000000000E+00 0. -1.
         21   -1    0    0  501  502 -0.00000000000E+00 -0.00000000000E+00 -0.95656928240E+02  0.95656928240E+02  0.00000000000E+00 0. -1.
      99926    2    1    2    0    0  0.71054273576E-14  0.22204460493E-15  0.43283304167E+03  0.62414689815E+03  0.44968312010E+03 0.  0.
      99925    2    3    3    0    0 -0.51443566209E+02  0.60370457343E+00  0.14170418037E+03  0.30313237053E+03  0.26298736541E+03 0.  0.
         25    1    4    4    0    0 -0.51145176771E+02  0.66016765957E+01  0.10887099426E+03  0.17366580760E+03  0.12509000000E+03 0.  0.
         25    1    3    3    0    0  0.51443566209E+02 -0.60370457343E+00  0.29112886129E+03  0.32101452762E+03  0.12509000000E+03 0.  0.
         25    1    4    4    0    0 -0.29838943773E+00 -0.59979720223E+01  0.32833186118E+02  0.12946656292E+03  0.12509000000E+03 0.  0.
<mgrwt>
<rscale>  2 0.44968312E+03</rscale>
<asrwt>0</asrwt>
<pdfrwt beam="1">  1       21 0.77719112E-01 0.44968312E+03</pdfrwt>
<pdfrwt beam="2">  1       21 0.14067196E-01 0.44968312E+03</pdfrwt>
<totfact> 0.59682204E+04</totfact>
</mgrwt>
</event>
<event>
 7    0  0.4709932E-002  0.4563198E+03  0.7546771E-02  0.1025854E+00
         21   -1    0    0  502  501  0.00000000000E+00  0.00000000000E+00  0.21706337716E+03  0.21706337716E+03  0.00000000000E+00 0. -1.
         21   -1    0    0  501  502 -0.00000000000E+00 -0.00000000000E+00 -0.23982363930E+03  0.23982363930E+03  0.00000000000E+00 0. -1.
      99926    2    1    2    0    0 -0.14210854715E-13 -0.35527136788E-14 -0.22760262141E+02  0.45688701646E+03  0.45631975223E+03 0.  0.
      99925    2    3    3    0    0  0.10709303056E+03  0.17249452140E+02  0.22455630353E+02  0.28525238759E+03  0.26286538094E+03 0.  0.
         25    1    3    3    0    0 -0.10709303056E+03 -0.17249452140E+02 -0.45215892494E+02  0.17163462887E+03  0.12509000000E+03 0.  0.
         25    1    4    4    0    0  0.35918091548E+02  0.19968917238E+02  0.45838237110E+02  0.13941850321E+03  0.12509000000E+03 0.  0.
         25    1    4    4    0    0  0.71174939012E+02 -0.27194650978E+01 -0.23382606757E+02  0.14583388438E+03  0.12509000000E+03 0.  0.
<mgrwt>
<rscale>  2 0.45631975E+03</rscale>
<asrwt>0</asrwt>
<pdfrwt beam="1">  1       21 0.31921085E-01 0.45631975E+03</pdfrwt>
<pdfrwt beam="2">  1       21 0.35268182E-01 0.45631975E+03</pdfrwt>
<totfact> 0.67692179E+04</totfact>
</mgrwt>
</event>
<event>
 7    0  0.4709932E-002  0.4988283E+03  0.7546771E-02  0.1014085E+00
         21   -1    0    0  502  501  0.00000000000E+00  0.00000000000E+00  0.18013450206E+03  0.18013450206E+03  0.00000000000E+00 0. -1.
         21   -1    0    0  501  502 -0.00000000000E+00 -0.00000000000E+00 -0.34533878244E+03  0.34533878244E+03  0.00000000000E+00 0. -1.
      99926    2    1    2    0    0 -0.14210854715E-13  0.00000000000E+00 -0.16520428037E+03  0.52547328450E+03  0.49882834570E+03 0.  0.
      99925    2    3    3    0    0  0.12374077907E+03 -0.37984532530E+02 -0.19118017244E+02  0.29364725168E+03  0.26288515500E+03 0.  0.
         25    1    3    3    0    0 -0.12374077907E+03  0.37984532530E+02 -0.14608626313E+03  0.23182603282E+03  0.12509000000E+03 0.  0.
         25    1    4    4    0    0  0.36521807246E+02 -0.37646797886E+02 -0.35678755441E+02  0.14025550073E+03  0.12509000000E+03 0.  0.
         25    1    4    4    0    0  0.87218971825E+02 -0.33773464391E+00  0.16560738197E+02  0.15339175095E+03  0.12509000000E+03 0.  0.
<mgrwt>
<rscale>  2 0.49882835E+03</rscale>
<asrwt>0</asrwt>
<pdfrwt beam="1">  1       21 0.26490368E-01 0.49882835E+03</pdfrwt>
<pdfrwt beam="2">  1       21 0.50785115E-01 0.49882835E+03</pdfrwt>
<totfact> 0.45504017E+04</totfact>
</mgrwt>
</event>
<event>
 7    0  0.4709932E-002  0.4576300E+03  0.7546771E-02  0.1025471E+00
         21   -1    0    0  502  501  0.00000000000E+00  0.00000000000E+00  0.13707312116E+03  0.13707312116E+03  0.00000000000E+00 0. -1.
         21   -1    0    0  501  502 -0.00000000000E+00 -0.00000000000E+00 -0.38195887210E+03  0.38195887210E+03  0.00000000000E+00 0. -1.
      99926    2    1    2    0    0  0.17763568394E-14  0.00000000000E+00 -0.24488575094E+03  0.51903199326E+03  0.45762995860E+03 0.  0.
      99925    2    3    3    0    0 -0.12358560911E+02  0.11417581477E+03 -0.13951094746E+03  0.31918152913E+03  0.26310585962E+03 0.  0.
         25    1    4    4    0    0 -0.37818873340E+02  0.79161549272E+02 -0.56306631624E+02  0.16283354362E+03  0.12509000000E+03 0.  0.
         25    1    3    3    0    0  0.12358560911E+02 -0.11417581477E+03 -0.10537480348E+03  0.19985046413E+03  0.12509000000E+03 0.  0.
         25    1    4    4    0    0  0.25460312429E+02  0.35014265495E+02 -0.83204315837E+02  0.15634798550E+03  0.12509000000E+03 0.  0.
<mgrwt>
<rscale>  2 0.45762996E+03</rscale>
<asrwt>0</asrwt>
<pdfrwt beam="1">  1       21 0.20157812E-01 0.45762996E+03</pdfrwt>
<pdfrwt beam="2">  1       21 0.56170422E-01 0.45762996E+03</pdfrwt>
<totfact> 0.62635990E+04</totfact>
</mgrwt>
</event>
<event>
 7    0  0.4709932E-002  0.4557407E+03  0.7546771E-02  0.1026024E+00
         21   -1    0    0  502  501  0.00000000000E+00  0.00000000000E+00  0.11109399470E+04  0.11109399470E+04  0.00000000000E+00 0. -1.
         21   -1    0    0  501  502 -0.00000000000E+00 -0.00000000000E+00 -0.46739599076E+02  0.46739599076E+02  0.00000000000E+00 0. -1.
      99926    2    1    2    0    0  0.00000000000E+00 -0.14210854715E-13  0.10642003479E+04  0.11576795461E+04  0.45574066187E+03 0.  0.
      99925    2    3    3    0    0  0.55203145358E+02 -0.98505122464E+02  0.70672507431E+03  0.76247488295E+03  0.26297712841E+03 0.  0.
         25    1    4    4    0    0  0.99745804763E+01 -0.12267946764E+02  0.35334615776E+03  0.37516797581E+03  0.12509000000E+03 0.  0.
         25    1    3    3    0    0 -0.55203145358E+02  0.98505122464E+02  0.35747527362E+03  0.39520466313E+03  0.12509000000E+03 0.  0.
         25    1    4    4    0    0  0.45228564882E+02 -0.86237175700E+02  0.35337891655E+03  0.38730690713E+03  0.12509000000E+03 0.  0.
<mgrwt>
<rscale>  2 0.45574066E+03</rscale>
<asrwt>0</asrwt>
<pdfrwt beam="1">  1       21 0.16337350E+00 0.45574066E+03</pdfrwt>
<pdfrwt beam="2">  1       21 0.68734712E-02 0.45574066E+03</pdfrwt>
<totfact> 0.33334175E+04</totfact>
</mgrwt>
</event>
<event>
 7    0  0.4709932E-002  0.4578981E+03  0.7546771E-02  0.1025393E+00
         21   -1    0    0  502  501  0.00000000000E+00  0.00000000000E+00  0.12333311509E+03  0.12333311509E+03  0.00000000000E+00 0.  1.
         21   -1    0    0  501  502 -0.00000000000E+00 -0.00000000000E+00 -0.42500883917E+03  0.42500883917E+03  0.00000000000E+00 0.  1.
      99926    2    1    2    0    0 -0.71054273576E-14 -0.71054273576E-14 -0.30167572408E+03  0.54834195426E+03  0.45789808505E+03 0.  0.
      99925    2    3    3    0    0 -0.59395381156E+02 -0.62895168646E+02 -0.97170351350E+02  0.29348205329E+03  0.26307038009E+03 0.  0.
         25    1    3    3    0    0  0.59395381156E+02  0.62895168646E+02 -0.20450537273E+03  0.25485990096E+03  0.12509000000E+03 0.  0.
         25    1    4    4    0    0 -0.58523563940E+02 -0.16872635637E+02 -0.23228545650E+02  0.14105589957E+03  0.12509000000E+03 0.  0.
         25    1    4    4    0    0 -0.87181721643E+00 -0.46022533009E+02 -0.73941805699E+02  0.15242615373E+03  0.12509000000E+03 0.  0.
<mgrwt>
<rscale>  2 0.45789809E+03</rscale>
<asrwt>0</asrwt>
<pdfrwt beam="1">  1       21 0.18137223E-01 0.45789809E+03</pdfrwt>
<pdfrwt beam="2">  1       21 0.62501299E-01 0.45789809E+03</pdfrwt>
<totfact> 0.60575195E+04</totfact>
</mgrwt>
</event>
<event>
 7    0  0.4709932E-002  0.4592559E+03  0.7546771E-02  0.1024997E+00
         21   -1    0    0  502  501  0.00000000000E+00  0.00000000000E+00  0.70840067458E+03  0.70840067458E+03  0.00000000000E+00 0. -1.
         21   -1    0    0  501  502 -0.00000000000E+00 -0.00000000000E+00 -0.74433844224E+02  0.74433844224E+02  0.00000000000E+00 0. -1.
      99926    2    1    2    0    0 -0.71054273576E-14 -0.17763568394E-14  0.63396683035E+03  0.78283451880E+03  0.45925585662E+03 0.  0.
      99925    2    3    3    0    0 -0.34250513016E+02  0.12190246315E+02  0.20767836926E+03  0.33708676513E+03  0.26301232370E+03 0.  0.
         25    1    4    4    0    0 -0.29488444297E+02  0.41389975280E+02  0.85956868804E+02  0.16005870734E+03  0.12509000000E+03 0.  0.
         25    1    3    3    0    0  0.34250513016E+02 -0.12190246315E+02  0.42628846109E+03  0.44574775367E+03  0.12509000000E+03 0.  0.
         25    1    4    4    0    0 -0.47620687191E+01 -0.29199728965E+02  0.12172150046E+03  0.17702805779E+03  0.12509000000E+03 0.  0.
<mgrwt>
<rscale>  2 0.45925586E+03</rscale>
<asrwt>0</asrwt>
<pdfrwt beam="1">  1       21 0.10417657E+00 0.45925586E+03</pdfrwt>
<pdfrwt beam="2">  1       21 0.10946154E-01 0.45925586E+03</pdfrwt>
<totfact> 0.47016029E+04</totfact>
</mgrwt>
</event>
<event>
 7    0  0.4709932E-002  0.4549603E+03  0.7546771E-02  0.1026253E+00
         21   -1    0    0  502  501  0.00000000000E+00  0.00000000000E+00  0.62736708119E+02  0.62736708119E+02  0.00000000000E+00 0.  1.
         21   -1    0    0  501  502 -0.00000000000E+00 -0.00000000000E+00 -0.82483148239E+03  0.82483148239E+03  0.00000000000E+00 0.  1.
      99926    2    1    2    0    0  0.35527136788E-14  0.00000000000E+00 -0.76209477428E+03  0.88756819051E+03  0.45496027061E+03 0.  0.
      99925    2    3    3    0    0 -0.23622126560E+02 -0.10852542747E+03 -0.43789327943E+03  0.52275331879E+03  0.26302991249E+03 0.  0.
         25    1    3    3    0    0  0.23622126560E+02  0.10852542747E+03 -0.32420149484E+03  0.36481487172E+03  0.12509000000E+03 0.  0.
         25    1    4    4    0    0  0.20375995061E+02 -0.43128191912E+02 -0.16597402127E+03  0.21323720583E+03  0.12509000000E+03 0.  0.
         25    1    4    4    0    0 -0.43998121621E+02 -0.65397235561E+02 -0.27191925816E+03  0.30951611297E+03  0.12509000000E+03 0.  0.
<mgrwt>
<rscale>  2 0.45496027E+03</rscale>
<asrwt>0</asrwt>
<pdfrwt beam="1">  1       21 0.92259866E-02 0.45496027E+03</pdfrwt>
<pdfrwt beam="2">  1       21 0.12129875E+00 0.45496027E+03</pdfrwt>
<totfact> 0.43789192E+04</totfact>
</mgrwt>
</event>
<event>
 7    0  0.4709932E-002  0.4604289E+03  0.7546771E-02  0.1024657E+00
         21   -1    0    0  502  501  0.00000000000E+00  0.00000000000E+00  0.57789224616E+02  0.57789224616E+02  0.00000000000E+00 0.  1.
         21   -1    0    0  501  502 -0.00000000000E+00 -0.00000000000E+00 -0.91710333416E+03  0.91710333416E+03  0.00000000000E+00 0.  1.
      99926    2    1    2    0    0  0.00000000000E+00  0.35527136788E-14 -0.85931410955E+03  0.97489255878E+03  0.46042888951E+03 0.  0.
      99925    2    3    3    0    0  0.11408425418E+03  0.29848238264E+02 -0.52098052433E+03  0.59538859653E+03  0.26298429566E+03 0.  0.
         25    1    4    4    0    0  0.90940159438E+02 -0.93281532808E+01 -0.27000567772E+03  0.31130001790E+03  0.12509000000E+03 0.  0.
         25    1    4    4    0    0  0.23144094743E+02  0.39176391545E+02 -0.25097484661E+03  0.28408857863E+03  0.12509000000E+03 0.  0.
         25    1    3    3    0    0 -0.11408425418E+03 -0.29848238264E+02 -0.33833358521E+03  0.37950396225E+03  0.12509000000E+03 0.  0.
<mgrwt>
<rscale>  2 0.46042889E+03</rscale>
<asrwt>0</asrwt>
<pdfrwt beam="1">  1       21 0.84984148E-02 0.46042889E+03</pdfrwt>
<pdfrwt beam="2">  1       21 0.13486815E+00 0.46042889E+03</pdfrwt>
<totfact> 0.38489239E+04</totfact>
</mgrwt>
</event>
<event>
 7    0  0.4709932E-002  0.4406807E+03  0.7546771E-02  0.1030538E+00
         21   -1    0    0  502  501  0.00000000000E+00  0.00000000000E+00  0.26710782314E+04  0.26710782314E+04  0.00000000000E+00 0. -1.
         21   -1    0    0  501  502 -0.00000000000E+00 -0.00000000000E+00 -0.18176130383E+02  0.18176130383E+02  0.00000000000E+00 0. -1.
      99926    2    1    2    0    0  0.71054273576E-14  0.00000000000E+00  0.26529021010E+04  0.26892543618E+04  0.44068068348E+03 0.  0.
      99925    2    3    3    0    0  0.54830638013E+02  0.50989206637E+02  0.12957045167E+04  0.13242492010E+04  0.26301987307E+03 0.  0.
         25    1    4    4    0    0  0.60241135128E+02  0.51205742128E+02  0.73166279036E+03  0.74647770850E+03  0.12509000000E+03 0.  0.
         25    1    3    3    0    0 -0.54830638013E+02 -0.50989206637E+02  0.13571975843E+04  0.13650051608E+04  0.12509000000E+03 0.  0.
         25    1    4    4    0    0 -0.54104971154E+01 -0.21653549092E+00  0.56404172638E+03  0.57777149251E+03  0.12509000000E+03 0.  0.
<mgrwt>
<rscale>  2 0.44068068E+03</rscale>
<asrwt>0</asrwt>
<pdfrwt beam="1">  1       21 0.39280535E+00 0.44068068E+03</pdfrwt>
<pdfrwt beam="2">  1       21 0.26729622E-02 0.44068068E+03</pdfrwt>
<totfact> 0.60265025E+03</totfact>
</mgrwt>
</event>
<event>
 7    0  0.4709932E-002  0.4511112E+03  0.7546771E-02  0.1027391E+00
         21   -1    0    0  502  501  0.00000000000E+00  0.00000000000E+00  0.37797388415E+03  0.37797388415E+03  0.00000000000E+00 0.  1.
         21   -1    0    0  501  502 -0.00000000000E+00 -0.00000000000E+00 -0.13460009760E+03  0.13460009760E+03  0.00000000000E+00 0.  1.
      99926    2    1    2    0    0  0.00000000000E+00 -0.14210854715E-13  0.24337378655E+03  0.51257398175E+03  0.45111116899E+03 0.  0.
      99925    2    3    3    0    0 -0.78668446683E+02 -0.75419755076E+02  0.14912894781E+03  0.32176920799E+03  0.26347507696E+03 0.  0.
         25    1    4    4    0    0 -0.52886386289E+02 -0.92403925084E+00  0.55221467846E+02  0.14661085333E+03  0.12509000000E+03 0.  0.
         25    1    3    3    0    0  0.78668446683E+02  0.75419755076E+02  0.94244838742E+02  0.19080477376E+03  0.12509000000E+03 0.  0.
         25    1    4    4    0    0 -0.25782060394E+02 -0.74495715825E+02  0.93907479962E+02  0.17515835466E+03  0.12509000000E+03 0.  0.
<mgrwt>
<rscale>  2 0.45111117E+03</rscale>
<asrwt>0</asrwt>
<pdfrwt beam="1">  1       21 0.55584394E-01 0.45111117E+03</pdfrwt>
<pdfrwt beam="2">  1       21 0.19794132E-01 0.45111117E+03</pdfrwt>
<totfact> 0.66422161E+04</totfact>
</mgrwt>
</event>
<event>
 7    0  0.4709932E-002  0.4535458E+03  0.7546771E-02  0.1026670E+00
         21   -1    0    0  502  501  0.00000000000E+00  0.00000000000E+00  0.96471356088E+02  0.96471356088E+02  0.00000000000E+00 0. -1.
         21   -1    0    0  501  502 -0.00000000000E+00 -0.00000000000E+00 -0.53306960577E+03  0.53306960577E+03  0.00000000000E+00 0. -1.
      99926    2    1    2    0    0  0.00000000000E+00  0.00000000000E+00 -0.43659824968E+03  0.62954096186E+03  0.45354579816E+03 0.  0.
      99925    2    3    3    0    0 -0.88511190423E+02 -0.59263549773E+02 -0.32197238877E+03  0.42920874964E+03  0.26307324546E+03 0.  0.
         25    1    4    4    0    0 -0.21958072146E+02 -0.54319693611E+02 -0.19444153118E+03  0.23851164163E+03  0.12509000000E+03 0.  0.
         25    1    3    3    0    0  0.88511190423E+02  0.59263549773E+02 -0.11462586091E+03  0.20033221222E+03  0.12509000000E+03 0.  0.
         25    1    4    4    0    0 -0.66553118276E+02 -0.49438561616E+01 -0.12753085759E+03  0.19069710801E+03  0.12509000000E+03 0.  0.
<mgrwt>
<rscale>  2 0.45354580E+03</rscale>
<asrwt>0</asrwt>
<pdfrwt beam="1">  1       21 0.14186964E-01 0.45354580E+03</pdfrwt>
<pdfrwt beam="2">  1       21 0.78392589E-01 0.45354580E+03</pdfrwt>
<totfact> 0.57553663E+04</totfact>
</mgrwt>
</event>
<event>
 7    0  0.4709932E-002  0.4323641E+03  0.7546771E-02  0.1033116E+00
         21   -1    0    0  502  501  0.00000000000E+00  0.00000000000E+00  0.53617061361E+03  0.53617061361E+03  0.00000000000E+00 0.  1.
         21   -1    0    0  501  502 -0.00000000000E+00 -0.00000000000E+00 -0.87163808078E+02  0.87163808078E+02  0.00000000000E+00 0.  1.
      99926    2    1    2    0    0  0.22204460493E-15  0.00000000000E+00  0.44900680553E+03  0.62333442168E+03  0.43236407095E+03 0.  0.
      99925    2    3    3    0    0  0.11603420025E+01 -0.62558461814E+02  0.38270823146E+03  0.46855097114E+03  0.26298196629E+03 0.  0.
         25    1    4    4    0    0 -0.33174307157E+02 -0.52153916486E+02  0.21435958855E+03  0.25576963651E+03  0.12509000000E+03 0.  0.
         25    1    4    4    0    0  0.34334649160E+02 -0.10404545328E+02  0.16834864291E+03  0.21278133463E+03  0.12509000000E+03 0.  0.
         25    1    3    3    0    0 -0.11603420025E+01  0.62558461814E+02  0.66298574073E+02  0.15478345054E+03  0.12509000000E+03 0.  0.
<mgrwt>
<rscale>  2 0.43236407E+03</rscale>
<asrwt>0</asrwt>
<pdfrwt beam="1">  1       21 0.78848618E-01 0.43236407E+03</pdfrwt>
<pdfrwt beam="2">  1       21 0.12818207E-01 0.43236407E+03</pdfrwt>
<totfact> 0.68750258E+04</totfact>
</mgrwt>
</event>
<event>
 7    0  0.4709932E-002  0.4496649E+03  0.7546771E-02  0.1027822E+00
         21   -1    0    0  502  501  0.00000000000E+00  0.00000000000E+00  0.53619159922E+03  0.53619159922E+03  0.00000000000E+00 0. -1.
         21   -1    0    0  501  502 -0.00000000000E+00 -0.00000000000E+00 -0.94275291780E+02  0.94275291780E+02  0.00000000000E+00 0. -1.
      99926    2    1    2    0    0  0.00000000000E+00  0.28421709430E-13  0.44191630744E+03  0.63046689100E+03  0.44966485060E+03 0.  0.
      99925    2    3    3    0    0  0.11657793518E+02 -0.10578474931E+03  0.25157978761E+03  0.37906717697E+03  0.26281784144E+03 0.  0.
         25    1    3    3    0    0 -0.11657793518E+02  0.10578474931E+03  0.19033651983E+03  0.25139971404E+03  0.12509000000E+03 0.  0.
         25    1    4    4    0    0 -0.26427654993E+02 -0.39293693533E+02  0.14803747083E+03  0.19951194493E+03  0.12509000000E+03 0.  0.
         25    1    4    4    0    0  0.38085448511E+02 -0.66491055780E+02  0.10354231679E+03  0.17955523204E+03  0.12509000000E+03 0.  0.
<mgrwt>
<rscale>  2 0.44966485E+03</rscale>
<asrwt>0</asrwt>
<pdfrwt beam="1">  1       21 0.78851704E-01 0.44966485E+03</pdfrwt>
<pdfrwt beam="2">  1       21 0.13864014E-01 0.44966485E+03</pdfrwt>
<totfact> 0.59299198E+04</totfact>
</mgrwt>
</event>
<event>
 7    0  0.4709932E-002  0.4576653E+03  0.7546771E-02  0.1025461E+00
         21   -1    0    0  502  501  0.00000000000E+00  0.00000000000E+00  0.29453916962E+03  0.29453916962E+03  0.00000000000E+00 0.  1.
         21   -1    0    0  501  502 -0.00000000000E+00 -0.00000000000E+00 -0.17778412524E+03  0.17778412524E+03  0.00000000000E+00 0.  1.
      99926    2    1    2    0    0  0.35527136788E-14  0.35527136788E-14  0.11675504438E+03  0.47232329486E+03  0.45766533021E+03 0.  0.
      99925    2    3    3    0    0 -0.24262183240E+02 -0.19338214034E+02  0.18832631521E+03  0.32490357106E+03  0.26293137779E+03 0.  0.
         25    1    4    4    0    0 -0.60970792847E+01 -0.24903808463E+02  0.49180024696E+02  0.13683404906E+03  0.12509000000E+03 0.  0.
         25    1    4    4    0    0 -0.18165103955E+02  0.55655944294E+01  0.13914629051E+03  0.18806952200E+03  0.12509000000E+03 0.  0.
         25    1    3    3    0    0  0.24262183240E+02  0.19338214034E+02 -0.71571270825E+02  0.14741972380E+03  0.12509000000E+03 0.  0.
<mgrwt>
<rscale>  2 0.45766533E+03</rscale>
<asrwt>0</asrwt>
<pdfrwt beam="1">  1       21 0.43314584E-01 0.45766533E+03</pdfrwt>
<pdfrwt beam="2">  1       21 0.26144724E-01 0.45766533E+03</pdfrwt>
<totfact> 0.65859690E+04</totfact>
</mgrwt>
</event>
<event>
 7    0  0.4709932E-002  0.4222698E+03  0.7546771E-02  0.1036330E+00
         21   -1    0    0  502  501  0.00000000000E+00  0.00000000000E+00  0.11358618517E+03  0.11358618517E+03  0.00000000000E+00 0. -1.
         21   -1    0    0  501  502 -0.00000000000E+00 -0.00000000000E+00 -0.39245919042E+03  0.39245919042E+03  0.00000000000E+00 0. -1.
      99926    2    1    2    0    0  0.17763568394E-14 -0.71054273576E-14 -0.27887300525E+03  0.50604537560E+03  0.42226978238E+03 0.  0.
      99925    2    3    3    0    0  0.10561848306E+02  0.52216640779E+02 -0.25060923538E+03  0.36717680824E+03  0.26301271725E+03 0.  0.
         25    1    4    4    0    0  0.62538637858E+00 -0.13772633869E+01 -0.16118389219E+03  0.20403441661E+03  0.12509000000E+03 0.  0.
         25    1    4    4    0    0  0.99364619271E+01  0.53593904166E+02 -0.89425343191E+02  0.16314239162E+03  0.12509000000E+03 0.  0.
         25    1    3    3    0    0 -0.10561848306E+02 -0.52216640779E+02 -0.28263769873E+02  0.13886856736E+03  0.12509000000E+03 0.  0.
<mgrwt>
<rscale>  2 0.42226978E+03</rscale>
<asrwt>0</asrwt>
<pdfrwt beam="1">  1       21 0.16703851E-01 0.42226978E+03</pdfrwt>
<pdfrwt beam="2">  1       21 0.57714587E-01 0.42226978E+03</pdfrwt>
<totfact> 0.84806985E+04</totfact>
</mgrwt>
</event>
<event>
 7    0  0.4709932E-002  0.4611996E+03  0.7546771E-02  0.1024434E+00
         21   -1    0    0  502  501  0.00000000000E+00  0.00000000000E+00  0.30332308435E+03  0.30332308435E+03  0.00000000000E+00 0.  1.
         21   -1    0    0  501  502 -0.00000000000E+00 -0.00000000000E+00 -0.17531231900E+03  0.17531231900E+03  0.00000000000E+00 0.  1.
      99926    2    1    2    0    0  0.00000000000E+00  0.00000000000E+00  0.12801076535E+03  0.47863540335E+03  0.46119962413E+03 0.  0.
      99925    2    3    3    0    0  0.53786576156E+02 -0.70528365273E+02 -0.20952784399E+01  0.27753260174E+03  0.26296902623E+03 0.  0.
         25    1    4    4    0    0  0.14489166104E+02 -0.58747944962E+02  0.29716293247E+02  0.14209793509E+03  0.12509000000E+03 0.  0.
         25    1    3    3    0    0 -0.53786576156E+02  0.70528365273E+02  0.13010604379E+03  0.20110280161E+03  0.12509000000E+03 0.  0.
         25    1    4    4    0    0  0.39297410052E+02 -0.11780420311E+02 -0.31811571687E+02  0.13543466666E+03  0.12509000000E+03 0.  0.
<mgrwt>
<rscale>  2 0.46119962E+03</rscale>
<asrwt>0</asrwt>
<pdfrwt beam="1">  1       21 0.44606336E-01 0.46119962E+03</pdfrwt>
<pdfrwt beam="2">  1       21 0.25781223E-01 0.46119962E+03</pdfrwt>
<totfact> 0.63611865E+04</totfact>
</mgrwt>
</event>
<event>
 7    0  0.4709932E-002  0.4537185E+03  0.7546771E-02  0.1026619E+00
         21   -1    0    0  502  501  0.00000000000E+00  0.00000000000E+00  0.19885047145E+03  0.19885047145E+03  0.00000000000E+00 0. -1.
         21   -1    0    0  501  502 -0.00000000000E+00 -0.00000000000E+00 -0.25881316730E+03  0.25881316730E+03  0.00000000000E+00 0. -1.
      99926    2    1    2    0    0  0.00000000000E+00  0.00000000000E+00 -0.59962695846E+02  0.45766363875E+03  0.45371850452E+03 0.  0.
      99925    2    3    3    0    0  0.87959357711E+02  0.65277610118E+02 -0.14325692126E+02  0.28524479060E+03  0.26298545609E+03 0.  0.
         25    1    3    3    0    0 -0.87959357711E+02 -0.65277610118E+02 -0.45637003720E+02  0.17241884816E+03  0.12509000000E+03 0.  0.
         25    1    4    4    0    0  0.34944565099E+02  0.72534726110E+02 -0.10626213248E+02  0.14914031524E+03  0.12509000000E+03 0.  0.
         25    1    4    4    0    0  0.53014792612E+02 -0.72571159919E+01 -0.36994788776E+01  0.13610447536E+03  0.12509000000E+03 0.  0.
<mgrwt>
<rscale>  2 0.45371850E+03</rscale>
<asrwt>0</asrwt>
<pdfrwt beam="1">  1       21 0.29242717E-01 0.45371850E+03</pdfrwt>
<pdfrwt beam="2">  1       21 0.38060759E-01 0.45371850E+03</pdfrwt>
<totfact> 0.69054184E+04</totfact>
</mgrwt>
</event>
<event>
 7    0  0.4709932E-002  0.4612830E+03  0.7546771E-02  0.1024410E+00
         21   -1    0    0  502  501  0.00000000000E+00  0.00000000000E+00  0.14833553388E+03  0.14833553388E+03  0.00000000000E+00 0. -1.
         21   -1    0    0  501  502 -0.00000000000E+00 -0.00000000000E+00 -0.35861602133E+03  0.35861602133E+03  0.00000000000E+00 0. -1.
      99926    2    1    2    0    0  0.00000000000E+00  0.00000000000E+00 -0.21028048745E+03  0.50695155521E+03  0.46128298899E+03 0.  0.
      99925    2    3    3    0    0  0.88668260500E+02  0.71620941022E+02 -0.16923356138E+03  0.33281374240E+03  0.26293225215E+03 0.  0.
         25    1    4    4    0    0  0.56057611005E+02  0.46570991926E+02 -0.13214863699E+03  0.19601551826E+03  0.12509000000E+03 0.  0.
         25    1    3    3    0    0 -0.88668260500E+02 -0.71620941022E+02 -0.41046926075E+02  0.17413781282E+03  0.12509000000E+03 0.  0.
         25    1    4    4    0    0  0.32610649494E+02  0.25049949096E+02 -0.37084924392E+02  0.13679822414E+03  0.12509000000E+03 0.  0.
<mgrwt>
<rscale>  2 0.46128299E+03</rscale>
<asrwt>0</asrwt>
<pdfrwt beam="1">  1       21 0.21814049E-01 0.46128299E+03</pdfrwt>
<pdfrwt beam="2">  1       21 0.52737650E-01 0.46128299E+03</pdfrwt>
<totfact> 0.61652449E+04</totfact>
</mgrwt>
</event>
<event>
 7    0  0.4709932E-002  0.4547795E+03  0.7546771E-02  0.1026306E+00
         21   -1    0    0  502  501  0.00000000000E+00  0.00000000000E+00  0.11456663482E+03  0.11456663482E+03  0.00000000000E+00 0. -1.
         21   -1    0    0  501  502 -0.00000000000E+00 -0.00000000000E+00 -0.45131895806E+03  0.45131895806E+03  0.00000000000E+00 0. -1.
      99926    2    1    2    0    0  0.00000000000E+00  0.00000000000E+00 -0.33675232324E+03  0.56588559288E+03  0.45477948175E+03 0.  0.
      99925    2    3    3    0    0  0.99049051725E+02  0.45384182934E+02 -0.17615686826E+03  0.33499850583E+03  0.26329131767E+03 0.  0.
         25    1    3    3    0    0 -0.99049051725E+02 -0.45384182934E+02 -0.16059545498E+03  0.23088708706E+03  0.12509000000E+03 0.  0.
         25    1    4    4    0    0  0.73307119997E+02 -0.10729854725E+02 -0.86351981932E+02  0.16909534739E+03  0.12509000000E+03 0.  0.
         25    1    4    4    0    0  0.25741931727E+02  0.56114037659E+02 -0.89804886325E+02  0.16590315844E+03  0.12509000000E+03 0.  0.
<mgrwt>
<rscale>  2 0.45477948E+03</rscale>
<asrwt>0</asrwt>
<pdfrwt beam="1">  1       21 0.16848035E-01 0.45477948E+03</pdfrwt>
<pdfrwt beam="2">  1       21 0.66370434E-01 0.45477948E+03</pdfrwt>
<totfact> 0.60935027E+04</totfact>
</mgrwt>
</event>
<event>
 6    0  0.4709932E-002  0.4683850E+03  0.7546771E-02  0.1022377E+00
         21   -1    0    0  502  501  0.00000000000E+00  0.00000000000E+00  0.12963333961E+03  0.12963333961E+03  0.00000000000E+00 0. -1.
         21   -1    0    0  501  502 -0.00000000000E+00 -0.00000000000E+00 -0.42308659344E+03  0.42308659344E+03  0.00000000000E+00 0. -1.
      99926    2    1    2    0    0  0.00000000000E+00  0.00000000000E+00 -0.29345325384E+03  0.55271993305E+03  0.46838500425E+03 0.  0.
         25    1    3    3    0    0  0.40385785439E+02  0.36781663641E+02  0.45065167121E+01  0.13657129727E+03  0.12509000000E+03 0.  0.
         25    1    3    3    0    0 -0.71737822410E+02 -0.34768152004E+02 -0.22034473599E+03  0.26562087707E+03  0.12509000000E+03 0.  0.
         25    1    3    3    0    0  0.31352036971E+02 -0.20135116368E+01 -0.77615034558E+02  0.15052775871E+03  0.12509000000E+03 0.  0.
<mgrwt>
<rscale>  2 0.46838500E+03</rscale>
<asrwt>0</asrwt>
<pdfrwt beam="1">  1       21 0.19063727E-01 0.46838500E+03</pdfrwt>
<pdfrwt beam="2">  1       21 0.62218616E-01 0.46838500E+03</pdfrwt>
<totfact> 0.55563480E+04</totfact>
</mgrwt>
</event>
<event>
 7    0  0.4709932E-002  0.4535650E+03  0.7546771E-02  0.1026664E+00
         21   -1    0    0  502  501  0.00000000000E+00  0.00000000000E+00  0.21641083395E+02  0.21641083395E+02  0.00000000000E+00 0. -1.
         21   -1    0    0  501  502 -0.00000000000E+00 -0.00000000000E+00 -0.23765118590E+04  0.23765118590E+04  0.00000000000E+00 0. -1.
      99926    2    1    2    0    0  0.00000000000E+00  0.00000000000E+00 -0.23548707756E+04  0.23981529424E+04  0.45356495160E+03 0.  0.
      99925    2    3    3    0    0 -0.10104969846E+03 -0.46699369151E+02 -0.14277389289E+04  0.14560208700E+04  0.26299515589E+03 0.  0.
         25    1    4    4    0    0 -0.81967767144E+02 -0.47567329800E+00 -0.82046708606E+03  0.83398602418E+03  0.12509000000E+03 0.  0.
         25    1    4    4    0    0 -0.19081931316E+02 -0.46223695853E+02 -0.60727184286E+03  0.62203484580E+03  0.12509000000E+03 0.  0.
         25    1    3    3    0    0  0.10104969846E+03  0.46699369151E+02 -0.92713184672E+03  0.94213207245E+03  0.12509000000E+03 0.  0.
<mgrwt>
<rscale>  2 0.45356495E+03</rscale>
<asrwt>0</asrwt>
<pdfrwt beam="1">  1       21 0.31825145E-02 0.45356495E+03</pdfrwt>
<pdfrwt beam="2">  1       21 0.34948679E+00 0.45356495E+03</pdfrwt>
<totfact> 0.83231529E+03</totfact>
</mgrwt>
</event>
<event>
 7    0  0.4709932E-002  0.4768462E+03  0.7546771E-02  0.1020006E+00
         21   -1    0    0  502  501  0.00000000000E+00  0.00000000000E+00  0.41329870053E+02  0.41329870053E+02  0.00000000000E+00 0.  1.
         21   -1    0    0  501  502 -0.00000000000E+00 -0.00000000000E+00 -0.13754116875E+04  0.13754116875E+04  0.00000000000E+00 0.  1.
      99926    2    1    2    0    0  0.35527136788E-14  0.00000000000E+00 -0.13340818175E+04  0.14167415576E+04  0.47684624907E+03 0.  0.
      99925    2    3    3    0    0  0.29880435140E+02 -0.73349110939E+02 -0.51166779258E+03  0.58110690720E+03  0.26383399165E+03 0.  0.
         25    1    4    4    0    0 -0.25636188197E+02 -0.34467456929E+02 -0.22268502126E+03  0.25900066897E+03  0.12509000000E+03 0.  0.
         25    1    3    3    0    0 -0.29880435140E+02  0.73349110939E+02 -0.82241402488E+03  0.83563465037E+03  0.12509000000E+03 0.  0.
         25    1    4    4    0    0  0.55516623338E+02 -0.38881654010E+02 -0.28898277132E+03  0.32210623823E+03  0.12509000000E+03 0.  0.
<mgrwt>
<rscale>  2 0.47684625E+03</rscale>
<asrwt>0</asrwt>
<pdfrwt beam="1">  1       21 0.60779230E-02 0.47684625E+03</pdfrwt>
<pdfrwt beam="2">  1       21 0.20226639E+00 0.47684625E+03</pdfrwt>
<totfact> 0.21924482E+04</totfact>
</mgrwt>
</event>
<event>
 7    0  0.4709932E-002  0.4450536E+03  0.7546771E-02  0.1029207E+00
         21   -1    0    0  502  501  0.00000000000E+00  0.00000000000E+00  0.10365078166E+03  0.10365078166E+03  0.00000000000E+00 0. -1.
         21   -1    0    0  501  502 -0.00000000000E+00 -0.00000000000E+00 -0.47774049582E+03  0.47774049582E+03  0.00000000000E+00 0. -1.
      99926    2    1    2    0    0  0.00000000000E+00  0.00000000000E+00 -0.37408971416E+03  0.58139127748E+03  0.44505359597E+03 0.  0.
      99925    2    3    3    0    0 -0.85854855743E+01  0.36695353711E+02 -0.11042627117E+03  0.28713598217E+03  0.26236015579E+03 0.  0.
         25    1    3    3    0    0  0.85854855743E+01 -0.36695353711E+02 -0.26366344299E+03  0.29425529530E+03  0.12509000000E+03 0.  0.
         25    1    4    4    0    0  0.68240544408E+01  0.56488011447E+02 -0.54470370053E+02  0.14782419447E+03  0.12509000000E+03 0.  0.
         25    1    4    4    0    0 -0.15409540015E+02 -0.19792657736E+02 -0.55955901114E+02  0.13931178770E+03  0.12509000000E+03 0.  0.
<mgrwt>
<rscale>  2 0.44505360E+03</rscale>
<asrwt>0</asrwt>
<pdfrwt beam="1">  1       21 0.15242762E-01 0.44505360E+03</pdfrwt>
<pdfrwt beam="2">  1       21 0.70255956E-01 0.44505360E+03</pdfrwt>
<totfact> 0.64784090E+04</totfact>
</mgrwt>
</event>
<event>
 7    0  0.4709932E-002  0.4650894E+03  0.7546771E-02  0.1023315E+00
         21   -1    0    0  502  501  0.00000000000E+00  0.00000000000E+00  0.14992267305E+04  0.14992267305E+04  0.00000000000E+00 0.  1.
         21   -1    0    0  501  502 -0.00000000000E+00 -0.00000000000E+00 -0.36069960614E+02  0.36069960614E+02  0.00000000000E+00 0.  1.
      99926    2    1    2    0    0  0.14210854715E-13  0.00000000000E+00  0.14631567699E+04  0.15352966911E+04  0.46508944998E+03 0.  0.
      99925    2    3    3    0    0 -0.99456800547E+02  0.71254148893E+02  0.90736420419E+03  0.95261179077E+03  0.26304109176E+03 0.  0.
         25    1    4    4    0    0 -0.89854199570E+02  0.48267493182E+02  0.46429249674E+03  0.49154710731E+03  0.12509000000E+03 0.  0.
         25    1    3    3    0    0  0.99456800547E+02 -0.71254148893E+02  0.55579256571E+03  0.58268490036E+03  0.12509000000E+03 0.  0.
         25    1    4    4    0    0 -0.96026009776E+01  0.22986655711E+02  0.44307170745E+03  0.46106468346E+03  0.12509000000E+03 0.  0.
<mgrwt>
<rscale>  2 0.46508945E+03</rscale>
<asrwt>0</asrwt>
<pdfrwt beam="1">  1       21 0.22047448E+00 0.46508945E+03</pdfrwt>
<pdfrwt beam="2">  1       21 0.53044070E-02 0.46508945E+03</pdfrwt>
<totfact> 0.21215420E+04</totfact>
</mgrwt>
</event>
<event>
 6    0  0.4709932E-002  0.7959151E+03  0.7546771E-02  0.9565949E-01
         21   -1    0    0  502  501  0.00000000000E+00  0.00000000000E+00  0.49895005034E+03  0.49895005034E+03  0.00000000000E+00 0. -1.
         21   -1    0    0  501  502 -0.00000000000E+00 -0.00000000000E+00 -0.31740696714E+03  0.31740696714E+03  0.00000000000E+00 0. -1.
      99925    2    1    2    0    0  0.13627427184E+03 -0.67298559909E+02 -0.21642871676E+03  0.37236508625E+03  0.26213468807E+03 0.  0.
         25    1    3    3    0    0  0.59086347650E+02 -0.42848663077E+02 -0.15223043732E+03  0.21011620250E+03  0.12509000000E+03 0.  0.
         25    1    1    2    0    0 -0.13627427184E+03  0.67298559909E+02  0.39797179996E+03  0.44399193123E+03  0.12509000000E+03 0.  0.
         25    1    3    3    0    0  0.77187924194E+02 -0.24449896832E+02 -0.64198279446E+02  0.16224888376E+03  0.12509000000E+03 0.  0.
<mgrwt>
<rscale>  2 0.79591513E+03</rscale>
<asrwt>0</asrwt>
<pdfrwt beam="1">  1       21 0.73375007E-01 0.79591513E+03</pdfrwt>
<pdfrwt beam="2">  1       21 0.46677495E-01 0.79591513E+03</pdfrwt>
<totfact> 0.59914119E+03</totfact>
</mgrwt>
</event>
<event>
 7    0  0.4709932E-002  0.4600125E+03  0.7546771E-02  0.1024778E+00
         21   -1    0    0  502  501  0.00000000000E+00  0.00000000000E+00  0.13065028065E+03  0.13065028065E+03  0.00000000000E+00 0.  1.
         21   -1    0    0  501  502 -0.00000000000E+00 -0.00000000000E+00 -0.40491978016E+03  0.40491978016E+03  0.00000000000E+00 0.  1.
      99926    2    1    2    0    0  0.00000000000E+00 -0.17763568394E-14 -0.27426949952E+03  0.53557006081E+03  0.46001253425E+03 0.  0.
      99925    2    3    3    0    0  0.42753369661E+02 -0.13515611627E+02 -0.44915170975E+02  0.27050131785E+03  0.26295069499E+03 0.  0.
         25    1    4    4    0    0  0.37952116795E+02 -0.19704885542E+02 -0.58244319116E+02  0.14445952545E+03  0.12509000000E+03 0.  0.
         25    1    3    3    0    0 -0.42753369661E+02  0.13515611627E+02 -0.22935432854E+03  0.26506874296E+03  0.12509000000E+03 0.  0.
         25    1    4    4    0    0  0.48012528660E+01  0.61892739145E+01  0.13329148141E+02  0.12604179240E+03  0.12509000000E+03 0.  0.
<mgrwt>
<rscale>  2 0.46001253E+03</rscale>
<asrwt>0</asrwt>
<pdfrwt beam="1">  1       21 0.19213277E-01 0.46001253E+03</pdfrwt>
<pdfrwt beam="2">  1       21 0.59547026E-01 0.46001253E+03</pdfrwt>
<totfact> 0.60395790E+04</totfact>
</mgrwt>
</event>
<event>
 7    0  0.4709932E-002  0.4536345E+03  0.7546771E-02  0.1026644E+00
         21   -1    0    0  502  501  0.00000000000E+00  0.00000000000E+00  0.34947819033E+02  0.34947819033E+02  0.00000000000E+00 0. -1.
         21   -1    0    0  501  502 -0.00000000000E+00 -0.00000000000E+00 -0.14720824127E+04  0.14720824127E+04  0.00000000000E+00 0. -1.
      99926    2    1    2    0    0 -0.14210854715E-13  0.00000000000E+00 -0.14371345936E+04  0.15070302317E+04  0.45363452143E+03 0.  0.
      99925    2    3    3    0    0  0.91625348137E+02  0.21357746159E+01 -0.68876739509E+03  0.74276539677E+03  0.26248836954E+03 0.  0.
         25    1    3    3    0    0 -0.91625348137E+02 -0.21357746159E+01 -0.74836719854E+03  0.76426483493E+03  0.12509000000E+03 0.  0.
         25    1    4    4    0    0  0.67044562653E+02  0.57264369584E+01 -0.45257957057E+03  0.47434538182E+03  0.12509000000E+03 0.  0.
         25    1    4    4    0    0  0.24580785484E+02 -0.35906623425E+01 -0.23618782452E+03  0.26842001495E+03  0.12509000000E+03 0.  0.
<mgrwt>
<rscale>  2 0.45363452E+03</rscale>
<asrwt>0</asrwt>
<pdfrwt beam="1">  1       21 0.51393856E-02 0.45363452E+03</pdfrwt>
<pdfrwt beam="2">  1       21 0.21648269E+00 0.45363452E+03</pdfrwt>
<totfact> 0.23859394E+04</totfact>
</mgrwt>
</event>
<event>
 7    0  0.4709932E-002  0.4497816E+03  0.7546771E-02  0.1027787E+00
         21   -1    0    0  502  501  0.00000000000E+00  0.00000000000E+00  0.35539098154E+02  0.35539098154E+02  0.00000000000E+00 0.  1.
         21   -1    0    0  501  502 -0.00000000000E+00 -0.00000000000E+00 -0.14231052187E+04  0.14231052187E+04  0.00000000000E+00 0.  1.
      99926    2    1    2    0    0  0.71054273576E-14  0.00000000000E+00 -0.13875661206E+04  0.14586443169E+04  0.44978161835E+03 0.  0.
      99925    2    3    3    0    0  0.61904633455E+02  0.84549431782E+02 -0.78968264549E+03  0.83889198898E+03  0.26298345677E+03 0.  0.
         25    1    3    3    0    0 -0.61904633455E+02 -0.84549431782E+02 -0.59788347508E+03  0.61975232790E+03  0.12509000000E+03 0.  0.
         25    1    4    4    0    0  0.16763811457E+02  0.35453684383E+01 -0.39099033133E+03  0.41087046901E+03  0.12509000000E+03 0.  0.
         25    1    4    4    0    0  0.45140821998E+02  0.81004063344E+02 -0.39869231416E+03  0.42802151997E+03  0.12509000000E+03 0.  0.
<mgrwt>
<rscale>  2 0.44978162E+03</rscale>
<asrwt>0</asrwt>
<pdfrwt beam="1">  1       21 0.52263390E-02 0.44978162E+03</pdfrwt>
<pdfrwt beam="2">  1       21 0.20928014E+00 0.44978162E+03</pdfrwt>
<totfact> 0.25842146E+04</totfact>
</mgrwt>
</event>
<event>
 7    0  0.4709932E-002  0.4538866E+03  0.7546771E-02  0.1026569E+00
         21   -1    0    0  502  501  0.00000000000E+00  0.00000000000E+00  0.75070264233E+02  0.75070264233E+02  0.00000000000E+00 0.  1.
         21   -1    0    0  501  502 -0.00000000000E+00 -0.00000000000E+00 -0.68606753857E+03  0.68606753857E+03  0.00000000000E+00 0.  1.
      99926    2    1    2    0    0  0.17763568394E-14  0.00000000000E+00 -0.61099727433E+03  0.76113780280E+03  0.45388664401E+03 0.  0.
      99925    2    3    3    0    0  0.15837806545E+02  0.41016597893E+02 -0.21207704288E+03  0.34075933453E+03  0.26307233708E+03 0.  0.
         25    1    4    4    0    0  0.46821369427E+02  0.21021909433E+02 -0.92485244863E+02  0.16381449853E+03  0.12509000000E+03 0.  0.
         25    1    3    3    0    0 -0.15837806545E+02 -0.41016597893E+02 -0.39892023145E+03  0.42037846827E+03  0.12509000000E+03 0.  0.
         25    1    4    4    0    0 -0.30983562882E+02  0.19994688460E+02 -0.11959179802E+03  0.17694483600E+03  0.12509000000E+03 0.  0.
<mgrwt>
<rscale>  2 0.45388664E+03</rscale>
<asrwt>0</asrwt>
<pdfrwt beam="1">  1       21 0.11039745E-01 0.45388664E+03</pdfrwt>
<pdfrwt beam="2">  1       21 0.10089228E+00 0.45388664E+03</pdfrwt>
<totfact> 0.50138417E+04</totfact>
</mgrwt>
</event>
<event>
 7    0  0.4709932E-002  0.4575477E+03  0.7546771E-02  0.1025495E+00
         21   -1    0    0  502  501  0.00000000000E+00  0.00000000000E+00  0.12121494216E+03  0.12121494216E+03  0.00000000000E+00 0.  1.
         21   -1    0    0  501  502 -0.00000000000E+00 -0.00000000000E+00 -0.43177404591E+03  0.43177404591E+03  0.00000000000E+00 0.  1.
      99926    2    1    2    0    0  0.00000000000E+00  0.00000000000E+00 -0.31055910376E+03  0.55298898807E+03  0.45754766309E+03 0.  0.
      99925    2    3    3    0    0 -0.68440332956E+02  0.53955187400E+01 -0.82609195594E+02  0.28406174972E+03  0.26297073536E+03 0.  0.
         25    1    3    3    0    0  0.68440332956E+02 -0.53955187400E+01 -0.22794990816E+03  0.26892723835E+03  0.12509000000E+03 0.  0.
         25    1    4    4    0    0 -0.99959031765E+00 -0.15336711181E+02 -0.56394717266E+02  0.13807275664E+03  0.12509000000E+03 0.  0.
         25    1    4    4    0    0 -0.67440742638E+02  0.20732229921E+02 -0.26214478328E+02  0.14598899308E+03  0.12509000000E+03 0.  0.
<mgrwt>
<rscale>  2 0.45754766E+03</rscale>
<asrwt>0</asrwt>
<pdfrwt beam="1">  1       21 0.17825727E-01 0.45754766E+03</pdfrwt>
<pdfrwt beam="2">  1       21 0.63496183E-01 0.45754766E+03</pdfrwt>
<totfact> 0.60441951E+04</totfact>
</mgrwt>
</event>
<event>
 7    0  0.4709932E-002  0.4581554E+03  0.7546771E-02  0.1025318E+00
         21   -1    0    0  502  501  0.00000000000E+00  0.00000000000E+00  0.10288585536E+04  0.10288585536E+04  0.00000000000E+00 0.  1.
         21   -1    0    0  501  502 -0.00000000000E+00 -0.00000000000E+00 -0.51004677867E+02  0.51004677867E+02  0.00000000000E+00 0.  1.
      99926    2    1    2    0    0  0.00000000000E+00  0.00000000000E+00  0.97785387578E+03  0.10798632315E+04  0.45815542821E+03 0.  0.
      99925    2    3    3    0    0 -0.83409249083E+02 -0.76422248518E+02  0.55136437056E+03  0.62123672872E+03  0.26293524125E+03 0.  0.
         25    1    3    3    0    0  0.83409249083E+02  0.76422248518E+02  0.42648950522E+03  0.45862650279E+03  0.12509000000E+03 0.  0.
         25    1    4    4    0    0 -0.69211928870E+02 -0.41810371989E+02  0.22617724036E+03  0.27081737474E+03  0.12509000000E+03 0.  0.
         25    1    4    4    0    0 -0.14197320214E+02 -0.34611876529E+02  0.32518713020E+03  0.35041935398E+03  0.12509000000E+03 0.  0.
<mgrwt>
<rscale>  2 0.45815543E+03</rscale>
<asrwt>0</asrwt>
<pdfrwt beam="1">  1       21 0.15130272E+00 0.45815543E+03</pdfrwt>
<pdfrwt beam="2">  1       21 0.75006886E-02 0.45815543E+03</pdfrwt>
<totfact> 0.35322602E+04</totfact>
</mgrwt>
</event>
<event>
 7    0  0.4709932E-002  0.4394085E+03  0.7546771E-02  0.1030928E+00
         21   -1    0    0  502  501  0.00000000000E+00  0.00000000000E+00  0.29328011738E+02  0.29328011738E+02  0.00000000000E+00 0.  1.
         21   -1    0    0  501  502 -0.00000000000E+00 -0.00000000000E+00 -0.16458656443E+04  0.16458656443E+04  0.00000000000E+00 0.  1.
      99926    2    1    2    0    0  0.00000000000E+00  0.00000000000E+00 -0.16165376325E+04  0.16751936560E+04  0.43940854308E+03 0.  0.
      99925    2    3    3    0    0 -0.57222199335E+02 -0.13959315537E+02 -0.73564472865E+03  0.78351599070E+03  0.26316325411E+03 0.  0.
         25    1    4    4    0    0 -0.51250257961E+02  0.73479331412E+01 -0.46915434974E+03  0.48829693123E+03  0.12509000000E+03 0.  0.
         25    1    3    3    0    0  0.57222199335E+02  0.13959315537E+02 -0.88089290387E+03  0.89167766529E+03  0.12509000000E+03 0.  0.
         25    1    4    4    0    0 -0.59719413747E+01 -0.21307248678E+02 -0.26649037890E+03  0.29521905948E+03  0.12509000000E+03 0.  0.
<mgrwt>
<rscale>  2 0.43940854E+03</rscale>
<asrwt>0</asrwt>
<pdfrwt beam="1">  1       21 0.43129438E-02 0.43940854E+03</pdfrwt>
<pdfrwt beam="2">  1       21 0.24203901E+00 0.43940854E+03</pdfrwt>
<totfact> 0.22370899E+04</totfact>
</mgrwt>
</event>
<event>
 7    0  0.4709932E-002  0.4544579E+03  0.7546771E-02  0.1026401E+00
         21   -1    0    0  502  501  0.00000000000E+00  0.00000000000E+00  0.75062627729E+03  0.75062627729E+03  0.00000000000E+00 0. -1.
         21   -1    0    0  501  502 -0.00000000000E+00 -0.00000000000E+00 -0.68786542569E+02  0.68786542569E+02  0.00000000000E+00 0. -1.
      99926    2    1    2    0    0  0.00000000000E+00  0.00000000000E+00  0.68183973472E+03  0.81941281986E+03  0.45445785889E+03 0.  0.
      99925    2    3    3    0    0 -0.10337178825E+03  0.42145851276E+02  0.40184515359E+03  0.49305952518E+03  0.26299461691E+03 0.  0.
         25    1    3    3    0    0  0.10337178825E+03 -0.42145851276E+02  0.27999458113E+03  0.32635329467E+03  0.12509000000E+03 0.  0.
         25    1    4    4    0    0 -0.66088657721E+02  0.52885638281E+02  0.25430521052E+03  0.29577567448E+03  0.12509000000E+03 0.  0.
         25    1    4    4    0    0 -0.37283130525E+02 -0.10739787005E+02  0.14753994307E+03  0.19728385070E+03  0.12509000000E+03 0.  0.
<mgrwt>
<rscale>  2 0.45445786E+03</rscale>
<asrwt>0</asrwt>
<pdfrwt beam="1">  1       21 0.11038621E+00 0.45445786E+03</pdfrwt>
<pdfrwt beam="2">  1       21 0.10115668E-01 0.45445786E+03</pdfrwt>
<totfact> 0.47039924E+04</totfact>
</mgrwt>
</event>
<event>
 7    0  0.4709932E-002  0.4582961E+03  0.7546771E-02  0.1025277E+00
         21   -1    0    0  502  501  0.00000000000E+00  0.00000000000E+00  0.15993279039E+04  0.15993279039E+04  0.00000000000E+00 0. -1.
         21   -1    0    0  501  502 -0.00000000000E+00 -0.00000000000E+00 -0.32831815390E+02  0.32831815390E+02  0.00000000000E+00 0. -1.
      99926    2    1    2    0    0  0.00000000000E+00  0.00000000000E+00  0.15664960885E+04  0.16321597193E+04  0.45829614220E+03 0.  0.
      99925    2    3    3    0    0  0.11187018157E+03  0.17500587990E+02  0.88829918467E+03  0.93328937611E+03  0.26293042799E+03 0.  0.
         25    1    4    4    0    0  0.14813157488E+02 -0.65039361744E+01  0.38819871220E+03  0.40817579433E+03  0.12509000000E+03 0.  0.
         25    1    4    4    0    0  0.97057024082E+02  0.24004524164E+02  0.50010047247E+03  0.52511358178E+03  0.12509000000E+03 0.  0.
         25    1    3    3    0    0 -0.11187018157E+03 -0.17500587990E+02  0.67819690383E+03  0.69887034318E+03  0.12509000000E+03 0.  0.
<mgrwt>
<rscale>  2 0.45829614E+03</rscale>
<asrwt>0</asrwt>
<pdfrwt beam="1">  1       21 0.23519523E+00 0.45829614E+03</pdfrwt>
<pdfrwt beam="2">  1       21 0.48282092E-02 0.45829614E+03</pdfrwt>
<totfact> 0.20190998E+04</totfact>
</mgrwt>
</event>
<event>
 7    0  0.4709932E-002  0.4527829E+03  0.7546771E-02  0.1026895E+00
         21   -1    0    0  502  501  0.00000000000E+00  0.00000000000E+00  0.63599155984E+03  0.63599155984E+03  0.00000000000E+00 0. -1.
         21   -1    0    0  501  502 -0.00000000000E+00 -0.00000000000E+00 -0.80587702973E+02  0.80587702973E+02  0.00000000000E+00 0. -1.
      99926    2    1    2    0    0  0.00000000000E+00  0.14210854715E-13  0.55540385687E+03  0.71657926282E+03  0.45278294543E+03 0.  0.
      99925    2    3    3    0    0 -0.21437269042E+02  0.10679300008E+03  0.30784005422E+03  0.41858656852E+03  0.26188721809E+03 0.  0.
         25    1    3    3    0    0  0.21437269042E+02 -0.10679300008E+03  0.24756380265E+03  0.29799269429E+03  0.12509000000E+03 0.  0.
         25    1    4    4    0    0  0.21428107060E+00  0.15170771288E+02  0.15545295083E+03  0.20010828629E+03  0.12509000000E+03 0.  0.
         25    1    4    4    0    0 -0.21651550113E+02  0.91622228788E+02  0.15238710339E+03  0.21847828224E+03  0.12509000000E+03 0.  0.
<mgrwt>
<rscale>  2 0.45278295E+03</rscale>
<asrwt>0</asrwt>
<pdfrwt beam="1">  1       21 0.93528168E-01 0.45278295E+03</pdfrwt>
<pdfrwt beam="2">  1       21 0.11851133E-01 0.45278295E+03</pdfrwt>
<totfact> 0.52929128E+04</totfact>
</mgrwt>
</event>
<event>
 7    0  0.4709932E-002  0.4463801E+03  0.7546771E-02  0.1028807E+00
         21   -1    0    0  502  501  0.00000000000E+00  0.00000000000E+00  0.29566377495E+03  0.29566377495E+03  0.00000000000E+00 0.  1.
         21   -1    0    0  501  502 -0.00000000000E+00 -0.00000000000E+00 -0.16848121077E+03  0.16848121077E+03  0.00000000000E+00 0.  1.
      99926    2    1    2    0    0  0.00000000000E+00  0.00000000000E+00  0.12718256418E+03  0.46414498572E+03  0.44638006579E+03 0.  0.
      99925    2    3    3    0    0  0.20988501717E+02  0.10295476593E+02 -0.25660063707E+02  0.26526087111E+03  0.26297980309E+03 0.  0.
         25    1    4    4    0    0 -0.78032153378E+01 -0.16784216390E+02  0.16368056106E+02  0.12750694667E+03  0.12509000000E+03 0.  0.
         25    1    3    3    0    0 -0.20988501717E+02 -0.10295476593E+02  0.15284262789E+03  0.19888411460E+03  0.12509000000E+03 0.  0.
         25    1    4    4    0    0  0.28791717054E+02  0.27079692984E+02 -0.42028119812E+02  0.13775392444E+03  0.12509000000E+03 0.  0.
<mgrwt>
<rscale>  2 0.44638007E+03</rscale>
<asrwt>0</asrwt>
<pdfrwt beam="1">  1       21 0.43479967E-01 0.44638007E+03</pdfrwt>
<pdfrwt beam="2">  1       21 0.24776649E-01 0.44638007E+03</pdfrwt>
<totfact> 0.72720824E+04</totfact>
</mgrwt>
</event>
<event>
 7    0  0.4709932E-002  0.4492835E+03  0.7546771E-02  0.1027936E+00
         21   -1    0    0  502  501  0.00000000000E+00  0.00000000000E+00  0.13204133111E+04  0.13204133111E+04  0.00000000000E+00 0.  1.
         21   -1    0    0  501  502 -0.00000000000E+00 -0.00000000000E+00 -0.38218273348E+02  0.38218273348E+02  0.00000000000E+00 0.  1.
      99926    2    1    2    0    0 -0.17763568394E-14 -0.14210854715E-13  0.12821950377E+04  0.13586315844E+04  0.44928350450E+03 0.  0.
      99925    2    3    3    0    0 -0.15501022748E+02  0.10515170942E+03  0.75783634170E+03  0.80918030005E+03  0.26298226839E+03 0.  0.
         25    1    4    4    0    0  0.18815716989E+01  0.25438019251E+02  0.43740806403E+03  0.45565771772E+03  0.12509000000E+03 0.  0.
         25    1    4    4    0    0 -0.17382594447E+02  0.79713690165E+02  0.32042827767E+03  0.35352258233E+03  0.12509000000E+03 0.  0.
         25    1    3    3    0    0  0.15501022748E+02 -0.10515170942E+03  0.52435869603E+03  0.54945128438E+03  0.12509000000E+03 0.  0.
<mgrwt>
<rscale>  2 0.44928350E+03</rscale>
<asrwt>0</asrwt>
<pdfrwt beam="1">  1       21 0.19417840E+00 0.44928350E+03</pdfrwt>
<pdfrwt beam="2">  1       21 0.56203352E-02 0.44928350E+03</pdfrwt>
<totfact> 0.28710240E+04</totfact>
</mgrwt>
</event>
<event>
 7    0  0.4709932E-002  0.4588144E+03  0.7546771E-02  0.1025126E+00
         21   -1    0    0  502  501  0.00000000000E+00  0.00000000000E+00  0.83888873497E+02  0.83888873497E+02  0.00000000000E+00 0. -1.
         21   -1    0    0  501  502 -0.00000000000E+00 -0.00000000000E+00 -0.62734972794E+03  0.62734972794E+03  0.00000000000E+00 0. -1.
      99926    2    1    2    0    0  0.00000000000E+00  0.00000000000E+00 -0.54346085444E+03  0.71123860144E+03  0.45881439369E+03 0.  0.
      99925    2    3    3    0    0 -0.88011691857E+02  0.65208163737E+02 -0.40309606147E+03  0.49364277030E+03  0.26305624375E+03 0.  0.
         25    1    4    4    0    0 -0.28732015157E+02 -0.40903493696E+01 -0.21007651536E+03  0.24621517024E+03  0.12509000000E+03 0.  0.
         25    1    3    3    0    0  0.88011691857E+02 -0.65208163737E+02 -0.14036479297E+03  0.21759583113E+03  0.12509000000E+03 0.  0.
         25    1    4    4    0    0 -0.59279676700E+02  0.69298513106E+02 -0.19301954612E+03  0.24742760006E+03  0.12509000000E+03 0.  0.
<mgrwt>
<rscale>  2 0.45881439E+03</rscale>
<asrwt>0</asrwt>
<pdfrwt beam="1">  1       21 0.12336599E-01 0.45881439E+03</pdfrwt>
<pdfrwt beam="2">  1       21 0.92257312E-01 0.45881439E+03</pdfrwt>
<totfact> 0.50756606E+04</totfact>
</mgrwt>
</event>
<event>
 7    0  0.4709932E-002  0.4757294E+03  0.7546771E-02  0.1020316E+00
         21   -1    0    0  502  501  0.00000000000E+00  0.00000000000E+00  0.36934900450E+03  0.36934900450E+03  0.00000000000E+00 0. -1.
         21   -1    0    0  501  502 -0.00000000000E+00 -0.00000000000E+00 -0.15318737385E+03  0.15318737385E+03  0.00000000000E+00 0. -1.
      99926    2    1    2    0    0  0.22204460493E-14  0.00000000000E+00  0.21616163065E+03  0.52253637834E+03  0.47572935176E+03 0.  0.
      99925    2    3    3    0    0  0.12560582313E+01  0.63678688309E+01  0.27807269015E+03  0.38281302731E+03  0.26301951531E+03 0.  0.
         25    1    3    3    0    0 -0.12560582313E+01 -0.63678688309E+01 -0.61911059500E+02  0.13972335103E+03  0.12509000000E+03 0.  0.
         25    1    4    4    0    0  0.21341840280E+02  0.12798318657E+02  0.18820933469E+03  0.22735332166E+03  0.12509000000E+03 0.  0.
         25    1    4    4    0    0 -0.20085782049E+02 -0.64304498260E+01  0.89863355460E+02  0.15545970565E+03  0.12509000000E+03 0.  0.
<mgrwt>
<rscale>  2 0.47572935E+03</rscale>
<asrwt>0</asrwt>
<pdfrwt beam="1">  1       21 0.54316030E-01 0.47572935E+03</pdfrwt>
<pdfrwt beam="2">  1       21 0.22527555E-01 0.47572935E+03</pdfrwt>
<totfact> 0.54229237E+04</totfact>
</mgrwt>
</event>
<event>
 7    0  0.4709932E-002  0.4596756E+03  0.7546771E-02  0.1024875E+00
         21   -1    0    0  502  501  0.00000000000E+00  0.00000000000E+00  0.72703743293E+03  0.72703743293E+03  0.00000000000E+00 0.  1.
         21   -1    0    0  501  502 -0.00000000000E+00 -0.00000000000E+00 -0.72658454319E+02  0.72658454319E+02  0.00000000000E+00 0.  1.
      99926    2    1    2    0    0  0.00000000000E+00  0.00000000000E+00  0.65437897861E+03  0.79969588725E+03  0.45967560783E+03 0.  0.
      99925    2    3    3    0    0 -0.88995878932E+02  0.71623206193E+02  0.36197279707E+03  0.46176241268E+03  0.26296400858E+03 0.  0.
         25    1    4    4    0    0 -0.72859104815E+02  0.64846969688E+02  0.22674601648E+03  0.27672159786E+03  0.12509000000E+03 0.  0.
         25    1    3    3    0    0  0.88995878932E+02 -0.71623206193E+02  0.29240618154E+03  0.33793347457E+03  0.12509000000E+03 0.  0.
         25    1    4    4    0    0 -0.16136774117E+02  0.67762365050E+01  0.13522678059E+03  0.18504081482E+03  0.12509000000E+03 0.  0.
<mgrwt>
<rscale>  2 0.45967561E+03</rscale>
<asrwt>0</asrwt>
<pdfrwt beam="1">  1       21 0.10691727E+00 0.45967561E+03</pdfrwt>
<pdfrwt beam="2">  1       21 0.10685067E-01 0.45967561E+03</pdfrwt>
<totfact> 0.46065818E+04</totfact>
</mgrwt>
</event>
<event>
 7    0  0.4709932E-002  0.4548423E+03  0.7546771E-02  0.1026288E+00
         21   -1    0    0  502  501  0.00000000000E+00  0.00000000000E+00  0.91696662222E+03  0.91696662222E+03  0.00000000000E+00 0. -1.
         21   -1    0    0  501  502 -0.00000000000E+00 -0.00000000000E+00 -0.56403763716E+02  0.56403763716E+02  0.00000000000E+00 0. -1.
      99926    2    1    2    0    0 -0.14210854715E-13  0.00000000000E+00  0.86056285851E+03  0.97337038594E+03  0.45484225263E+03 0.  0.
      99925    2    3    3    0    0 -0.70404515814E+02 -0.29541611853E+02  0.36310318113E+03  0.45477310346E+03  0.26295465922E+03 0.  0.
         25    1    4    4    0    0  0.61046310267E+01 -0.13513739103E+02  0.15594390143E+03  0.20046420169E+03  0.12509000000E+03 0.  0.
         25    1    4    4    0    0 -0.76509146841E+02 -0.16027872750E+02  0.20715927970E+03  0.25430890177E+03  0.12509000000E+03 0.  0.
         25    1    3    3    0    0  0.70404515814E+02  0.29541611853E+02  0.49745967738E+03  0.51859728248E+03  0.12509000000E+03 0.  0.
<mgrwt>
<rscale>  2 0.45484225E+03</rscale>
<asrwt>0</asrwt>
<pdfrwt beam="1">  1       21 0.13484802E+00 0.45484225E+03</pdfrwt>
<pdfrwt beam="2">  1       21 0.82946717E-02 0.45484225E+03</pdfrwt>
<totfact> 0.40258292E+04</totfact>
</mgrwt>
</event>
<event>
 7    0  0.4709932E-002  0.4658227E+03  0.7546771E-02  0.1023106E+00
         21   -1    0    0  502  501  0.00000000000E+00  0.00000000000E+00  0.26448543184E+02  0.26448543184E+02  0.00000000000E+00 0.  1.
         21   -1    0    0  501  502 -0.00000000000E+00 -0.00000000000E+00 -0.20510652884E+04  0.20510652884E+04  0.00000000000E+00 0.  1.
      99926    2    1    2    0    0  0.00000000000E+00  0.00000000000E+00 -0.20246167452E+04  0.20775138316E+04  0.46582266520E+03 0.  0.
      99925    2    3    3    0    0 -0.71478850606E+02  0.90256980229E+02 -0.14547434173E+04  0.14828217545E+04  0.26310909696E+03 0.  0.
         25    1    4    4    0    0 -0.20561723576E+02  0.14982140764E+02 -0.79641392239E+03  0.80657912997E+03  0.12509000000E+03 0.  0.
         25    1    4    4    0    0 -0.50917127030E+02  0.75274839465E+02 -0.65832949493E+03  0.67624262457E+03  0.12509000000E+03 0.  0.
         25    1    3    3    0    0  0.71478850606E+02 -0.90256980229E+02 -0.56987332786E+03  0.59469207702E+03  0.12509000000E+03 0.  0.
<mgrwt>
<rscale>  2 0.46582267E+03</rscale>
<asrwt>0</asrwt>
<pdfrwt beam="1">  1       21 0.38894916E-02 0.46582267E+03</pdfrwt>
<pdfrwt beam="2">  1       21 0.30162725E+00 0.46582267E+03</pdfrwt>
<totfact> 0.11489291E+04</totfact>
</mgrwt>
</event>
<event>
 7    0  0.4709932E-002  0.4574602E+03  0.7546771E-02  0.1025520E+00
         21   -1    0    0  502  501  0.00000000000E+00  0.00000000000E+00  0.11394110443E+04  0.11394110443E+04  0.00000000000E+00 0.  1.
         21   -1    0    0  501  502 -0.00000000000E+00 -0.00000000000E+00 -0.45916237644E+02  0.45916237644E+02  0.00000000000E+00 0.  1.
      99926    2    1    2    0    0 -0.26645352591E-14  0.00000000000E+00  0.10934948066E+04  0.11853272819E+04  0.45746024213E+03 0.  0.
      99925    2    3    3    0    0 -0.44456137326E+01  0.93065314545E+02  0.50990558326E+03  0.58125377150E+03  0.26300442352E+03 0.  0.
         25    1    4    4    0    0 -0.40207298894E+02  0.31694550206E+02  0.24929861140E+03  0.28358151763E+03  0.12509000000E+03 0.  0.
         25    1    3    3    0    0  0.44456137326E+01 -0.93065314545E+02  0.58358922338E+03  0.60407351042E+03  0.12509000000E+03 0.  0.
         25    1    4    4    0    0  0.35761685161E+02  0.61370764339E+02  0.26060697185E+03  0.29767225386E+03  0.12509000000E+03 0.  0.
<mgrwt>
<rscale>  2 0.45746024E+03</rscale>
<asrwt>0</asrwt>
<pdfrwt beam="1">  1       21 0.16756043E+00 0.45746024E+03</pdfrwt>
<pdfrwt beam="2">  1       21 0.67523886E-02 0.45746024E+03</pdfrwt>
<totfact> 0.32006574E+04</totfact>
</mgrwt>
</event>
<event>
 6    0  0.4709932E-002  0.4553690E+03  0.7546771E-02  0.1026133E+00
         21   -1    0    0  502  501  0.00000000000E+00  0.00000000000E+00  0.10487597331E+04  0.10487597331E+04  0.00000000000E+00 0.  1.
         21   -1    0    0  501  502 -0.00000000000E+00 -0.00000000000E+00 -0.49430026300E+02  0.49430026300E+02  0.00000000000E+00 0.  1.
      99926    2    1    2    0    0  0.00000000000E+00 -0.71054273576E-14  0.99932970679E+03  0.10981897594E+04  0.45536895454E+03 0.  0.
         25    1    3    3    0    0 -0.51987366236E+02 -0.59449464504E+02  0.39017682314E+03  0.41727974609E+03  0.12509000000E+03 0.  0.
         25    1    3    3    0    0 -0.24563554202E+02  0.21487189981E+02  0.41488227629E+03  0.43455710650E+03  0.12509000000E+03 0.  0.
         25    1    3    3    0    0  0.76550920438E+02  0.37962274523E+02  0.19427060735E+03  0.24635290680E+03  0.12509000000E+03 0.  0.
<mgrwt>
<rscale>  2 0.45536895E+03</rscale>
<asrwt>0</asrwt>
<pdfrwt beam="1">  1       21 0.15422936E+00 0.45536895E+03</pdfrwt>
<pdfrwt beam="2">  1       21 0.72691222E-02 0.45536895E+03</pdfrwt>
<totfact> 0.35454926E+04</totfact>
</mgrwt>
</event>
<event>
 7    0  0.4709932E-002  0.4233665E+03  0.7546771E-02  0.1035976E+00
         21   -1    0    0  502  501  0.00000000000E+00  0.00000000000E+00  0.40026614739E+03  0.40026614739E+03  0.00000000000E+00 0. -1.
         21   -1    0    0  501  502 -0.00000000000E+00 -0.00000000000E+00 -0.11194999587E+03  0.11194999587E+03  0.00000000000E+00 0. -1.
      99926    2    1    2    0    0  0.00000000000E+00  0.00000000000E+00  0.28831615152E+03  0.51221614326E+03  0.42336647740E+03 0.  0.
      99925    2    3    3    0    0  0.36925468699E+02  0.70763173859E+02  0.19424938362E+03  0.33652612665E+03  0.26295644861E+03 0.  0.
         25    1    3    3    0    0 -0.36925468699E+02 -0.70763173859E+02  0.94066767899E+02  0.17569001661E+03  0.12509000000E+03 0.  0.
         25    1    4    4    0    0  0.14866890935E+02 -0.39287644683E+01  0.72603433809E+02  0.14544836313E+03  0.12509000000E+03 0.  0.
         25    1    4    4    0    0  0.22058577764E+02  0.74691938327E+02  0.12164594981E+03  0.19107776352E+03  0.12509000000E+03 0.  0.
<mgrwt>
<rscale>  2 0.42336648E+03</rscale>
<asrwt>0</asrwt>
<pdfrwt beam="1">  1       21 0.58862668E-01 0.42336648E+03</pdfrwt>
<pdfrwt beam="2">  1       21 0.16463235E-01 0.42336648E+03</pdfrwt>
<totfact> 0.83458869E+04</totfact>
</mgrwt>
</event>
<event>
 7    0  0.4709932E-002  0.4383971E+03  0.7546771E-02  0.1031240E+00
         21   -1    0    0  502  501  0.00000000000E+00  0.00000000000E+00  0.22030459513E+03  0.22030459513E+03  0.00000000000E+00 0.  1.
         21   -1    0    0  501  502 -0.00000000000E+00 -0.00000000000E+00 -0.21809806935E+03  0.21809806935E+03  0.00000000000E+00 0.  1.
      99926    2    1    2    0    0  0.00000000000E+00  0.00000000000E+00  0.22065257855E+01  0.43840266448E+03  0.43839711161E+03 0.  0.
      99925    2    3    3    0    0  0.58227903211E+02 -0.55103973993E+02  0.55718833819E+02  0.28048492680E+03  0.26294537277E+03 0.  0.
         25    1    3    3    0    0 -0.58227903211E+02  0.55103973993E+02 -0.53512308034E+02  0.15791773768E+03  0.12509000000E+03 0.  0.
         25    1    4    4    0    0  0.74712128636E+01 -0.42182874480E+02  0.59102611188E+02  0.14483038587E+03  0.12509000000E+03 0.  0.
         25    1    4    4    0    0  0.50756690348E+02 -0.12921099512E+02 -0.33837773690E+01  0.13565454094E+03  0.12509000000E+03 0.  0.
<mgrwt>
<rscale>  2 0.43839711E+03</rscale>
<asrwt>0</asrwt>
<pdfrwt beam="1">  1       21 0.32397735E-01 0.43839711E+03</pdfrwt>
<pdfrwt beam="2">  1       21 0.32073245E-01 0.43839711E+03</pdfrwt>
<totfact> 0.79843663E+04</totfact>
</mgrwt>
</event>
<event>
 7    0  0.4709932E-002  0.4301397E+03  0.7546771E-02  0.1033816E+00
         21   -1    0    0  502  501  0.00000000000E+00  0.00000000000E+00  0.77204771726E+02  0.77204771726E+02  0.00000000000E+00 0. -1.
         21   -1    0    0  501  502 -0.00000000000E+00 -0.00000000000E+00 -0.59912161633E+03  0.59912161633E+03  0.00000000000E+00 0. -1.
      99926    2    1    2    0    0  0.00000000000E+00  0.00000000000E+00 -0.52191684461E+03  0.67632638806E+03  0.43013973369E+03 0.  0.
      99925    2    3    3    0    0  0.85726738887E+02  0.14655608451E+02 -0.31912120419E+03  0.42267812670E+03  0.26316267822E+03 0.  0.
         25    1    3    3    0    0 -0.85726738887E+02 -0.14655608451E+02 -0.20279564042E+03  0.25364826136E+03  0.12509000000E+03 0.  0.
         25    1    4    4    0    0  0.79876782944E+02  0.17938866545E+01 -0.20252102609E+03  0.25108921241E+03  0.12509000000E+03 0.  0.
         25    1    4    4    0    0  0.58499559425E+01  0.12861721797E+02 -0.11660017810E+03  0.17158891428E+03  0.12509000000E+03 0.  0.
<mgrwt>
<rscale>  2 0.43013973E+03</rscale>
<asrwt>0</asrwt>
<pdfrwt beam="1">  1       21 0.11353643E-01 0.43013973E+03</pdfrwt>
<pdfrwt beam="2">  1       21 0.88106119E-01 0.43013973E+03</pdfrwt>
<totfact> 0.66256839E+04</totfact>
</mgrwt>
</event>
<event>
 7    0  0.4709932E-002  0.4497104E+03  0.7546771E-02  0.1027808E+00
         21   -1    0    0  502  501  0.00000000000E+00  0.00000000000E+00  0.28087923650E+03  0.28087923650E+03  0.00000000000E+00 0.  1.
         21   -1    0    0  501  502 -0.00000000000E+00 -0.00000000000E+00 -0.18000569246E+03  0.18000569246E+03  0.00000000000E+00 0.  1.
      99926    2    1    2    0    0  0.14210854715E-13  0.71054273576E-14  0.10087354404E+03  0.46088492895E+03  0.44971040220E+03 0.  0.
      99925    2    3    3    0    0 -0.87412303218E+02 -0.62542469568E+02  0.75938369052E+02  0.29408642085E+03  0.26299755851E+03 0.  0.
         25    1    4    4    0    0 -0.71782638855E+02 -0.35909912579E+02  0.72082012532E+02  0.16518351520E+03  0.12509000000E+03 0.  0.
         25    1    3    3    0    0  0.87412303218E+02  0.62542469568E+02  0.24935174987E+02  0.16679850810E+03  0.12509000000E+03 0.  0.
         25    1    4    4    0    0 -0.15629664364E+02 -0.26632556989E+02  0.38563565197E+01  0.12890290565E+03  0.12509000000E+03 0.  0.
<mgrwt>
<rscale>  2 0.44971040E+03</rscale>
<asrwt>0</asrwt>
<pdfrwt beam="1">  1       21 0.41305770E-01 0.44971040E+03</pdfrwt>
<pdfrwt beam="2">  1       21 0.26471425E-01 0.44971040E+03</pdfrwt>
<totfact> 0.71054865E+04</totfact>
</mgrwt>
</event>
<event>
 7    0  0.4709932E-002  0.4683415E+03  0.7546771E-02  0.1022389E+00
         21   -1    0    0  502  501  0.00000000000E+00  0.00000000000E+00  0.51973837598E+02  0.51973837598E+02  0.00000000000E+00 0. -1.
         21   -1    0    0  501  502 -0.00000000000E+00 -0.00000000000E+00 -0.10550682608E+04  0.10550682608E+04  0.00000000000E+00 0. -1.
      99926    2    1    2    0    0  0.00000000000E+00  0.17763568394E-14 -0.10030944232E+04  0.11070420984E+04  0.46834152683E+03 0.  0.
      99925    2    3    3    0    0 -0.12398123206E+03  0.13457490579E+02 -0.65716699916E+03  0.71862770530E+03  0.26268776921E+03 0.  0.
         25    1    4    4    0    0 -0.58230602473E+02  0.46131606708E+02 -0.31404242009E+03  0.34610558781E+03  0.12509000000E+03 0.  0.
         25    1    3    3    0    0  0.12398123206E+03 -0.13457490579E+02 -0.34592742400E+03  0.38841439305E+03  0.12509000000E+03 0.  0.
         25    1    4    4    0    0 -0.65750629582E+02 -0.32674116129E+02 -0.34312457907E+03  0.37252211749E+03  0.12509000000E+03 0.  0.
<mgrwt>
<rscale>  2 0.46834153E+03</rscale>
<asrwt>0</asrwt>
<pdfrwt beam="1">  1       21 0.76432113E-02 0.46834153E+03</pdfrwt>
<pdfrwt beam="2">  1       21 0.15515710E+00 0.46834153E+03</pdfrwt>
<totfact> 0.31809105E+04</totfact>
</mgrwt>
</event>
<event>
 7    0  0.4709932E-002  0.4690877E+03  0.7546771E-02  0.1022178E+00
         21   -1    0    0  502  501  0.00000000000E+00  0.00000000000E+00  0.20312536906E+03  0.20312536906E+03  0.00000000000E+00 0. -1.
         21   -1    0    0  501  502 -0.00000000000E+00 -0.00000000000E+00 -0.27082193973E+03  0.27082193973E+03  0.00000000000E+00 0. -1.
      99926    2    1    2    0    0  0.00000000000E+00  0.00000000000E+00 -0.67696570669E+02  0.47394730880E+03  0.46908765261E+03 0.  0.
      99925    2    3    3    0    0 -0.67310810318E+02  0.49338347165E+02 -0.13741432747E+03  0.30819722162E+03  0.26294070117E+03 0.  0.
         25    1    4    4    0    0 -0.11888237767E+02  0.53275190689E+02 -0.89357045235E+02  0.16313113061E+03  0.12509000000E+03 0.  0.
         25    1    4    4    0    0 -0.55422572551E+02 -0.39368435244E+01 -0.48057282233E+02  0.14506609101E+03  0.12509000000E+03 0.  0.
         25    1    3    3    0    0  0.67310810318E+02 -0.49338347165E+02  0.69717756799E+02  0.16575008718E+03  0.12509000000E+03 0.  0.
<mgrwt>
<rscale>  2 0.46908765E+03</rscale>
<asrwt>0</asrwt>
<pdfrwt beam="1">  1       21 0.29871378E-01 0.46908765E+03</pdfrwt>
<pdfrwt beam="2">  1       21 0.39826756E-01 0.46908765E+03</pdfrwt>
<totfact> 0.60129856E+04</totfact>
</mgrwt>
</event>
<event>
 7    0  0.4709932E-002  0.4506640E+03  0.7546771E-02  0.1027524E+00
         21   -1    0    0  502  501  0.00000000000E+00  0.00000000000E+00  0.10449936782E+03  0.10449936782E+03  0.00000000000E+00 0. -1.
         21   -1    0    0  501  502 -0.00000000000E+00 -0.00000000000E+00 -0.48588342116E+03  0.48588342116E+03  0.00000000000E+00 0. -1.
      99926    2    1    2    0    0  0.00000000000E+00  0.00000000000E+00 -0.38138405334E+03  0.59038278897E+03  0.45066400053E+03 0.  0.
      99925    2    3    3    0    0  0.57835608209E+02  0.48874430620E+02 -0.13805233297E+03  0.30649636488E+03  0.26295989713E+03 0.  0.
         25    1    4    4    0    0  0.51398541233E+02  0.15866342895E+02 -0.33996020627E+02  0.14034524715E+03  0.12509000000E+03 0.  0.
         25    1    3    3    0    0 -0.57835608209E+02 -0.48874430620E+02 -0.24333172037E+03  0.28388642409E+03  0.12509000000E+03 0.  0.
         25    1    4    4    0    0  0.64370669761E+01  0.33008087725E+02 -0.10405631234E+03  0.16615111773E+03  0.12509000000E+03 0.  0.
<mgrwt>
<rscale>  2 0.45066400E+03</rscale>
<asrwt>0</asrwt>
<pdfrwt beam="1">  1       21 0.15367554E-01 0.45066400E+03</pdfrwt>
<pdfrwt beam="2">  1       21 0.71453445E-01 0.45066400E+03</pdfrwt>
<totfact> 0.61349666E+04</totfact>
</mgrwt>
</event>
<event>
 7    0  0.4709932E-002  0.4559203E+03  0.7546771E-02  0.1025971E+00
         21   -1    0    0  502  501  0.00000000000E+00  0.00000000000E+00  0.20495121032E+03  0.20495121032E+03  0.00000000000E+00 0. -1.
         21   -1    0    0  501  502 -0.00000000000E+00 -0.00000000000E+00 -0.25355218286E+03  0.25355218286E+03  0.00000000000E+00 0. -1.
      99926    2    1    2    0    0  0.00000000000E+00  0.00000000000E+00 -0.48600972542E+02  0.45850339317E+03  0.45592028582E+03 0.  0.
      99925    2    3    3    0    0  0.12464881138E+02 -0.10550070690E+03  0.10973435634E+02  0.28391132397E+03  0.26305788559E+03 0.  0.
         25    1    4    4    0    0  0.12005349300E+02 -0.50988398567E+02 -0.34759436460E+02  0.13999882758E+03  0.12509000000E+03 0.  0.
         25    1    3    3    0    0 -0.12464881138E+02  0.10550070690E+03 -0.59574408176E+02  0.17459206920E+03  0.12509000000E+03 0.  0.
         25    1    4    4    0    0  0.45953183843E+00 -0.54512308332E+02  0.45732872094E+02  0.14391249640E+03  0.12509000000E+03 0.  0.
<mgrwt>
<rscale>  2 0.45592029E+03</rscale>
<asrwt>0</asrwt>
<pdfrwt beam="1">  1       21 0.30139884E-01 0.45592029E+03</pdfrwt>
<pdfrwt beam="2">  1       21 0.37287085E-01 0.45592029E+03</pdfrwt>
<totfact> 0.67790736E+04</totfact>
</mgrwt>
</event>
<event>
 7    0  0.4709932E-002  0.4581922E+03  0.7546771E-02  0.1025307E+00
         21   -1    0    0  502  501  0.00000000000E+00  0.00000000000E+00  0.87888631352E+02  0.87888631352E+02  0.00000000000E+00 0.  1.
         21   -1    0    0  501  502 -0.00000000000E+00 -0.00000000000E+00 -0.59717637112E+03  0.59717637112E+03  0.00000000000E+00 0.  1.
      99926    2    1    2    0    0  0.14210854715E-13  0.00000000000E+00 -0.50928773977E+03  0.68506500247E+03  0.45819216027E+03 0.  0.
      99925    2    3    3    0    0  0.11024931068E+03 -0.33686282039E+02 -0.34054675301E+03  0.44545969198E+03  0.26300678716E+03 0.  0.
         25    1    4    4    0    0  0.88562986551E+02 -0.43749249782E+02 -0.17728655598E+03  0.23840182565E+03  0.12509000000E+03 0.  0.
         25    1    3    3    0    0 -0.11024931068E+03  0.33686282039E+02 -0.16874098675E+03  0.23960531049E+03  0.12509000000E+03 0.  0.
         25    1    4    4    0    0  0.21686324127E+02  0.10062967743E+02 -0.16326019704E+03  0.20705786633E+03  0.12509000000E+03 0.  0.
<mgrwt>
<rscale>  2 0.45819216E+03</rscale>
<asrwt>0</asrwt>
<pdfrwt beam="1">  1       21 0.12924799E-01 0.45819216E+03</pdfrwt>
<pdfrwt beam="2">  1       21 0.87820054E-01 0.45819216E+03</pdfrwt>
<totfact> 0.52392324E+04</totfact>
</mgrwt>
</event>
<event>
 7    0  0.4709932E-002  0.4600158E+03  0.7546771E-02  0.1024777E+00
         21   -1    0    0  502  501  0.00000000000E+00  0.00000000000E+00  0.25489286066E+03  0.25489286066E+03  0.00000000000E+00 0. -1.
         21   -1    0    0  501  502 -0.00000000000E+00 -0.00000000000E+00 -0.20755247140E+03  0.20755247140E+03  0.00000000000E+00 0. -1.
      99926    2    1    2    0    0  0.00000000000E+00  0.00000000000E+00  0.47340389259E+02  0.46244533206E+03  0.46001583960E+03 0.  0.
      99925    2    3    3    0    0  0.54806712958E+02 -0.10137934124E+03  0.50291295659E+01  0.28717611795E+03  0.26298913279E+03 0.  0.
         25    1    4    4    0    0  0.60443765942E+02 -0.46276168033E+02 -0.20958202543E+02  0.14792459878E+03  0.12509000000E+03 0.  0.
         25    1    3    3    0    0 -0.54806712958E+02  0.10137934124E+03  0.42311259694E+02  0.17526921410E+03  0.12509000000E+03 0.  0.
         25    1    4    4    0    0 -0.56370529840E+01 -0.55103173204E+02  0.25987332109E+02  0.13925151918E+03  0.12509000000E+03 0.  0.
<mgrwt>
<rscale>  2 0.46001584E+03</rscale>
<asrwt>0</asrwt>
<pdfrwt beam="1">  1       21 0.37484244E-01 0.46001584E+03</pdfrwt>
<pdfrwt beam="2">  1       21 0.30522422E-01 0.46001584E+03</pdfrwt>
<totfact> 0.65349107E+04</totfact>
</mgrwt>
</event>
<event>
 7    0  0.4709932E-002  0.4393138E+03  0.7546771E-02  0.1030958E+00
         21   -1    0    0  502  501  0.00000000000E+00  0.00000000000E+00  0.11203082463E+03  0.11203082463E+03  0.00000000000E+00 0.  1.
         21   -1    0    0  501  502 -0.00000000000E+00 -0.00000000000E+00 -0.43067753730E+03  0.43067753730E+03  0.00000000000E+00 0.  1.
      99926    2    1    2    0    0  0.00000000000E+00  0.00000000000E+00 -0.31864671267E+03  0.54270836193E+03  0.43931382702E+03 0.  0.
      99925    2    3    3    0    0 -0.68268748516E+02 -0.69849438267E+02 -0.19721824177E+03  0.34287856511E+03  0.26292795492E+03 0.  0.
         25    1    4    4    0    0 -0.39132497844E+02 -0.13668261899E+02 -0.13764745836E+03  0.19055840224E+03  0.12509000000E+03 0.  0.
         25    1    3    3    0    0  0.68268748516E+02  0.69849438267E+02 -0.12142847090E+03  0.19982979682E+03  0.12509000000E+03 0.  0.
         25    1    4    4    0    0 -0.29136250672E+02 -0.56181176368E+02 -0.59570783405E+02  0.15232016287E+03  0.12509000000E+03 0.  0.
<mgrwt>
<rscale>  2 0.43931383E+03</rscale>
<asrwt>0</asrwt>
<pdfrwt beam="1">  1       21 0.16475121E-01 0.43931383E+03</pdfrwt>
<pdfrwt beam="2">  1       21 0.63334932E-01 0.43931383E+03</pdfrwt>
<totfact> 0.70730130E+04</totfact>
</mgrwt>
</event>
<event>
 7    0  0.4709932E-002  0.4461919E+03  0.7546771E-02  0.1028864E+00
         21   -1    0    0  502  501  0.00000000000E+00  0.00000000000E+00  0.35215743935E+03  0.35215743935E+03  0.00000000000E+00 0. -1.
         21   -1    0    0  501  502 -0.00000000000E+00 -0.00000000000E+00 -0.14133394415E+03  0.14133394415E+03  0.00000000000E+00 0. -1.
      99926    2    1    2    0    0 -0.14210854715E-13  0.14210854715E-13  0.21082349521E+03  0.49349138350E+03  0.44619188636E+03 0.  0.
      99925    2    3    3    0    0 -0.74851782907E+02  0.62606612252E+02  0.91907639118E+02  0.29522170293E+03  0.26303319648E+03 0.  0.
         25    1    4    4    0    0 -0.12826030879E+02 -0.40071748798E+01  0.43740389690E+02  0.13319645006E+03  0.12509000000E+03 0.  0.
         25    1    4    4    0    0 -0.62025752028E+02  0.66613787132E+02  0.48167249428E+02  0.16202525287E+03  0.12509000000E+03 0.  0.
         25    1    3    3    0    0  0.74851782907E+02 -0.62606612252E+02  0.11891585609E+03  0.19826968057E+03  0.12509000000E+03 0.  0.
<mgrwt>
<rscale>  2 0.44619189E+03</rscale>
<asrwt>0</asrwt>
<pdfrwt beam="1">  1       21 0.51787858E-01 0.44619189E+03</pdfrwt>
<pdfrwt beam="2">  1       21 0.20784404E-01 0.44619189E+03</pdfrwt>
<totfact> 0.70534675E+04</totfact>
</mgrwt>
</event>
<event>
 7    0  0.4709932E-002  0.4370567E+03  0.7546771E-02  0.1031654E+00
         21   -1    0    0  502  501  0.00000000000E+00  0.00000000000E+00  0.95013199401E+02  0.95013199401E+02  0.00000000000E+00 0.  1.
         21   -1    0    0  501  502 -0.00000000000E+00 -0.00000000000E+00 -0.50261056931E+03  0.50261056931E+03  0.00000000000E+00 0.  1.
      99926    2    1    2    0    0  0.14210854715E-13  0.71054273576E-14 -0.40759736990E+03  0.59762376871E+03  0.43705669309E+03 0.  0.
      99925    2    3    3    0    0 -0.77086722064E+02 -0.54417607537E+02 -0.28057054867E+03  0.39591367937E+03  0.26291475805E+03 0.  0.
         25    1    3    3    0    0  0.77086722064E+02  0.54417607537E+02 -0.12702682123E+03  0.20171008934E+03  0.12509000000E+03 0.  0.
         25    1    4    4    0    0 -0.70194442733E+02 -0.49098926325E+02 -0.17875709250E+03  0.23439191662E+03  0.12509000000E+03 0.  0.
         25    1    4    4    0    0 -0.68922793315E+01 -0.53186812118E+01 -0.10181345617E+03  0.16152176275E+03  0.12509000000E+03 0.  0.
<mgrwt>
<rscale>  2 0.43705669E+03</rscale>
<asrwt>0</asrwt>
<pdfrwt beam="1">  1       21 0.13972529E-01 0.43705669E+03</pdfrwt>
<pdfrwt beam="2">  1       21 0.73913320E-01 0.43705669E+03</pdfrwt>
<totfact> 0.67959103E+04</totfact>
</mgrwt>
</event>
<event>
 7    0  0.4709932E-002  0.4570894E+03  0.7546771E-02  0.1025629E+00
         21   -1    0    0  502  501  0.00000000000E+00  0.00000000000E+00  0.17907257410E+04  0.17907257410E+04  0.00000000000E+00 0.  1.
         21   -1    0    0  501  502 -0.00000000000E+00 -0.00000000000E+00 -0.29168441873E+02  0.29168441873E+02  0.00000000000E+00 0.  1.
      99926    2    1    2    0    0  0.00000000000E+00  0.00000000000E+00  0.17615572991E+04  0.18198941829E+04  0.45708939907E+03 0.  0.
      99925    2    3    3    0    0  0.85090187368E+02 -0.50841424486E+02  0.87331264093E+03  0.91742464248E+03  0.26299774787E+03 0.  0.
         25    1    4    4    0    0  0.79293065540E+02 -0.30653622689E+02  0.40788042298E+03  0.43501837016E+03  0.12509000000E+03 0.  0.
         25    1    3    3    0    0 -0.85090187368E+02  0.50841424486E+02  0.88824465818E+03  0.90246954038E+03  0.12509000000E+03 0.  0.
         25    1    4    4    0    0  0.57971218278E+01 -0.20187801797E+02  0.46543221795E+03  0.48240627232E+03  0.12509000000E+03 0.  0.
<mgrwt>
<rscale>  2 0.45708940E+03</rscale>
<asrwt>0</asrwt>
<pdfrwt beam="1">  1       21 0.26334195E+00 0.45708940E+03</pdfrwt>
<pdfrwt beam="2">  1       21 0.42894780E-02 0.45708940E+03</pdfrwt>
<totfact> 0.16609286E+04</totfact>
</mgrwt>
</event>
<event>
 7    0  0.4709932E-002  0.4217748E+03  0.7546771E-02  0.1036490E+00
         21   -1    0    0  502  501  0.00000000000E+00  0.00000000000E+00  0.87652576965E+02  0.87652576965E+02  0.00000000000E+00 0. -1.
         21   -1    0    0  501  502 -0.00000000000E+00 -0.00000000000E+00 -0.50738373746E+03  0.50738373746E+03  0.00000000000E+00 0. -1.
      99926    2    1    2    0    0  0.17763568394E-14  0.00000000000E+00 -0.41973116050E+03  0.59503631443E+03  0.42177478397E+03 0.  0.
      99925    2    3    3    0    0  0.50281936168E+01 -0.73155022553E+02 -0.23624422232E+03  0.36117331043E+03  0.26316893345E+03 0.  0.
         25    1    3    3    0    0 -0.50281936168E+01  0.73155022553E+02 -0.18348693818E+03  0.23386300399E+03  0.12509000000E+03 0.  0.
         25    1    4    4    0    0  0.18344787409E+02 -0.70432406292E+02 -0.10120801909E+03  0.17660075399E+03  0.12509000000E+03 0.  0.
         25    1    4    4    0    0 -0.13316593792E+02 -0.27226162605E+01 -0.13503620323E+03  0.18457255645E+03  0.12509000000E+03 0.  0.
<mgrwt>
<rscale>  2 0.42177478E+03</rscale>
<asrwt>0</asrwt>
<pdfrwt beam="1">  1       21 0.12890085E-01 0.42177478E+03</pdfrwt>
<pdfrwt beam="2">  1       21 0.74615254E-01 0.42177478E+03</pdfrwt>
<totfact> 0.77385544E+04</totfact>
</mgrwt>
</event>
<event>
 7    0  0.4709932E-002  0.4538883E+03  0.7546771E-02  0.1026569E+00
         21   -1    0    0  502  501  0.00000000000E+00  0.00000000000E+00  0.51051821616E+03  0.51051821616E+03  0.00000000000E+00 0. -1.
         21   -1    0    0  501  502 -0.00000000000E+00 -0.00000000000E+00 -0.10088503321E+03  0.10088503321E+03  0.00000000000E+00 0. -1.
      99926    2    1    2    0    0  0.00000000000E+00  0.00000000000E+00  0.40963318295E+03  0.61140324936E+03  0.45388829987E+03 0.  0.
      99925    2    3    3    0    0 -0.44070479251E+02  0.13640794729E+01  0.39660079899E+03  0.47813127562E+03  0.26338803145E+03 0.  0.
         25    1    3    3    0    0  0.44070479251E+02 -0.13640794729E+01  0.13032383965E+02  0.13327197375E+03  0.12509000000E+03 0.  0.
         25    1    4    4    0    0 -0.60349348433E+02 -0.14547026515E+02  0.21815343165E+03  0.25902140390E+03  0.12509000000E+03 0.  0.
         25    1    4    4    0    0  0.16278869182E+02  0.15911105988E+02  0.17844736734E+03  0.21910987172E+03  0.12509000000E+03 0.  0.
<mgrwt>
<rscale>  2 0.45388830E+03</rscale>
<asrwt>0</asrwt>
<pdfrwt beam="1">  1       21 0.75076207E-01 0.45388830E+03</pdfrwt>
<pdfrwt beam="2">  1       21 0.14836035E-01 0.45388830E+03</pdfrwt>
<totfact> 0.58493737E+04</totfact>
</mgrwt>
</event>
<event>
 7    0  0.4709932E-002  0.4544170E+03  0.7546771E-02  0.1026413E+00
         21   -1    0    0  502  501  0.00000000000E+00  0.00000000000E+00  0.54315994478E+02  0.54315994478E+02  0.00000000000E+00 0. -1.
         21   -1    0    0  501  502 -0.00000000000E+00 -0.00000000000E+00 -0.95043260965E+03  0.95043260965E+03  0.00000000000E+00 0. -1.
      99926    2    1    2    0    0  0.00000000000E+00  0.17763568394E-14 -0.89611661517E+03  0.10047486041E+04  0.45441695557E+03 0.  0.
      99925    2    3    3    0    0  0.81843887325E+02 -0.45162655293E+01 -0.73425469444E+03  0.78437254365E+03  0.26342268768E+03 0.  0.
         25    1    4    4    0    0  0.19306451897E+02  0.21083669763E+02 -0.42609601141E+03  0.44499728005E+03  0.12509000000E+03 0.  0.
         25    1    3    3    0    0 -0.81843887325E+02  0.45162655293E+01 -0.16186192073E+03  0.22037606047E+03  0.12509000000E+03 0.  0.
         25    1    4    4    0    0  0.62537435427E+02 -0.25599935293E+02 -0.30815868303E+03  0.33937526360E+03  0.12509000000E+03 0.  0.
<mgrwt>
<rscale>  2 0.45441696E+03</rscale>
<asrwt>0</asrwt>
<pdfrwt beam="1">  1       21 0.79876465E-02 0.45441696E+03</pdfrwt>
<pdfrwt beam="2">  1       21 0.13976950E+00 0.45441696E+03</pdfrwt>
<totfact> 0.39160602E+04</totfact>
</mgrwt>
</event>
<event>
 7    0  0.4709932E-002  0.4738724E+03  0.7546771E-02  0.1020833E+00
         21   -1    0    0  502  501  0.00000000000E+00  0.00000000000E+00  0.27233743611E+02  0.27233743611E+02  0.00000000000E+00 0.  1.
         21   -1    0    0  501  502 -0.00000000000E+00 -0.00000000000E+00 -0.20613679707E+04  0.20613679707E+04  0.00000000000E+00 0.  1.
      99926    2    1    2    0    0  0.00000000000E+00 -0.13322676296E-14 -0.20341342271E+04  0.20886017144E+04  0.47387241660E+03 0.  0.
      99925    2    3    3    0    0 -0.10679300424E+03 -0.30045552724E+01 -0.93252704652E+03  0.97477961834E+03  0.26301110000E+03 0.  0.
         25    1    4    4    0    0 -0.22583176126E+02 -0.17940675623E+02 -0.50978849684E+03  0.52570304098E+03  0.12509000000E+03 0.  0.
         25    1    4    4    0    0 -0.84209828112E+02  0.14936120351E+02 -0.42273854969E+03  0.44907657736E+03  0.12509000000E+03 0.  0.
         25    1    3    3    0    0  0.10679300424E+03  0.30045552724E+01 -0.11016071806E+04  0.11138220960E+04  0.12509000000E+03 0.  0.
<mgrwt>
<rscale>  2 0.47387242E+03</rscale>
<asrwt>0</asrwt>
<pdfrwt beam="1">  1       21 0.40049624E-02 0.47387242E+03</pdfrwt>
<pdfrwt beam="2">  1       21 0.30314234E+00 0.47387242E+03</pdfrwt>
<totfact> 0.10666267E+04</totfact>
</mgrwt>
</event>
<event>
 7    0  0.4709932E-002  0.4610150E+03  0.7546771E-02  0.1024487E+00
         21   -1    0    0  502  501  0.00000000000E+00  0.00000000000E+00  0.41995823766E+03  0.41995823766E+03  0.00000000000E+00 0. -1.
         21   -1    0    0  501  502 -0.00000000000E+00 -0.00000000000E+00 -0.12652140801E+03  0.12652140801E+03  0.00000000000E+00 0. -1.
      99926    2    1    2    0    0  0.00000000000E+00  0.00000000000E+00  0.29343682965E+03  0.54647964568E+03  0.46101499991E+03 0.  0.
      99925    2    3    3    0    0  0.25568710821E+02  0.80056497952E+02  0.28305925361E+03  0.39542335146E+03  0.26301004542E+03 0.  0.
         25    1    4    4    0    0  0.30168112227E+00  0.42086094419E+02  0.19616858218E+03  0.23643381968E+03  0.12509000000E+03 0.  0.
         25    1    4    4    0    0  0.25267029699E+02  0.37970403533E+02  0.86890671436E+02  0.15898953178E+03  0.12509000000E+03 0.  0.
         25    1    3    3    0    0 -0.25568710821E+02 -0.80056497952E+02  0.10377576035E+02  0.15105629421E+03  0.12509000000E+03 0.  0.
<mgrwt>
<rscale>  2 0.46101500E+03</rscale>
<asrwt>0</asrwt>
<pdfrwt beam="1">  1       21 0.61758564E-01 0.46101500E+03</pdfrwt>
<pdfrwt beam="2">  1       21 0.18606090E-01 0.46101500E+03</pdfrwt>
<totfact> 0.59229940E+04</totfact>
</mgrwt>
</event>
<event>
 7    0  0.4709932E-002  0.4519843E+03  0.7546771E-02  0.1027132E+00
         21   -1    0    0  502  501  0.00000000000E+00  0.00000000000E+00  0.65785529708E+02  0.65785529708E+02  0.00000000000E+00 0.  1.
         21   -1    0    0  501  502 -0.00000000000E+00 -0.00000000000E+00 -0.77634791813E+03  0.77634791813E+03  0.00000000000E+00 0.  1.
      99926    2    1    2    0    0 -0.14210854715E-13  0.00000000000E+00 -0.71056238842E+03  0.84213344784E+03  0.45198433173E+03 0.  0.
      99925    2    3    3    0    0 -0.84695674374E+02 -0.32562567107E+02 -0.56522718265E+03  0.62999314480E+03  0.26301314883E+03 0.  0.
         25    1    4    4    0    0 -0.54514703049E+02  0.22437224234E+02 -0.28099045242E+03  0.31317475047E+03  0.12509000000E+03 0.  0.
         25    1    3    3    0    0  0.84695674374E+02  0.32562567107E+02 -0.14533520577E+03  0.21214030303E+03  0.12509000000E+03 0.  0.
         25    1    4    4    0    0 -0.30180971326E+02 -0.54999791341E+02 -0.28423673023E+03  0.31681839434E+03  0.12509000000E+03 0.  0.
<mgrwt>
<rscale>  2 0.45198433E+03</rscale>
<asrwt>0</asrwt>
<pdfrwt beam="1">  1       21 0.96743437E-02 0.45198433E+03</pdfrwt>
<pdfrwt beam="2">  1       21 0.11416880E+00 0.45198433E+03</pdfrwt>
<totfact> 0.46892963E+04</totfact>
</mgrwt>
</event>
<event>
 7    0  0.4709932E-002  0.4660455E+03  0.7546771E-02  0.1023042E+00
         21   -1    0    0  502  501  0.00000000000E+00  0.00000000000E+00  0.21093808501E+03  0.21093808501E+03  0.00000000000E+00 0. -1.
         21   -1    0    0  501  502 -0.00000000000E+00 -0.00000000000E+00 -0.25741958178E+03  0.25741958178E+03  0.00000000000E+00 0. -1.
      99926    2    1    2    0    0 -0.14210854715E-13  0.00000000000E+00 -0.46481496766E+02  0.46835766679E+03  0.46604546399E+03 0.  0.
      99925    2    3    3    0    0  0.10747859830E+03  0.59147381141E+02 -0.34026972697E+02  0.29270834269E+03  0.26357214804E+03 0.  0.
         25    1    4    4    0    0  0.16694819843E+02  0.23976024230E+02 -0.38597419950E+02  0.13412992088E+03  0.12509000000E+03 0.  0.
         25    1    4    4    0    0  0.90783778453E+02  0.35171356911E+02  0.45704472528E+01  0.15857842181E+03  0.12509000000E+03 0.  0.
         25    1    3    3    0    0 -0.10747859830E+03 -0.59147381141E+02 -0.12454524070E+02  0.17564932410E+03  0.12509000000E+03 0.  0.
<mgrwt>
<rscale>  2 0.46604546E+03</rscale>
<asrwt>0</asrwt>
<pdfrwt beam="1">  1       21 0.31020307E-01 0.46604546E+03</pdfrwt>
<pdfrwt beam="2">  1       21 0.37855821E-01 0.46604546E+03</pdfrwt>
<totfact> 0.61937113E+04</totfact>
</mgrwt>
</event>
<event>
 7    0  0.4709932E-002  0.4467382E+03  0.7546771E-02  0.1028699E+00
         21   -1    0    0  502  501  0.00000000000E+00  0.00000000000E+00  0.40006845270E+03  0.40006845270E+03  0.00000000000E+00 0.  1.
         21   -1    0    0  501  502 -0.00000000000E+00 -0.00000000000E+00 -0.12471302709E+03  0.12471302709E+03  0.00000000000E+00 0.  1.
      99926    2    1    2    0    0  0.00000000000E+00  0.00000000000E+00  0.27535542562E+03  0.52478147979E+03  0.44673816841E+03 0.  0.
      99925    2    3    3    0    0  0.59334926174E+02 -0.71311539616E+02  0.23377908214E+03  0.36359193428E+03  0.26256516578E+03 0.  0.
         25    1    4    4    0    0  0.13837511568E+02 -0.72485201079E+02  0.11654202740E+03  0.18621260256E+03  0.12509000000E+03 0.  0.
         25    1    3    3    0    0 -0.59334926174E+02  0.71311539616E+02  0.41576343478E+02  0.16118954552E+03  0.12509000000E+03 0.  0.
         25    1    4    4    0    0  0.45497414605E+02  0.11736614633E+01  0.11723705474E+03  0.17737933172E+03  0.12509000000E+03 0.  0.
<mgrwt>
<rscale>  2 0.44673817E+03</rscale>
<asrwt>0</asrwt>
<pdfrwt beam="1">  1       21 0.58833595E-01 0.44673817E+03</pdfrwt>
<pdfrwt beam="2">  1       21 0.18340151E-01 0.44673817E+03</pdfrwt>
<totfact> 0.67897614E+04</totfact>
</mgrwt>
</event>
<event>
 7    0  0.4709932E-002  0.4628032E+03  0.7546771E-02  0.1023971E+00
         21   -1    0    0  502  501  0.00000000000E+00  0.00000000000E+00  0.35803893041E+03  0.35803893041E+03  0.00000000000E+00 0. -1.
         21   -1    0    0  501  502 -0.00000000000E+00 -0.00000000000E+00 -0.14955551255E+03  0.14955551255E+03  0.00000000000E+00 0. -1.
      99926    2    1    2    0    0  0.00000000000E+00  0.00000000000E+00  0.20848341786E+03  0.50759444297E+03  0.46280317956E+03 0.  0.
      99925    2    3    3    0    0 -0.11964209685E+03  0.13005327047E+02  0.13208329112E+03  0.31794250563E+03  0.26297922204E+03 0.  0.
         25    1    3    3    0    0  0.11964209685E+03 -0.13005327047E+02  0.76400126746E+02  0.18965193734E+03  0.12509000000E+03 0.  0.
         25    1    4    4    0    0 -0.57795441586E+02  0.34515605271E+02  0.34119554951E+02  0.14609343656E+03  0.12509000000E+03 0.  0.
         25    1    4    4    0    0 -0.61846655262E+02 -0.21510278224E+02  0.97963736165E+02  0.17184906907E+03  0.12509000000E+03 0.  0.
<mgrwt>
<rscale>  2 0.46280318E+03</rscale>
<asrwt>0</asrwt>
<pdfrwt beam="1">  1       21 0.52652784E-01 0.46280318E+03</pdfrwt>
<pdfrwt beam="2">  1       21 0.21993458E-01 0.46280318E+03</pdfrwt>
<totfact> 0.60881183E+04</totfact>
</mgrwt>
</event>
<event>
 7    0  0.4709932E-002  0.4516394E+03  0.7546771E-02  0.1027234E+00
         21   -1    0    0  502  501  0.00000000000E+00  0.00000000000E+00  0.10584609543E+03  0.10584609543E+03  0.00000000000E+00 0. -1.
         21   -1    0    0  501  502 -0.00000000000E+00 -0.00000000000E+00 -0.48177998738E+03  0.48177998738E+03  0.00000000000E+00 0. -1.
      99926    2    1    2    0    0 -0.14210854715E-13  0.00000000000E+00 -0.37593389195E+03  0.58762608281E+03  0.45163937172E+03 0.  0.
      99925    2    3    3    0    0 -0.64068508507E+02  0.35107447304E+02 -0.13046162889E+03  0.30259723047E+03  0.26307326097E+03 0.  0.
         25    1    3    3    0    0  0.64068508507E+02 -0.35107447304E+02 -0.24547226306E+03  0.28502885235E+03  0.12509000000E+03 0.  0.
         25    1    4    4    0    0  0.14683114115E+01  0.22172733694E+02 -0.35450561731E+02  0.13190161669E+03  0.12509000000E+03 0.  0.
         25    1    4    4    0    0 -0.65536819918E+02  0.12934713610E+02 -0.95011067157E+02  0.17069561378E+03  0.12509000000E+03 0.  0.
<mgrwt>
<rscale>  2 0.45163937E+03</rscale>
<asrwt>0</asrwt>
<pdfrwt beam="1">  1       21 0.15565602E-01 0.45163937E+03</pdfrwt>
<pdfrwt beam="2">  1       21 0.70849999E-01 0.45163937E+03</pdfrwt>
<totfact> 0.61052038E+04</totfact>
</mgrwt>
</event>
<event>
 7    0  0.4709932E-002  0.4569794E+03  0.7546771E-02  0.1025661E+00
         21   -1    0    0  502  501  0.00000000000E+00  0.00000000000E+00  0.29425130269E+03  0.29425130269E+03  0.00000000000E+00 0. -1.
         21   -1    0    0  501  502 -0.00000000000E+00 -0.00000000000E+00 -0.17742500082E+03  0.17742500082E+03  0.00000000000E+00 0. -1.
      99926    2    1    2    0    0  0.00000000000E+00  0.00000000000E+00  0.11682630188E+03  0.47167630351E+03  0.45697937643E+03 0.  0.
      99925    2    3    3    0    0 -0.11065788429E+03 -0.19790976752E+02  0.97832432155E+02  0.30242759509E+03  0.26316233654E+03 0.  0.
         25    1    4    4    0    0 -0.52185018609E+02  0.33673441135E+01  0.88910516174E+02  0.16213328825E+03  0.12509000000E+03 0.  0.
         25    1    4    4    0    0 -0.58472865679E+02 -0.23158320865E+02  0.89219159810E+01  0.14029430684E+03  0.12509000000E+03 0.  0.
         25    1    3    3    0    0  0.11065788429E+03  0.19790976752E+02  0.18993869722E+02  0.16924870842E+03  0.12509000000E+03 0.  0.
<mgrwt>
<rscale>  2 0.45697938E+03</rscale>
<asrwt>0</asrwt>
<pdfrwt beam="1">  1       21 0.43272251E-01 0.45697938E+03</pdfrwt>
<pdfrwt beam="2">  1       21 0.26091912E-01 0.45697938E+03</pdfrwt>
<totfact> 0.66264590E+04</totfact>
</mgrwt>
</event>
<event>
 7    0  0.4709932E-002  0.4501495E+03  0.7546771E-02  0.1027677E+00
         21   -1    0    0  502  501  0.00000000000E+00  0.00000000000E+00  0.35141280306E+03  0.35141280306E+03  0.00000000000E+00 0.  1.
         21   -1    0    0  501  502 -0.00000000000E+00 -0.00000000000E+00 -0.14415707309E+03  0.14415707309E+03  0.00000000000E+00 0.  1.
      99926    2    1    2    0    0 -0.71054273576E-14  0.00000000000E+00  0.20725572996E+03  0.49556987615E+03  0.45014949133E+03 0.  0.
      99925    2    3    3    0    0 -0.43078585941E+02 -0.99509373811E+02  0.12374572332E+03  0.31015329288E+03  0.26291477897E+03 0.  0.
         25    1    3    3    0    0  0.43078585941E+02  0.99509373811E+02  0.83510006647E+02  0.18541658327E+03  0.12509000000E+03 0.  0.
         25    1    4    4    0    0 -0.58714587031E+02 -0.42398646917E+02  0.78884829257E+02  0.16466745998E+03  0.12509000000E+03 0.  0.
         25    1    4    4    0    0  0.15636001090E+02 -0.57110726894E+02  0.44860894060E+02  0.14548583289E+03  0.12509000000E+03 0.  0.
<mgrwt>
<rscale>  2 0.45014949E+03</rscale>
<asrwt>0</asrwt>
<pdfrwt beam="1">  1       21 0.51678353E-01 0.45014949E+03</pdfrwt>
<pdfrwt beam="2">  1       21 0.21199570E-01 0.45014949E+03</pdfrwt>
<totfact> 0.68170313E+04</totfact>
</mgrwt>
</event>
<event>
 7    0  0.4709932E-002  0.4538261E+03  0.7546771E-02  0.1026587E+00
         21   -1    0    0  502  501  0.00000000000E+00  0.00000000000E+00  0.62678568640E+03  0.62678568640E+03  0.00000000000E+00 0.  1.
         21   -1    0    0  501  502 -0.00000000000E+00 -0.00000000000E+00 -0.82148563063E+02  0.82148563063E+02  0.00000000000E+00 0.  1.
      99926    2    1    2    0    0 -0.71054273576E-14  0.00000000000E+00  0.54463712334E+03  0.70893424946E+03  0.45382614947E+03 0.  0.
      99925    2    3    3    0    0 -0.47651748417E+02  0.40832120277E+02  0.19833601093E+03  0.33542398224E+03  0.26312377972E+03 0.  0.
         25    1    4    4    0    0  0.16741962315E+02  0.15481726216E+02  0.10242619224E+03  0.16327464624E+03  0.12509000000E+03 0.  0.
         25    1    3    3    0    0  0.47651748417E+02 -0.40832120277E+02  0.34630111240E+03  0.37351026723E+03  0.12509000000E+03 0.  0.
         25    1    4    4    0    0 -0.64393710732E+02  0.25350394060E+02  0.95909818692E+02  0.17214933599E+03  0.12509000000E+03 0.  0.
<mgrwt>
<rscale>  2 0.45382615E+03</rscale>
<asrwt>0</asrwt>
<pdfrwt beam="1">  1       21 0.92174363E-01 0.45382615E+03</pdfrwt>
<pdfrwt beam="2">  1       21 0.12080671E-01 0.45382615E+03</pdfrwt>
<totfact> 0.52907524E+04</totfact>
</mgrwt>
</event>
<event>
 7    0  0.4709932E-002  0.4542400E+03  0.7546771E-02  0.1026465E+00
         21   -1    0    0  502  501  0.00000000000E+00  0.00000000000E+00  0.20176030450E+03  0.20176030450E+03  0.00000000000E+00 0.  1.
         21   -1    0    0  501  502 -0.00000000000E+00 -0.00000000000E+00 -0.25566725862E+03  0.25566725862E+03  0.00000000000E+00 0.  1.
      99926    2    1    2    0    0  0.00000000000E+00  0.00000000000E+00 -0.53906954128E+02  0.45742756312E+03  0.45424004205E+03 0.  0.
      99925    2    3    3    0    0 -0.69156068100E+02  0.48080122931E+02  0.41072218918E+02  0.27920632031E+03  0.26301137268E+03 0.  0.
         25    1    4    4    0    0 -0.27008355596E+02  0.57555295457E+02 -0.10552172503E+01  0.14032350085E+03  0.12509000000E+03 0.  0.
         25    1    3    3    0    0  0.69156068100E+02 -0.48080122931E+02 -0.94979173046E+02  0.17822124281E+03  0.12509000000E+03 0.  0.
         25    1    4    4    0    0 -0.42147712504E+02 -0.94751725257E+01  0.42127436168E+02  0.13888281946E+03  0.12509000000E+03 0.  0.
<mgrwt>
<rscale>  2 0.45424004E+03</rscale>
<asrwt>0</asrwt>
<pdfrwt beam="1">  1       21 0.29670633E-01 0.45424004E+03</pdfrwt>
<pdfrwt beam="2">  1       21 0.37598126E-01 0.45424004E+03</pdfrwt>
<totfact> 0.68784318E+04</totfact>
</mgrwt>
</event>
<event>
 7    0  0.4709932E-002  0.4409139E+03  0.7546771E-02  0.1030467E+00
         21   -1    0    0  502  501  0.00000000000E+00  0.00000000000E+00  0.62630144760E+03  0.62630144760E+03  0.00000000000E+00 0.  1.
         21   -1    0    0  501  502 -0.00000000000E+00 -0.00000000000E+00 -0.77600453629E+02  0.77600453629E+02  0.00000000000E+00 0.  1.
      99926    2    1    2    0    0  0.00000000000E+00  0.00000000000E+00  0.54870099397E+03  0.70390190123E+03  0.44091394372E+03 0.  0.
      99925    2    3    3    0    0  0.30997090978E+02 -0.71912687956E+02  0.44749533159E+03  0.52495400787E+03  0.26304445299E+03 0.  0.
         25    1    4    4    0    0 -0.15948071402E+02 -0.48250642638E+02  0.26643246587E+03  0.29869086438E+03  0.12509000000E+03 0.  0.
         25    1    4    4    0    0  0.46945162380E+02 -0.23662045318E+02  0.18106286572E+03  0.22626314349E+03  0.12509000000E+03 0.  0.
         25    1    3    3    0    0 -0.30997090978E+02  0.71912687956E+02  0.10120566238E+03  0.17894789336E+03  0.12509000000E+03 0.  0.
<mgrwt>
<rscale>  2 0.44091394E+03</rscale>
<asrwt>0</asrwt>
<pdfrwt beam="1">  1       21 0.92103152E-01 0.44091394E+03</pdfrwt>
<pdfrwt beam="2">  1       21 0.11411832E-01 0.44091394E+03</pdfrwt>
<totfact> 0.58960000E+04</totfact>
</mgrwt>
</event>
<event>
 7    0  0.4709932E-002  0.4511855E+03  0.7546771E-02  0.1027369E+00
         21   -1    0    0  502  501  0.00000000000E+00  0.00000000000E+00  0.13110626608E+03  0.13110626608E+03  0.00000000000E+00 0.  1.
         21   -1    0    0  501  502 -0.00000000000E+00 -0.00000000000E+00 -0.38817434963E+03  0.38817434963E+03  0.00000000000E+00 0.  1.
      99926    2    1    2    0    0  0.35527136788E-14  0.00000000000E+00 -0.25706808355E+03  0.51928061571E+03  0.45118550318E+03 0.  0.
      99925    2    3    3    0    0 -0.18902484912E+02 -0.41517536459E+02 -0.27742105507E+03  0.38458554780E+03  0.26241682876E+03 0.  0.
         25    1    4    4    0    0 -0.47032779335E+02 -0.29878785352E+02 -0.12932366308E+03  0.18835323751E+03  0.12509000000E+03 0.  0.
         25    1    4    4    0    0  0.28130294423E+02 -0.11638751107E+02 -0.14809739199E+03  0.19623231030E+03  0.12509000000E+03 0.  0.
         25    1    3    3    0    0  0.18902484912E+02  0.41517536459E+02  0.20352971522E+02  0.13469506791E+03  0.12509000000E+03 0.  0.
<mgrwt>
<rscale>  2 0.45118550E+03</rscale>
<asrwt>0</asrwt>
<pdfrwt beam="1">  1       21 0.19280333E-01 0.45118550E+03</pdfrwt>
<pdfrwt beam="2">  1       21 0.57084463E-01 0.45118550E+03</pdfrwt>
<totfact> 0.65908325E+04</totfact>
</mgrwt>
</event>
<event>
 7    0  0.4709932E-002  0.4576357E+03  0.7546771E-02  0.1025469E+00
         21   -1    0    0  502  501  0.00000000000E+00  0.00000000000E+00  0.18831481307E+03  0.18831481307E+03  0.00000000000E+00 0. -1.
         21   -1    0    0  501  502 -0.00000000000E+00 -0.00000000000E+00 -0.27803229798E+03  0.27803229798E+03  0.00000000000E+00 0. -1.
      99926    2    1    2    0    0  0.00000000000E+00  0.35527136788E-14 -0.89717484909E+02  0.46634711106E+03  0.45763566392E+03 0.  0.
      99925    2    3    3    0    0 -0.10889329163E+03  0.30359260280E+02 -0.31567906246E+02  0.28799825279E+03  0.26299624952E+03 0.  0.
         25    1    3    3    0    0  0.10889329163E+03 -0.30359260280E+02 -0.58149578663E+02  0.17834885827E+03  0.12509000000E+03 0.  0.
         25    1    4    4    0    0 -0.64491572276E+02 -0.21498676186E+02 -0.29934868195E+02  0.14548182157E+03  0.12509000000E+03 0.  0.
         25    1    4    4    0    0 -0.44401719352E+02  0.51857936466E+02 -0.16330380510E+01  0.14251643123E+03  0.12509000000E+03 0.  0.
<mgrwt>
<rscale>  2 0.45763566E+03</rscale>
<asrwt>0</asrwt>
<pdfrwt beam="1">  1       21 0.27693355E-01 0.45763566E+03</pdfrwt>
<pdfrwt beam="2">  1       21 0.40887103E-01 0.45763566E+03</pdfrwt>
<totfact> 0.66310107E+04</totfact>
</mgrwt>
</event>
<event>
 7    0  0.4709932E-002  0.4608928E+03  0.7546771E-02  0.1024523E+00
         21   -1    0    0  502  501  0.00000000000E+00  0.00000000000E+00  0.17252432276E+04  0.17252432276E+04  0.00000000000E+00 0. -1.
         21   -1    0    0  501  502 -0.00000000000E+00 -0.00000000000E+00 -0.30781478686E+02  0.30781478686E+02  0.00000000000E+00 0. -1.
      99926    2    1    2    0    0 -0.35527136788E-14  0.00000000000E+00  0.16944617489E+04  0.17560247063E+04  0.46089277555E+03 0.  0.
      99925    2    3    3    0    0  0.94148440007E+01  0.44918863469E+02  0.64377368291E+03  0.69692165950E+03  0.26296178635E+03 0.  0.
         25    1    3    3    0    0 -0.94148440007E+01 -0.44918863469E+02  0.10506880660E+04  0.10591030468E+04  0.12509000000E+03 0.  0.
         25    1    4    4    0    0  0.42502709085E+02  0.32988506733E+02  0.35675867270E+03  0.38186251518E+03  0.12509000000E+03 0.  0.
         25    1    4    4    0    0 -0.33087865084E+02  0.11930356736E+02  0.28701501021E+03  0.31505914431E+03  0.12509000000E+03 0.  0.
<mgrwt>
<rscale>  2 0.46089278E+03</rscale>
<asrwt>0</asrwt>
<pdfrwt beam="1">  1       21 0.25371217E+00 0.46089278E+03</pdfrwt>
<pdfrwt beam="2">  1       21 0.45266892E-02 0.46089278E+03</pdfrwt>
<totfact> 0.17314212E+04</totfact>
</mgrwt>
</event>
<event>
 7    0  0.4709932E-002  0.4560852E+03  0.7546771E-02  0.1025923E+00
         21   -1    0    0  502  501  0.00000000000E+00  0.00000000000E+00  0.81423637428E+03  0.81423637428E+03  0.00000000000E+00 0. -1.
         21   -1    0    0  501  502 -0.00000000000E+00 -0.00000000000E+00 -0.63867717780E+02  0.63867717780E+02  0.00000000000E+00 0. -1.
      99926    2    1    2    0    0  0.00000000000E+00  0.00000000000E+00  0.75036865650E+03  0.87810409206E+03  0.45608516292E+03 0.  0.
      99925    2    3    3    0    0 -0.63816709503E+02  0.70701745638E+02  0.35031448873E+03  0.44826440741E+03  0.26296278956E+03 0.  0.
         25    1    4    4    0    0 -0.97834689457E+01 -0.14781949208E+01  0.15659779960E+03  0.20066957982E+03  0.12509000000E+03 0.  0.
         25    1    4    4    0    0 -0.54033240557E+02  0.72179940559E+02  0.19371668913E+03  0.24759482760E+03  0.12509000000E+03 0.  0.
         25    1    3    3    0    0  0.63816709503E+02 -0.70701745638E+02  0.40005416777E+03  0.42983968464E+03  0.12509000000E+03 0.  0.
<mgrwt>
<rscale>  2 0.45608516E+03</rscale>
<asrwt>0</asrwt>
<pdfrwt beam="1">  1       21 0.11974064E+00 0.45608516E+03</pdfrwt>
<pdfrwt beam="2">  1       21 0.93923119E-02 0.45608516E+03</pdfrwt>
<totfact> 0.43820341E+04</totfact>
</mgrwt>
</event>
<event>
 7    0  0.4709932E-002  0.4556096E+03  0.7546771E-02  0.1026062E+00
         21   -1    0    0  502  501  0.00000000000E+00  0.00000000000E+00  0.31823235570E+03  0.31823235570E+03  0.00000000000E+00 0.  1.
         21   -1    0    0  501  502 -0.00000000000E+00 -0.00000000000E+00 -0.16307273499E+03  0.16307273499E+03  0.00000000000E+00 0.  1.
      99926    2    1    2    0    0  0.00000000000E+00  0.00000000000E+00  0.15515962071E+03  0.48130509069E+03  0.45560957236E+03 0.  0.
      99925    2    3    3    0    0  0.43513396095E+02  0.71507284549E+02  0.16273241091E+02  0.27650362115E+03  0.26302609518E+03 0.  0.
         25    1    3    3    0    0 -0.43513396095E+02 -0.71507284549E+02  0.13888637962E+03  0.20480146954E+03  0.12509000000E+03 0.  0.
         25    1    4    4    0    0  0.65715633572E+01  0.53092475002E+02 -0.25284426455E+02  0.13837921328E+03  0.12509000000E+03 0.  0.
         25    1    4    4    0    0  0.36941832738E+02  0.18414809547E+02  0.41557667546E+02  0.13812440787E+03  0.12509000000E+03 0.  0.
<mgrwt>
<rscale>  2 0.45560957E+03</rscale>
<asrwt>0</asrwt>
<pdfrwt beam="1">  1       21 0.46798876E-01 0.45560957E+03</pdfrwt>
<pdfrwt beam="2">  1       21 0.23981285E-01 0.45560957E+03</pdfrwt>
<totfact> 0.66283919E+04</totfact>
</mgrwt>
</event>
<event>
 7    0  0.4709932E-002  0.4546524E+03  0.7546771E-02  0.1026344E+00
         21   -1    0    0  502  501  0.00000000000E+00  0.00000000000E+00  0.10099638795E+03  0.10099638795E+03  0.00000000000E+00 0.  1.
         21   -1    0    0  501  502 -0.00000000000E+00 -0.00000000000E+00 -0.51167365010E+03  0.51167365010E+03  0.00000000000E+00 0.  1.
      99926    2    1    2    0    0  0.00000000000E+00  0.00000000000E+00 -0.41067726216E+03  0.61267003805E+03  0.45465235276E+03 0.  0.
      99925    2    3    3    0    0 -0.67538724912E+02  0.38659289990E+02 -0.36851714304E+03  0.45943491215E+03  0.26309605418E+03 0.  0.
         25    1    4    4    0    0  0.11822068674E+01  0.40526558219E+02 -0.18381949067E+03  0.22601086873E+03  0.12509000000E+03 0.  0.
         25    1    4    4    0    0 -0.68720931780E+02 -0.18672682288E+01 -0.18469765237E+03  0.23342404342E+03  0.12509000000E+03 0.  0.
         25    1    3    3    0    0  0.67538724912E+02 -0.38659289990E+02 -0.42160119119E+02  0.15323512590E+03  0.12509000000E+03 0.  0.
<mgrwt>
<rscale>  2 0.45465235E+03</rscale>
<asrwt>0</asrwt>
<pdfrwt beam="1">  1       21 0.14852410E-01 0.45465235E+03</pdfrwt>
<pdfrwt beam="2">  1       21 0.75246125E-01 0.45465235E+03</pdfrwt>
<totfact> 0.58064366E+04</totfact>
</mgrwt>
</event>
<event>
 7    0  0.4709932E-002  0.4506411E+03  0.7546771E-02  0.1027531E+00
         21   -1    0    0  502  501  0.00000000000E+00  0.00000000000E+00  0.55629577691E+02  0.55629577691E+02  0.00000000000E+00 0. -1.
         21   -1    0    0  501  502 -0.00000000000E+00 -0.00000000000E+00 -0.91263242729E+03  0.91263242729E+03  0.00000000000E+00 0. -1.
      99926    2    1    2    0    0  0.00000000000E+00 -0.35527136788E-14 -0.85700284960E+03  0.96826200498E+03  0.45064112781E+03 0.  0.
      99925    2    3    3    0    0  0.50854385409E+01 -0.14437558128E+02 -0.77338788513E+03  0.81702287264E+03  0.26298906588E+03 0.  0.
         25    1    3    3    0    0 -0.50854385409E+01  0.14437558128E+02 -0.83614964471E+02  0.15123913235E+03  0.12509000000E+03 0.  0.
         25    1    4    4    0    0 -0.43779984691E+01 -0.47095875229E+02 -0.40224437338E+03  0.42389294916E+03  0.12509000000E+03 0.  0.
         25    1    4    4    0    0  0.94634370100E+01  0.32658317101E+02 -0.37114351175E+03  0.39312992348E+03  0.12509000000E+03 0.  0.
<mgrwt>
<rscale>  2 0.45064113E+03</rscale>
<asrwt>0</asrwt>
<pdfrwt beam="1">  1       21 0.81808204E-02 0.45064113E+03</pdfrwt>
<pdfrwt beam="2">  1       21 0.13421065E+00 0.45064113E+03</pdfrwt>
<totfact> 0.41817013E+04</totfact>
</mgrwt>
</event>
<event>
 7    0  0.4709932E-002  0.4625770E+03  0.7546771E-02  0.1024036E+00
         21   -1    0    0  502  501  0.00000000000E+00  0.00000000000E+00  0.11854769222E+04  0.11854769222E+04  0.00000000000E+00 0.  1.
         21   -1    0    0  501  502 -0.00000000000E+00 -0.00000000000E+00 -0.45124764720E+02  0.45124764720E+02  0.00000000000E+00 0.  1.
      99926    2    1    2    0    0  0.00000000000E+00 -0.17763568394E-14  0.11403521575E+04  0.12306016870E+04  0.46257698688E+03 0.  0.
      99925    2    3    3    0    0 -0.40701554034E+02  0.14951465602E+02  0.10107131638E+04  0.10453074895E+04  0.26314726919E+03 0.  0.
         25    1    4    4    0    0 -0.50323223381E+02 -0.20279632162E+02  0.52512309436E+03  0.54253613946E+03  0.12509000000E+03 0.  0.
         25    1    4    4    0    0  0.96216693467E+01  0.35231097764E+02  0.48559006942E+03  0.50277135001E+03  0.12509000000E+03 0.  0.
         25    1    3    3    0    0  0.40701554034E+02 -0.14951465602E+02  0.12963899373E+03  0.18529419748E+03  0.12509000000E+03 0.  0.
<mgrwt>
<rscale>  2 0.46257699E+03</rscale>
<asrwt>0</asrwt>
<pdfrwt beam="1">  1       21 0.17433482E+00 0.46257699E+03</pdfrwt>
<pdfrwt beam="2">  1       21 0.66359956E-02 0.46257699E+03</pdfrwt>
<totfact> 0.29424117E+04</totfact>
</mgrwt>
</event>
<event>
 7    0  0.4709932E-002  0.4574693E+03  0.7546771E-02  0.1025518E+00
         21   -1    0    0  502  501  0.00000000000E+00  0.00000000000E+00  0.59516391371E+02  0.59516391371E+02  0.00000000000E+00 0.  1.
         21   -1    0    0  501  502 -0.00000000000E+00 -0.00000000000E+00 -0.87907780823E+03  0.87907780823E+03  0.00000000000E+00 0.  1.
      99926    2    1    2    0    0  0.71054273576E-14  0.00000000000E+00 -0.81956141686E+03  0.93859419960E+03  0.45746929462E+03 0.  0.
      99925    2    3    3    0    0 -0.43306548146E+02  0.22768040360E+02 -0.72916260341E+03  0.77668899787E+03  0.26300923259E+03 0.  0.
         25    1    3    3    0    0  0.43306548146E+02 -0.22768040360E+02 -0.90398813448E+02  0.16190520173E+03  0.12509000000E+03 0.  0.
         25    1    4    4    0    0  0.76337125326E+01  0.19053456477E+02 -0.43274193751E+03  0.45092615843E+03  0.12509000000E+03 0.  0.
         25    1    4    4    0    0 -0.50940260679E+02  0.37145838830E+01 -0.29642066590E+03  0.32576283944E+03  0.12509000000E+03 0.  0.
<mgrwt>
<rscale>  2 0.45746929E+03</rscale>
<asrwt>0</asrwt>
<pdfrwt beam="1">  1       21 0.87524103E-02 0.45746929E+03</pdfrwt>
<pdfrwt beam="2">  1       21 0.12927615E+00 0.45746929E+03</pdfrwt>
<totfact> 0.40812258E+04</totfact>
</mgrwt>
</event>
<event>
 7    0  0.4709932E-002  0.4374905E+03  0.7546771E-02  0.1031520E+00
         21   -1    0    0  502  501  0.00000000000E+00  0.00000000000E+00  0.69557273852E+02  0.69557273852E+02  0.00000000000E+00 0.  1.
         21   -1    0    0  501  502 -0.00000000000E+00 -0.00000000000E+00 -0.68791494524E+03  0.68791494524E+03  0.00000000000E+00 0.  1.
      99926    2    1    2    0    0 -0.22204460493E-15  0.00000000000E+00 -0.61835767139E+03  0.75747221909E+03  0.43749051753E+03 0.  0.
      99925    2    3    3    0    0  0.16844829892E+01 -0.86313035446E+02 -0.46760028030E+03  0.54339728679E+03  0.26301675153E+03 0.  0.
         25    1    3    3    0    0 -0.16844829892E+01  0.86313035446E+02 -0.15075739109E+03  0.21407493230E+03  0.12509000000E+03 0.  0.
         25    1    4    4    0    0  0.65669684804E+01 -0.46845474418E+02 -0.15723432007E+03  0.20641647962E+03  0.12509000000E+03 0.  0.
         25    1    4    4    0    0 -0.48824854912E+01 -0.39467561028E+02 -0.31036596023E+03  0.33698080718E+03  0.12509000000E+03 0.  0.
<mgrwt>
<rscale>  2 0.43749052E+03</rscale>
<asrwt>0</asrwt>
<pdfrwt beam="1">  1       21 0.10229011E-01 0.43749052E+03</pdfrwt>
<pdfrwt beam="2">  1       21 0.10116396E+00 0.43749052E+03</pdfrwt>
<totfact> 0.57381549E+04</totfact>
</mgrwt>
</event>
<event>
 7    0  0.4709932E-002  0.4933432E+03  0.7546771E-02  0.1015531E+00
         21   -1    0    0  502  501  0.00000000000E+00  0.00000000000E+00  0.44983357537E+03  0.44983357537E+03  0.00000000000E+00 0. -1.
         21   -1    0    0  501  502 -0.00000000000E+00 -0.00000000000E+00 -0.13526533447E+03  0.13526533447E+03  0.00000000000E+00 0. -1.
      99926    2    1    2    0    0  0.00000000000E+00 -0.17763568394E-14  0.31456824090E+03  0.58509890984E+03  0.49334324370E+03 0.  0.
      99925    2    3    3    0    0  0.58970165669E+02  0.13291595975E+02  0.33993614668E+02  0.27201142055E+03  0.26302186242E+03 0.  0.
         25    1    4    4    0    0  0.23224388710E+02 -0.17136384139E+02  0.49325451416E+02  0.13752649254E+03  0.12509000000E+03 0.  0.
         25    1    3    3    0    0 -0.58970165669E+02 -0.13291595975E+02  0.28057462623E+03  0.31308748929E+03  0.12509000000E+03 0.  0.
         25    1    4    4    0    0  0.35745776959E+02  0.30427980114E+02 -0.15331836747E+02  0.13448492801E+03  0.12509000000E+03 0.  0.
<mgrwt>
<rscale>  2 0.49334324E+03</rscale>
<asrwt>0</asrwt>
<pdfrwt beam="1">  1       21 0.66151996E-01 0.49334324E+03</pdfrwt>
<pdfrwt beam="2">  1       21 0.19891961E-01 0.49334324E+03</pdfrwt>
<totfact> 0.44496516E+04</totfact>
</mgrwt>
</event>
<event>
 7    0  0.4709932E-002  0.4546851E+03  0.7546771E-02  0.1026334E+00
         21   -1    0    0  502  501  0.00000000000E+00  0.00000000000E+00  0.18636700064E+03  0.18636700064E+03  0.00000000000E+00 0. -1.
         21   -1    0    0  501  502 -0.00000000000E+00 -0.00000000000E+00 -0.27732718167E+03  0.27732718167E+03  0.00000000000E+00 0. -1.
      99926    2    1    2    0    0  0.14210854715E-13 -0.71054273576E-14 -0.90960181022E+02  0.46369418231E+03  0.45468510002E+03 0.  0.
      99925    2    3    3    0    0  0.88837319574E+02 -0.42936857331E+02 -0.25087534151E+01  0.28146683471E+03  0.26359370655E+03 0.  0.
         25    1    4    4    0    0  0.74410537535E+02 -0.51197627033E+02 -0.13024983604E+02  0.15483954084E+03  0.12509000000E+03 0.  0.
         25    1    4    4    0    0  0.14426782039E+02  0.82607697013E+01  0.10516230189E+02  0.12662729387E+03  0.12509000000E+03 0.  0.
         25    1    3    3    0    0 -0.88837319574E+02  0.42936857331E+02 -0.88451427607E+02  0.18222734760E+03  0.12509000000E+03 0.  0.
<mgrwt>
<rscale>  2 0.45468510E+03</rscale>
<asrwt>0</asrwt>
<pdfrwt beam="1">  1       21 0.27406912E-01 0.45468510E+03</pdfrwt>
<pdfrwt beam="2">  1       21 0.40783409E-01 0.45468510E+03</pdfrwt>
<totfact> 0.68077531E+04</totfact>
</mgrwt>
</event>
<event>
 7    0  0.4709932E-002  0.4614466E+03  0.7546771E-02  0.1024363E+00
         21   -1    0    0  502  501  0.00000000000E+00  0.00000000000E+00  0.48972197629E+03  0.48972197629E+03  0.00000000000E+00 0.  1.
         21   -1    0    0  501  502 -0.00000000000E+00 -0.00000000000E+00 -0.10870092492E+03  0.10870092492E+03  0.00000000000E+00 0.  1.
      99926    2    1    2    0    0  0.00000000000E+00  0.00000000000E+00  0.38102105137E+03  0.59842290121E+03  0.46144655932E+03 0.  0.
      99925    2    3    3    0    0  0.91791921229E+02 -0.58493290873E+02  0.17562820564E+03  0.33445140454E+03  0.26299287728E+03 0.  0.
         25    1    4    4    0    0  0.26288595481E+02 -0.61131584690E+02  0.10626376425E+03  0.17710916574E+03  0.12509000000E+03 0.  0.
         25    1    4    4    0    0  0.65503325749E+02  0.26382938164E+01  0.69364441396E+02  0.15734223879E+03  0.12509000000E+03 0.  0.
         25    1    3    3    0    0 -0.91791921229E+02  0.58493290873E+02  0.20539284573E+03  0.26397149667E+03  0.12509000000E+03 0.  0.
<mgrwt>
<rscale>  2 0.46144656E+03</rscale>
<asrwt>0</asrwt>
<pdfrwt beam="1">  1       21 0.72017937E-01 0.46144656E+03</pdfrwt>
<pdfrwt beam="2">  1       21 0.15985430E-01 0.46144656E+03</pdfrwt>
<totfact> 0.55874355E+04</totfact>
</mgrwt>
</event>
<event>
 7    0  0.4709932E-002  0.4551102E+03  0.7546771E-02  0.1026209E+00
         21   -1    0    0  502  501  0.00000000000E+00  0.00000000000E+00  0.14290017274E+03  0.14290017274E+03  0.00000000000E+00 0. -1.
         21   -1    0    0  501  502 -0.00000000000E+00 -0.00000000000E+00 -0.36236013579E+03  0.36236013579E+03  0.00000000000E+00 0. -1.
      99926    2    1    2    0    0  0.00000000000E+00 -0.35527136788E-14 -0.21945996305E+03  0.50526030854E+03  0.45511021083E+03 0.  0.
      99925    2    3    3    0    0  0.10318749930E+03 -0.81558558219E+01 -0.86838966023E+02  0.29561771996E+03  0.26293469215E+03 0.  0.
         25    1    4    4    0    0  0.29726290022E+02 -0.38610604456E+02 -0.45228413281E+02  0.14165997516E+03  0.12509000000E+03 0.  0.
         25    1    3    3    0    0 -0.10318749930E+03  0.81558558219E+01 -0.13262099702E+03  0.20964258858E+03  0.12509000000E+03 0.  0.
         25    1    4    4    0    0  0.73461209274E+02  0.30454748634E+02 -0.41610552742E+02  0.15395774479E+03  0.12509000000E+03 0.  0.
<mgrwt>
<rscale>  2 0.45511021E+03</rscale>
<asrwt>0</asrwt>
<pdfrwt beam="1">  1       21 0.21014732E-01 0.45511021E+03</pdfrwt>
<pdfrwt beam="2">  1       21 0.53288255E-01 0.45511021E+03</pdfrwt>
<totfact> 0.64845924E+04</totfact>
</mgrwt>
</event>
<event>
 7    0  0.4709932E-002  0.4152639E+03  0.7546771E-02  0.1038619E+00
         21   -1    0    0  502  501  0.00000000000E+00  0.00000000000E+00  0.10261693775E+03  0.10261693775E+03  0.00000000000E+00 0. -1.
         21   -1    0    0  501  502 -0.00000000000E+00 -0.00000000000E+00 -0.42011616399E+03  0.42011616399E+03  0.00000000000E+00 0. -1.
      99926    2    1    2    0    0  0.00000000000E+00  0.00000000000E+00 -0.31749922624E+03  0.52273310174E+03  0.41526393655E+03 0.  0.
      99925    2    3    3    0    0 -0.31496998177E+02 -0.60033721915E+02 -0.22821141360E+03  0.35475712058E+03  0.26301341534E+03 0.  0.
         25    1    3    3    0    0  0.31496998177E+02  0.60033721915E+02 -0.89287812638E+02  0.16797598116E+03  0.12509000000E+03 0.  0.
         25    1    4    4    0    0 -0.84032188084E+01 -0.67838239107E+02 -0.10110869529E+03  0.17476589237E+03  0.12509000000E+03 0.  0.
         25    1    4    4    0    0 -0.23093779368E+02  0.78045171921E+01 -0.12710271830E+03  0.17999122822E+03  0.12509000000E+03 0.  0.
<mgrwt>
<rscale>  2 0.41526394E+03</rscale>
<asrwt>0</asrwt>
<pdfrwt beam="1">  1       21 0.15090726E-01 0.41526394E+03</pdfrwt>
<pdfrwt beam="2">  1       21 0.61781788E-01 0.41526394E+03</pdfrwt>
<totfact> 0.88405129E+04</totfact>
</mgrwt>
</event>
<event>
 7    0  0.4709932E-002  0.4302551E+03  0.7546771E-02  0.1033779E+00
         21   -1    0    0  502  501  0.00000000000E+00  0.00000000000E+00  0.14187053121E+03  0.14187053121E+03  0.00000000000E+00 0. -1.
         21   -1    0    0  501  502 -0.00000000000E+00 -0.00000000000E+00 -0.32621188513E+03  0.32621188513E+03  0.00000000000E+00 0. -1.
      99926    2    1    2    0    0  0.00000000000E+00  0.00000000000E+00 -0.18434135392E+03  0.46808241634E+03  0.43025505660E+03 0.  0.
      99925    2    3    3    0    0  0.13992181316E+02  0.86906306549E+02 -0.11188575944E+03  0.29883168953E+03  0.26274220872E+03 0.  0.
         25    1    4    4    0    0  0.44451674388E+02  0.32545435702E+02 -0.45020610569E+02  0.14390802694E+03  0.12509000000E+03 0.  0.
         25    1    3    3    0    0 -0.13992181316E+02 -0.86906306549E+02 -0.72455594476E+02  0.16925072681E+03  0.12509000000E+03 0.  0.
         25    1    4    4    0    0 -0.30459493072E+02  0.54360870847E+02 -0.66865148871E+02  0.15492366259E+03  0.12509000000E+03 0.  0.
<mgrwt>
<rscale>  2 0.43025506E+03</rscale>
<asrwt>0</asrwt>
<pdfrwt beam="1">  1       21 0.20863314E-01 0.43025506E+03</pdfrwt>
<pdfrwt beam="2">  1       21 0.47972335E-01 0.43025506E+03</pdfrwt>
<totfact> 0.82659189E+04</totfact>
</mgrwt>
</event>
<event>
 7    0  0.4709932E-002  0.4541438E+03  0.7546771E-02  0.1026493E+00
         21   -1    0    0  502  501  0.00000000000E+00  0.00000000000E+00  0.18921824068E+03  0.18921824068E+03  0.00000000000E+00 0.  1.
         21   -1    0    0  501  502 -0.00000000000E+00 -0.00000000000E+00 -0.27249832918E+03  0.27249832918E+03  0.00000000000E+00 0.  1.
      99926    2    1    2    0    0  0.00000000000E+00  0.00000000000E+00 -0.83280088503E+02  0.46171656986E+03  0.45414382936E+03 0.  0.
      99925    2    3    3    0    0  0.31352628102E+02  0.10740434711E+03 -0.63007743647E+02  0.29266877445E+03  0.26299497089E+03 0.  0.
         25    1    4    4    0    0  0.10640148975E+02  0.14941134708E+02 -0.47187554683E+02  0.13494674392E+03  0.12509000000E+03 0.  0.
         25    1    4    4    0    0  0.20712479128E+02  0.92463212397E+02 -0.15820188964E+02  0.15772203054E+03  0.12509000000E+03 0.  0.
         25    1    3    3    0    0 -0.31352628102E+02 -0.10740434711E+03 -0.20272344856E+02  0.16904779541E+03  0.12509000000E+03 0.  0.
<mgrwt>
<rscale>  2 0.45414383E+03</rscale>
<asrwt>0</asrwt>
<pdfrwt beam="1">  1       21 0.27826212E-01 0.45414383E+03</pdfrwt>
<pdfrwt beam="2">  1       21 0.40073284E-01 0.45414383E+03</pdfrwt>
<totfact> 0.68519725E+04</totfact>
</mgrwt>
</event>
<event>
 7    0  0.4709932E-002  0.4712202E+03  0.7546771E-02  0.1021576E+00
         21   -1    0    0  502  501  0.00000000000E+00  0.00000000000E+00  0.50725437468E+03  0.50725437468E+03  0.00000000000E+00 0.  1.
         21   -1    0    0  501  502 -0.00000000000E+00 -0.00000000000E+00 -0.10943643360E+03  0.10943643360E+03  0.00000000000E+00 0.  1.
      99926    2    1    2    0    0  0.00000000000E+00 -0.14210854715E-13  0.39781794108E+03  0.61669080828E+03  0.47122015956E+03 0.  0.
      99925    2    3    3    0    0 -0.14543949542E+02 -0.74901239997E+02  0.38100201617E+03  0.46920519660E+03  0.26300049044E+03 0.  0.
         25    1    3    3    0    0  0.14543949542E+02  0.74901239997E+02  0.16815924910E+02  0.14748561168E+03  0.12509000000E+03 0.  0.
         25    1    4    4    0    0 -0.75939472054E+01 -0.76821371874E+02  0.18061997217E+03  0.23287394370E+03  0.12509000000E+03 0.  0.
         25    1    4    4    0    0 -0.69500023362E+01  0.19201318763E+01  0.20038204400E+03  0.23633125290E+03  0.12509000000E+03 0.  0.
<mgrwt>
<rscale>  2 0.47122016E+03</rscale>
<asrwt>0</asrwt>
<pdfrwt beam="1">  1       21 0.74596231E-01 0.47122016E+03</pdfrwt>
<pdfrwt beam="2">  1       21 0.16093593E-01 0.47122016E+03</pdfrwt>
<totfact> 0.50830849E+04</totfact>
</mgrwt>
</event>
<event>
 7    0  0.4709932E-002  0.4552982E+03  0.7546771E-02  0.1026154E+00
         21   -1    0    0  502  501  0.00000000000E+00  0.00000000000E+00  0.21216156236E+03  0.21216156236E+03  0.00000000000E+00 0.  1.
         21   -1    0    0  501  502 -0.00000000000E+00 -0.00000000000E+00 -0.24426724870E+03  0.24426724870E+03  0.00000000000E+00 0.  1.
      99926    2    1    2    0    0  0.00000000000E+00 -0.71054273576E-14 -0.32105686335E+02  0.45642881106E+03  0.45529823684E+03 0.  0.
      99925    2    3    3    0    0 -0.77761131921E+02  0.55416381762E+02  0.41490830081E+02  0.28269992937E+03  0.26283072895E+03 0.  0.
         25    1    4    4    0    0 -0.80735908909E+02  0.26647292037E+02  0.22103356895E+02  0.15285428239E+03  0.12509000000E+03 0.  0.
         25    1    4    4    0    0  0.29747769879E+01  0.28769089725E+02  0.19387473186E+02  0.12984564697E+03  0.12509000000E+03 0.  0.
         25    1    3    3    0    0  0.77761131921E+02 -0.55416381762E+02 -0.73596516416E+02  0.17372888169E+03  0.12509000000E+03 0.  0.
<mgrwt>
<rscale>  2 0.45529824E+03</rscale>
<asrwt>0</asrwt>
<pdfrwt beam="1">  1       21 0.31200230E-01 0.45529824E+03</pdfrwt>
<pdfrwt beam="2">  1       21 0.35921654E-01 0.45529824E+03</pdfrwt>
<totfact> 0.68278664E+04</totfact>
</mgrwt>
</event>
<event>
 7    0  0.4709932E-002  0.4677784E+03  0.7546771E-02  0.1022549E+00
         21   -1    0    0  502  501  0.00000000000E+00  0.00000000000E+00  0.87965006379E+02  0.87965006379E+02  0.00000000000E+00 0.  1.
         21   -1    0    0  501  502 -0.00000000000E+00 -0.00000000000E+00 -0.62188558190E+03  0.62188558190E+03  0.00000000000E+00 0.  1.
      99926    2    1    2    0    0  0.14210854715E-13  0.35527136788E-14 -0.53392057553E+03  0.70985058828E+03  0.46777844832E+03 0.  0.
      99925    2    3    3    0    0  0.10485153332E+03  0.23249909055E+02 -0.42917420853E+03  0.51452083681E+03  0.26269143103E+03 0.  0.
         25    1    4    4    0    0  0.34926095731E+02  0.10342236777E+02 -0.13829771988E+03  0.19000147749E+03  0.12509000000E+03 0.  0.
         25    1    3    3    0    0 -0.10485153332E+03 -0.23249909055E+02 -0.10474636700E+03  0.19532975147E+03  0.12509000000E+03 0.  0.
         25    1    4    4    0    0  0.69925437589E+02  0.12907672278E+02 -0.29087648865E+03  0.32451935932E+03  0.12509000000E+03 0.  0.
<mgrwt>
<rscale>  2 0.46777845E+03</rscale>
<asrwt>0</asrwt>
<pdfrwt beam="1">  1       21 0.12936031E-01 0.46777845E+03</pdfrwt>
<pdfrwt beam="2">  1       21 0.91453758E-01 0.46777845E+03</pdfrwt>
<totfact> 0.47420647E+04</totfact>
</mgrwt>
</event>
<event>
 7    0  0.4709932E-002  0.4583123E+03  0.7546771E-02  0.1025272E+00
         21   -1    0    0  502  501  0.00000000000E+00  0.00000000000E+00  0.22394956119E+03  0.22394956119E+03  0.00000000000E+00 0.  1.
         21   -1    0    0  501  502 -0.00000000000E+00 -0.00000000000E+00 -0.23448381218E+03  0.23448381218E+03  0.00000000000E+00 0.  1.
      99926    2    1    2    0    0  0.00000000000E+00  0.00000000000E+00 -0.10534250990E+02  0.45843337338E+03  0.45831232515E+03 0.  0.
      99925    2    3    3    0    0 -0.53334269445E+02 -0.73837008796E+02 -0.79303855362E+02  0.28910170253E+03  0.26266755560E+03 0.  0.
         25    1    3    3    0    0  0.53334269445E+02  0.73837008796E+02  0.68769604372E+02  0.16933167084E+03  0.12509000000E+03 0.  0.
         25    1    4    4    0    0 -0.35680399779E+02 -0.34855174515E+02 -0.80490517943E+02  0.15688915099E+03  0.12509000000E+03 0.  0.
         25    1    4    4    0    0 -0.17653869666E+02 -0.38981834280E+02  0.11866625810E+01  0.13221255155E+03  0.12509000000E+03 0.  0.
<mgrwt>
<rscale>  2 0.45831233E+03</rscale>
<asrwt>0</asrwt>
<pdfrwt beam="1">  1       21 0.32933759E-01 0.45831233E+03</pdfrwt>
<pdfrwt beam="2">  1       21 0.34482913E-01 0.45831233E+03</pdfrwt>
<totfact> 0.66519507E+04</totfact>
</mgrwt>
</event>
<event>
 7    0  0.4709932E-002  0.4589973E+03  0.7546771E-02  0.1025072E+00
         21   -1    0    0  502  501  0.00000000000E+00  0.00000000000E+00  0.21541144032E+03  0.21541144032E+03  0.00000000000E+00 0. -1.
         21   -1    0    0  501  502 -0.00000000000E+00 -0.00000000000E+00 -0.24450715622E+03  0.24450715622E+03  0.00000000000E+00 0. -1.
      99926    2    1    2    0    0  0.00000000000E+00 -0.35527136788E-14 -0.29095715902E+02  0.45991859654E+03  0.45899733633E+03 0.  0.
      99925    2    3    3    0    0 -0.11057660836E+03  0.29829220015E+02 -0.41661758550E+02  0.28985277924E+03  0.26298662100E+03 0.  0.
         25    1    3    3    0    0  0.11057660836E+03 -0.29829220015E+02  0.12566042647E+02  0.17006581729E+03  0.12509000000E+03 0.  0.
         25    1    4    4    0    0 -0.82302097398E+02  0.45637991709E+02 -0.35367937111E+02  0.16048320971E+03  0.12509000000E+03 0.  0.
         25    1    4    4    0    0 -0.28274510967E+02 -0.15808771694E+02 -0.62938214387E+01  0.12936956953E+03  0.12509000000E+03 0.  0.
<mgrwt>
<rscale>  2 0.45899734E+03</rscale>
<asrwt>0</asrwt>
<pdfrwt beam="1">  1       21 0.31678153E-01 0.45899734E+03</pdfrwt>
<pdfrwt beam="2">  1       21 0.35956935E-01 0.45899734E+03</pdfrwt>
<totfact> 0.66054961E+04</totfact>
</mgrwt>
</event>
<event>
 7    0  0.4709932E-002  0.4548618E+03  0.7546771E-02  0.1026282E+00
         21   -1    0    0  502  501  0.00000000000E+00  0.00000000000E+00  0.40633893414E+02  0.40633893414E+02  0.00000000000E+00 0. -1.
         21   -1    0    0  501  502 -0.00000000000E+00 -0.00000000000E+00 -0.12729474070E+04  0.12729474070E+04  0.00000000000E+00 0. -1.
      99926    2    1    2    0    0 -0.17763568394E-14  0.00000000000E+00 -0.12323135136E+04  0.13135813005E+04  0.45486177795E+03 0.  0.
      99925    2    3    3    0    0 -0.15071413931E+02  0.76478519475E+02 -0.10117734835E+04  0.10483238323E+04  0.26309915211E+03 0.  0.
         25    1    4    4    0    0  0.26102813297E+02  0.60252378898E+02 -0.49209389400E+03  0.51197227917E+03  0.12509000000E+03 0.  0.
         25    1    4    4    0    0 -0.41174227228E+02  0.16226140577E+02 -0.51967958955E+03  0.53635155310E+03  0.12509000000E+03 0.  0.
         25    1    3    3    0    0  0.15071413931E+02 -0.76478519475E+02 -0.22054003009E+03  0.26525746819E+03  0.12509000000E+03 0.  0.
<mgrwt>
<rscale>  2 0.45486178E+03</rscale>
<asrwt>0</asrwt>
<pdfrwt beam="1">  1       21 0.59755727E-02 0.45486178E+03</pdfrwt>
<pdfrwt beam="2">  1       21 0.18719814E+00 0.45486178E+03</pdfrwt>
<totfact> 0.28753692E+04</totfact>
</mgrwt>
</event>
<event>
 7    0  0.4709932E-002  0.4520287E+03  0.7546771E-02  0.1027119E+00
         21   -1    0    0  502  501  0.00000000000E+00  0.00000000000E+00  0.24337242951E+03  0.24337242951E+03  0.00000000000E+00 0. -1.
         21   -1    0    0  501  502 -0.00000000000E+00 -0.00000000000E+00 -0.20989432317E+03  0.20989432317E+03  0.00000000000E+00 0. -1.
      99926    2    1    2    0    0  0.00000000000E+00  0.00000000000E+00  0.33478106339E+02  0.45326675268E+03  0.45202872197E+03 0.  0.
      99925    2    3    3    0    0  0.31466279800E+02 -0.95551616573E+02  0.66894530070E+02  0.28930211116E+03  0.26286992063E+03 0.  0.
         25    1    3    3    0    0 -0.31466279800E+02  0.95551616573E+02 -0.33416423730E+02  0.16396464152E+03  0.12509000000E+03 0.  0.
         25    1    4    4    0    0  0.54517145405E+02 -0.53282413322E+02  0.23129715152E+02  0.14830248324E+03  0.12509000000E+03 0.  0.
         25    1    4    4    0    0 -0.23050865604E+02 -0.42269203250E+02  0.43764814918E+02  0.14099962792E+03  0.12509000000E+03 0.  0.
<mgrwt>
<rscale>  2 0.45202872E+03</rscale>
<asrwt>0</asrwt>
<pdfrwt beam="1">  1       21 0.35790063E-01 0.45202872E+03</pdfrwt>
<pdfrwt beam="2">  1       21 0.30866812E-01 0.45202872E+03</pdfrwt>
<totfact> 0.70325471E+04</totfact>
</mgrwt>
</event>
<event>
 7    0  0.4709932E-002  0.4515300E+03  0.7546771E-02  0.1027267E+00
         21   -1    0    0  502  501  0.00000000000E+00  0.00000000000E+00  0.18519387066E+04  0.18519387066E+04  0.00000000000E+00 0. -1.
         21   -1    0    0  501  502 -0.00000000000E+00 -0.00000000000E+00 -0.27522419832E+02  0.27522419832E+02  0.00000000000E+00 0. -1.
      99926    2    1    2    0    0  0.00000000000E+00  0.00000000000E+00  0.18244162867E+04  0.18794611264E+04  0.45152999717E+03 0.  0.
      99925    2    3    3    0    0 -0.51904040044E+01  0.86132466467E+02  0.86869915044E+03  0.91173776987E+03  0.26302434288E+03 0.  0.
         25    1    4    4    0    0 -0.49015404448E+01  0.35618211619E+02  0.55864220734E+03  0.57360378836E+03  0.12509000000E+03 0.  0.
         25    1    4    4    0    0 -0.28886355955E+00  0.50514254848E+02  0.31005694310E+03  0.33813398151E+03  0.12509000000E+03 0.  0.
         25    1    3    3    0    0  0.51904040044E+01 -0.86132466467E+02  0.95571713628E+03  0.96772335652E+03  0.12509000000E+03 0.  0.
<mgrwt>
<rscale>  2 0.45153000E+03</rscale>
<asrwt>0</asrwt>
<pdfrwt beam="1">  1       21 0.27234384E+00 0.45153000E+03</pdfrwt>
<pdfrwt beam="2">  1       21 0.40474160E-02 0.45153000E+03</pdfrwt>
<totfact> 0.16211456E+04</totfact>
</mgrwt>
</event>
<event>
 7    0  0.4709932E-002  0.4538867E+03  0.7546771E-02  0.1026569E+00
         21   -1    0    0  502  501  0.00000000000E+00  0.00000000000E+00  0.81269955032E+03  0.81269955032E+03  0.00000000000E+00 0. -1.
         21   -1    0    0  501  502 -0.00000000000E+00 -0.00000000000E+00 -0.63373094385E+02  0.63373094385E+02  0.00000000000E+00 0. -1.
      99926    2    1    2    0    0  0.35527136788E-14  0.00000000000E+00  0.74932645593E+03  0.87607264470E+03  0.45388670529E+03 0.  0.
      99925    2    3    3    0    0 -0.23728910969E+02 -0.10178637726E+03  0.39358736781E+03  0.48476543198E+03  0.26298855513E+03 0.  0.
         25    1    4    4    0    0 -0.35894466309E+02 -0.19792797247E+02  0.16088666971E+03  0.20787543416E+03  0.12509000000E+03 0.  0.
         25    1    4    4    0    0  0.12165555340E+02 -0.81993580009E+02  0.23270069809E+03  0.27688999782E+03  0.12509000000E+03 0.  0.
         25    1    3    3    0    0  0.23728910969E+02  0.10178637726E+03  0.35573908813E+03  0.39130721273E+03  0.12509000000E+03 0.  0.
<mgrwt>
<rscale>  2 0.45388671E+03</rscale>
<asrwt>0</asrwt>
<pdfrwt beam="1">  1       21 0.11951463E+00 0.45388671E+03</pdfrwt>
<pdfrwt beam="2">  1       21 0.93195732E-02 0.45388671E+03</pdfrwt>
<totfact> 0.44672692E+04</totfact>
</mgrwt>
</event>
<event>
 7    0  0.4709932E-002  0.4539944E+03  0.7546771E-02  0.1026538E+00
         21   -1    0    0  502  501  0.00000000000E+00  0.00000000000E+00  0.86380022523E+02  0.86380022523E+02  0.00000000000E+00 0. -1.
         21   -1    0    0  501  502 -0.00000000000E+00 -0.00000000000E+00 -0.59652356629E+03  0.59652356629E+03  0.00000000000E+00 0. -1.
      99926    2    1    2    0    0  0.00000000000E+00 -0.14210854715E-13 -0.51014354376E+03  0.68290358881E+03  0.45399435720E+03 0.  0.
      99925    2    3    3    0    0  0.56234617402E+02 -0.79324196266E+02 -0.23701409691E+03  0.36714757042E+03  0.26299619014E+03 0.  0.
         25    1    4    4    0    0  0.68198977079E+02 -0.52794439969E+02 -0.12603065023E+03  0.19740715859E+03  0.12509000000E+03 0.  0.
         25    1    3    3    0    0 -0.56234617402E+02  0.79324196266E+02 -0.27312944686E+03  0.31575601839E+03  0.12509000000E+03 0.  0.
         25    1    4    4    0    0 -0.11964359676E+02 -0.26529756297E+02 -0.11098344668E+03  0.16974041183E+03  0.12509000000E+03 0.  0.
<mgrwt>
<rscale>  2 0.45399436E+03</rscale>
<asrwt>0</asrwt>
<pdfrwt beam="1">  1       21 0.12702945E-01 0.45399436E+03</pdfrwt>
<pdfrwt beam="2">  1       21 0.87724051E-01 0.45399436E+03</pdfrwt>
<totfact> 0.54269781E+04</totfact>
</mgrwt>
</event>
<event>
 7    0  0.4709932E-002  0.4513939E+03  0.7546771E-02  0.1027307E+00
         21   -1    0    0  502  501  0.00000000000E+00  0.00000000000E+00  0.12751173053E+04  0.12751173053E+04  0.00000000000E+00 0. -1.
         21   -1    0    0  501  502 -0.00000000000E+00 -0.00000000000E+00 -0.39948573338E+02  0.39948573338E+02  0.00000000000E+00 0. -1.
      99926    2    1    2    0    0  0.00000000000E+00  0.00000000000E+00  0.12351687320E+04  0.13150658786E+04  0.45139391748E+03 0.  0.
      99925    2    3    3    0    0 -0.80196159124E+02  0.38103718949E+02  0.96717370163E+03  0.10062744252E+04  0.26321081349E+03 0.  0.
         25    1    3    3    0    0  0.80196159124E+02 -0.38103718949E+02  0.26799503033E+03  0.30879145344E+03  0.12509000000E+03 0.  0.
         25    1    4    4    0    0 -0.21289959869E+02  0.64959607145E+01  0.58481039449E+03  0.59845314395E+03  0.12509000000E+03 0.  0.
         25    1    4    4    0    0 -0.58906199255E+02  0.31607758235E+02  0.38236330714E+03  0.40782128125E+03  0.12509000000E+03 0.  0.
<mgrwt>
<rscale>  2 0.45139392E+03</rscale>
<asrwt>0</asrwt>
<pdfrwt beam="1">  1       21 0.18751722E+00 0.45139392E+03</pdfrwt>
<pdfrwt beam="2">  1       21 0.58747910E-02 0.45139392E+03</pdfrwt>
<totfact> 0.29498844E+04</totfact>
</mgrwt>
</event>
<event>
 7    0  0.4709932E-002  0.4605084E+03  0.7546771E-02  0.1024634E+00
         21   -1    0    0  502  501  0.00000000000E+00  0.00000000000E+00  0.26325364317E+03  0.26325364317E+03  0.00000000000E+00 0.  1.
         21   -1    0    0  501  502 -0.00000000000E+00 -0.00000000000E+00 -0.20139131101E+03  0.20139131101E+03  0.00000000000E+00 0.  1.
      99926    2    1    2    0    0  0.00000000000E+00  0.71054273576E-14  0.61862332162E+02  0.46464495418E+03  0.46050839874E+03 0.  0.
      99925    2    3    3    0    0 -0.48781872221E+02 -0.49952496036E+02 -0.57473347063E+02  0.27819540242E+03  0.26308662715E+03 0.  0.
         25    1    3    3    0    0  0.48781872221E+02  0.49952496036E+02  0.11933567922E+03  0.18644955177E+03  0.12509000000E+03 0.  0.
         25    1    4    4    0    0 -0.31974662899E+02 -0.59662229468E+02 -0.52172960631E+02  0.15149748055E+03  0.12509000000E+03 0.  0.
         25    1    4    4    0    0 -0.16807209321E+02  0.97097334318E+01 -0.53003864324E+01  0.12669792186E+03  0.12509000000E+03 0.  0.
<mgrwt>
<rscale>  2 0.46050840E+03</rscale>
<asrwt>0</asrwt>
<pdfrwt beam="1">  1       21 0.38713771E-01 0.46050840E+03</pdfrwt>
<pdfrwt beam="2">  1       21 0.29616369E-01 0.46050840E+03</pdfrwt>
<totfact> 0.64943279E+04</totfact>
</mgrwt>
</event>
<event>
 7    0  0.4709932E-002  0.4485098E+03  0.7546771E-02  0.1028167E+00
         21   -1    0    0  502  501  0.00000000000E+00  0.00000000000E+00  0.92253466682E+02  0.92253466682E+02  0.00000000000E+00 0.  1.
         21   -1    0    0  501  502 -0.00000000000E+00 -0.00000000000E+00 -0.54513141574E+03  0.54513141574E+03  0.00000000000E+00 0.  1.
      99926    2    1    2    0    0 -0.17763568394E-14  0.00000000000E+00 -0.45287794905E+03  0.63738488242E+03  0.44850981215E+03 0.  0.
      99925    2    3    3    0    0 -0.30685933731E+01 -0.15118535285E+02 -0.13616868124E+03  0.29651796588E+03  0.26295058084E+03 0.  0.
         25    1    4    4    0    0 -0.19684785112E+02 -0.41570569513E+01 -0.10863786507E+03  0.16689657191E+03  0.12509000000E+03 0.  0.
         25    1    4    4    0    0  0.16616191739E+02 -0.10961478334E+02 -0.27530816170E+02  0.12962139397E+03  0.12509000000E+03 0.  0.
         25    1    3    3    0    0  0.30685933731E+01  0.15118535285E+02 -0.31670926781E+03  0.34086691654E+03  0.12509000000E+03 0.  0.
<mgrwt>
<rscale>  2 0.44850981E+03</rscale>
<asrwt>0</asrwt>
<pdfrwt beam="1">  1       21 0.13566687E-01 0.44850981E+03</pdfrwt>
<pdfrwt beam="2">  1       21 0.80166383E-01 0.44850981E+03</pdfrwt>
<totfact> 0.59419606E+04</totfact>
</mgrwt>
</event>
<event>
 7    0  0.4709932E-002  0.4518386E+03  0.7546771E-02  0.1027175E+00
         21   -1    0    0  502  501  0.00000000000E+00  0.00000000000E+00  0.33680179097E+02  0.33680179097E+02  0.00000000000E+00 0.  1.
         21   -1    0    0  501  502 -0.00000000000E+00 -0.00000000000E+00 -0.15154176982E+04  0.15154176982E+04  0.00000000000E+00 0.  1.
      99926    2    1    2    0    0  0.00000000000E+00  0.71054273576E-14 -0.14817375191E+04  0.15490978773E+04  0.45183864147E+03 0.  0.
      99925    2    3    3    0    0 -0.46053459158E+02 -0.47707319076E+02 -0.12373876106E+04  0.12666951591E+04  0.26266255475E+03 0.  0.
         25    1    4    4    0    0 -0.10800698447E+02 -0.28357394562E+02 -0.78978232671E+03  0.80020274218E+03  0.12509000000E+03 0.  0.
         25    1    3    3    0    0  0.46053459158E+02  0.47707319076E+02 -0.24434990848E+03  0.28240271824E+03  0.12509000000E+03 0.  0.
         25    1    4    4    0    0 -0.35252760710E+02 -0.19349924514E+02 -0.44760528392E+03  0.46649241688E+03  0.12509000000E+03 0.  0.
<mgrwt>
<rscale>  2 0.45183864E+03</rscale>
<asrwt>0</asrwt>
<pdfrwt beam="1">  1       21 0.49529670E-02 0.45183864E+03</pdfrwt>
<pdfrwt beam="2">  1       21 0.22285557E+00 0.45183864E+03</pdfrwt>
<totfact> 0.23164630E+04</totfact>
</mgrwt>
</event>
<event>
 7    0  0.4709932E-002  0.4532061E+03  0.7546771E-02  0.1026770E+00
         21   -1    0    0  502  501  0.00000000000E+00  0.00000000000E+00  0.64496996572E+02  0.64496996572E+02  0.00000000000E+00 0.  1.
         21   -1    0    0  501  502 -0.00000000000E+00 -0.00000000000E+00 -0.79614479837E+03  0.79614479837E+03  0.00000000000E+00 0.  1.
      99926    2    1    2    0    0  0.00000000000E+00 -0.71054273576E-14 -0.73164780180E+03  0.86064179494E+03  0.45320612675E+03 0.  0.
      99925    2    3    3    0    0  0.84613092579E+02  0.52468690131E+02 -0.36606344477E+03  0.46162830007E+03  0.26303213293E+03 0.  0.
         25    1    4    4    0    0  0.47666619152E+01  0.40164892882E+02 -0.15363901903E+03  0.20220879297E+03  0.12509000000E+03 0.  0.
         25    1    3    3    0    0 -0.84613092579E+02 -0.52468690131E+02 -0.36558435703E+03  0.39901349487E+03  0.12509000000E+03 0.  0.
         25    1    4    4    0    0  0.79846430664E+02  0.12303797248E+02 -0.21242442573E+03  0.25941950710E+03  0.12509000000E+03 0.  0.
<mgrwt>
<rscale>  2 0.45320613E+03</rscale>
<asrwt>0</asrwt>
<pdfrwt beam="1">  1       21 0.94848522E-02 0.45320613E+03</pdfrwt>
<pdfrwt beam="2">  1       21 0.11708012E+00 0.45320613E+03</pdfrwt>
<totfact> 0.45605278E+04</totfact>
</mgrwt>
</event>
<event>
 7    0  0.4709932E-002  0.4600398E+03  0.7546771E-02  0.1024770E+00
         21   -1    0    0  502  501  0.00000000000E+00  0.00000000000E+00  0.53074720912E+02  0.53074720912E+02  0.00000000000E+00 0. -1.
         21   -1    0    0  501  502 -0.00000000000E+00 -0.00000000000E+00 -0.99688028770E+03  0.99688028770E+03  0.00000000000E+00 0. -1.
      99926    2    1    2    0    0  0.00000000000E+00  0.00000000000E+00 -0.94380556678E+03  0.10499550086E+04  0.46003975068E+03 0.  0.
      99925    2    3    3    0    0 -0.10478433216E+02 -0.98829158789E+02 -0.44634531845E+03  0.52746940406E+03  0.26291220726E+03 0.  0.
         25    1    4    4    0    0  0.10721167658E+00 -0.91531082712E+02 -0.25885767631E+03  0.30171634905E+03  0.12509000000E+03 0.  0.
         25    1    3    3    0    0  0.10478433216E+02  0.98829158789E+02 -0.49746024833E+03  0.52248560455E+03  0.12509000000E+03 0.  0.
         25    1    4    4    0    0 -0.10585644893E+02 -0.72980760763E+01 -0.18748764214E+03  0.22575305501E+03  0.12509000000E+03 0.  0.
<mgrwt>
<rscale>  2 0.46003975E+03</rscale>
<asrwt>0</asrwt>
<pdfrwt beam="1">  1       21 0.78051056E-02 0.46003975E+03</pdfrwt>
<pdfrwt beam="2">  1       21 0.14660005E+00 0.46003975E+03</pdfrwt>
<totfact> 0.35847993E+04</totfact>
</mgrwt>
</event>
<event>
 7    0  0.4709932E-002  0.4605106E+03  0.7546771E-02  0.1024633E+00
         21   -1    0    0  502  501  0.00000000000E+00  0.00000000000E+00  0.49346181913E+03  0.49346181913E+03  0.00000000000E+00 0.  1.
         21   -1    0    0  501  502 -0.00000000000E+00 -0.00000000000E+00 -0.10743992121E+03  0.10743992121E+03  0.00000000000E+00 0.  1.
      99926    2    1    2    0    0 -0.17763568394E-14 -0.14210854715E-13  0.38602189792E+03  0.60090174033E+03  0.46051058171E+03 0.  0.
      99925    2    3    3    0    0  0.80257426481E+01  0.11643127427E+03  0.21851820658E+03  0.36147398738E+03  0.26323484338E+03 0.  0.
         25    1    4    4    0    0 -0.67235895338E+01  0.98923463621E+02  0.10542671133E+03  0.19129390443E+03  0.12509000000E+03 0.  0.
         25    1    4    4    0    0  0.14749332182E+02  0.17507810648E+02  0.11309149525E+03  0.17018008294E+03  0.12509000000E+03 0.  0.
         25    1    3    3    0    0 -0.80257426481E+01 -0.11643127427E+03  0.16750369134E+03  0.23942775296E+03  0.12509000000E+03 0.  0.
<mgrwt>
<rscale>  2 0.46051058E+03</rscale>
<asrwt>0</asrwt>
<pdfrwt beam="1">  1       21 0.72567914E-01 0.46051058E+03</pdfrwt>
<pdfrwt beam="2">  1       21 0.15799989E-01 0.46051058E+03</pdfrwt>
<totfact> 0.56138284E+04</totfact>
</mgrwt>
</event>
<event>
 7    0  0.4709932E-002  0.4622517E+03  0.7546771E-02  0.1024130E+00
         21   -1    0    0  502  501  0.00000000000E+00  0.00000000000E+00  0.74150524273E+03  0.74150524273E+03  0.00000000000E+00 0.  1.
         21   -1    0    0  501  502 -0.00000000000E+00 -0.00000000000E+00 -0.72041515660E+02  0.72041515660E+02  0.00000000000E+00 0.  1.
      99926    2    1    2    0    0  0.00000000000E+00  0.00000000000E+00  0.66946372707E+03  0.81354675839E+03  0.46225171306E+03 0.  0.
      99925    2    3    3    0    0 -0.20038608684E+02  0.69018354274E+02  0.58736398772E+03  0.64755593224E+03  0.26299648714E+03 0.  0.
         25    1    4    4    0    0 -0.64339527213E+01  0.71647583318E+02  0.26985317556E+03  0.30601146450E+03  0.12509000000E+03 0.  0.
         25    1    4    4    0    0 -0.13604655962E+02 -0.26292290435E+01  0.31751081216E+03  0.34154446774E+03  0.12509000000E+03 0.  0.
         25    1    3    3    0    0  0.20038608684E+02 -0.69018354274E+02  0.82099739353E+02  0.16599082615E+03  0.12509000000E+03 0.  0.
<mgrwt>
<rscale>  2 0.46225171E+03</rscale>
<asrwt>0</asrwt>
<pdfrwt beam="1">  1       21 0.10904488E+00 0.46225171E+03</pdfrwt>
<pdfrwt beam="2">  1       21 0.10594341E-01 0.46225171E+03</pdfrwt>
<totfact> 0.44528106E+04</totfact>
</mgrwt>
</event>
<event>
 7    0  0.4709932E-002  0.4581145E+03  0.7546771E-02  0.1025329E+00
         21   -1    0    0  502  501  0.00000000000E+00  0.00000000000E+00  0.87285570991E+02  0.87285570991E+02  0.00000000000E+00 0.  1.
         21   -1    0    0  501  502 -0.00000000000E+00 -0.00000000000E+00 -0.60109860348E+03  0.60109860348E+03  0.00000000000E+00 0.  1.
      99926    2    1    2    0    0  0.00000000000E+00  0.00000000000E+00 -0.51381303249E+03  0.68838417447E+03  0.45811454824E+03 0.  0.
      99925    2    3    3    0    0  0.45206995770E+02  0.38180772173E+02 -0.17219036393E+03  0.31979904237E+03  0.26290770670E+03 0.  0.
         25    1    4    4    0    0  0.19807054197E+02  0.56003451276E+02 -0.10916674186E+03  0.17633375054E+03  0.12509000000E+03 0.  0.
         25    1    4    4    0    0  0.25399941573E+02 -0.17822679103E+02 -0.63023622070E+02  0.14346529183E+03  0.12509000000E+03 0.  0.
         25    1    3    3    0    0 -0.45206995770E+02 -0.38180772173E+02 -0.34162266855E+03  0.36858513209E+03  0.12509000000E+03 0.  0.
<mgrwt>
<rscale>  2 0.45811455E+03</rscale>
<asrwt>0</asrwt>
<pdfrwt beam="1">  1       21 0.12836113E-01 0.45811455E+03</pdfrwt>
<pdfrwt beam="2">  1       21 0.88396854E-01 0.45811455E+03</pdfrwt>
<totfact> 0.52245467E+04</totfact>
</mgrwt>
</event>
<event>
 7    0  0.4709932E-002  0.4542219E+03  0.7546771E-02  0.1026470E+00
         21   -1    0    0  502  501  0.00000000000E+00  0.00000000000E+00  0.36332156487E+02  0.36332156487E+02  0.00000000000E+00 0.  1.
         21   -1    0    0  501  502 -0.00000000000E+00 -0.00000000000E+00 -0.14196621714E+04  0.14196621714E+04  0.00000000000E+00 0.  1.
      99926    2    1    2    0    0  0.71054273576E-14  0.00000000000E+00 -0.13833300149E+04  0.14559943279E+04  0.45422192009E+03 0.  0.
      99925    2    3    3    0    0  0.33839945838E+02 -0.76304439940E+02 -0.62956526266E+03  0.68737457839E+03  0.26299026897E+03 0.  0.
         25    1    4    4    0    0 -0.62156252531E+01 -0.14788229355E+02 -0.23011086016E+03  0.26240396679E+03  0.12509000000E+03 0.  0.
         25    1    4    4    0    0  0.40055571092E+02 -0.61516210585E+02 -0.39945440250E+03  0.42497061159E+03  0.12509000000E+03 0.  0.
         25    1    3    3    0    0 -0.33839945838E+02  0.76304439940E+02 -0.75376475229E+03  0.76861974954E+03  0.12509000000E+03 0.  0.
<mgrwt>
<rscale>  2 0.45422192E+03</rscale>
<asrwt>0</asrwt>
<pdfrwt beam="1">  1       21 0.53429630E-02 0.45422192E+03</pdfrwt>
<pdfrwt beam="2">  1       21 0.20877389E+00 0.45422192E+03</pdfrwt>
<totfact> 0.25028187E+04</totfact>
</mgrwt>
</event>
<event>
 7    0  0.4709932E-002  0.4569320E+03  0.7546771E-02  0.1025675E+00
         21   -1    0    0  502  501  0.00000000000E+00  0.00000000000E+00  0.16093338463E+03  0.16093338463E+03  0.00000000000E+00 0.  1.
         21   -1    0    0  501  502 -0.00000000000E+00 -0.00000000000E+00 -0.32433737264E+03  0.32433737264E+03  0.00000000000E+00 0.  1.
      99926    2    1    2    0    0  0.00000000000E+00  0.14210854715E-13 -0.16340398801E+03  0.48527075727E+03  0.45693199119E+03 0.  0.
      99925    2    3    3    0    0 -0.55840440729E+02 -0.10045417984E+03 -0.98156485489E+02  0.30329839192E+03  0.26295631164E+03 0.  0.
         25    1    4    4    0    0 -0.45030116726E+02 -0.88559945147E+02 -0.41550438922E+02  0.16505914810E+03  0.12509000000E+03 0.  0.
         25    1    3    3    0    0  0.55840440729E+02  0.10045417984E+03 -0.65247502516E+02  0.18197236535E+03  0.12509000000E+03 0.  0.
         25    1    4    4    0    0 -0.10810324003E+02 -0.11894234691E+02 -0.56606046568E+02  0.13823924382E+03  0.12509000000E+03 0.  0.
<mgrwt>
<rscale>  2 0.45693199E+03</rscale>
<asrwt>0</asrwt>
<pdfrwt beam="1">  1       21 0.23666675E-01 0.45693199E+03</pdfrwt>
<pdfrwt beam="2">  1       21 0.47696672E-01 0.45693199E+03</pdfrwt>
<totfact> 0.65310976E+04</totfact>
</mgrwt>
</event>
<event>
 7    0  0.4709932E-002  0.4482892E+03  0.7546771E-02  0.1028233E+00
         21   -1    0    0  502  501  0.00000000000E+00  0.00000000000E+00  0.13025855660E+03  0.13025855660E+03  0.00000000000E+00 0. -1.
         21   -1    0    0  501  502 -0.00000000000E+00 -0.00000000000E+00 -0.38570061196E+03  0.38570061196E+03  0.00000000000E+00 0. -1.
      99926    2    1    2    0    0 -0.14210854715E-13 -0.88817841970E-15 -0.25544205536E+03  0.51595916856E+03  0.44828921466E+03 0.  0.
      99925    2    3    3    0    0 -0.10347737158E+03 -0.73498707339E+01 -0.19046068857E+03  0.34094010344E+03  0.26306518814E+03 0.  0.
         25    1    4    4    0    0 -0.95060659549E+02 -0.93804349544E+01 -0.10605775519E+03  0.18979008691E+03  0.12509000000E+03 0.  0.
         25    1    4    4    0    0 -0.84167120274E+01  0.20305642206E+01 -0.84402933378E+02  0.15115001652E+03  0.12509000000E+03 0.  0.
         25    1    3    3    0    0  0.10347737158E+03  0.73498707339E+01 -0.64981366783E+02  0.17501906512E+03  0.12509000000E+03 0.  0.
<mgrwt>
<rscale>  2 0.44828921E+03</rscale>
<asrwt>0</asrwt>
<pdfrwt beam="1">  1       21 0.19155670E-01 0.44828921E+03</pdfrwt>
<pdfrwt beam="2">  1       21 0.56720679E-01 0.44828921E+03</pdfrwt>
<totfact> 0.67696525E+04</totfact>
</mgrwt>
</event>
<event>
 7    0  0.4709932E-002  0.4545019E+03  0.7546771E-02  0.1026388E+00
         21   -1    0    0  502  501  0.00000000000E+00  0.00000000000E+00  0.89163642756E+03  0.89163642756E+03  0.00000000000E+00 0. -1.
         21   -1    0    0  501  502 -0.00000000000E+00 -0.00000000000E+00 -0.57919341814E+02  0.57919341814E+02  0.00000000000E+00 0. -1.
      99926    2    1    2    0    0  0.71054273576E-14  0.00000000000E+00  0.83371708575E+03  0.94955576938E+03  0.45450190328E+03 0.  0.
      99925    2    3    3    0    0 -0.52687608781E+02 -0.53413766667E+02  0.34900083408E+03  0.44336769433E+03  0.26295306729E+03 0.  0.
         25    1    4    4    0    0 -0.33823294432E+02  0.13540559812E+02  0.16954670855E+03  0.21382459280E+03  0.12509000000E+03 0.  0.
         25    1    3    3    0    0  0.52687608781E+02  0.53413766667E+02  0.48471625167E+03  0.50618807505E+03  0.12509000000E+03 0.  0.
         25    1    4    4    0    0 -0.18864314349E+02 -0.66954326479E+02  0.17945412553E+03  0.22954310153E+03  0.12509000000E+03 0.  0.
<mgrwt>
<rscale>  2 0.45450190E+03</rscale>
<asrwt>0</asrwt>
<pdfrwt beam="1">  1       21 0.13112300E+00 0.45450190E+03</pdfrwt>
<pdfrwt beam="2">  1       21 0.85175508E-02 0.45450190E+03</pdfrwt>
<totfact> 0.41319507E+04</totfact>
</mgrwt>
</event>
<event>
 7    0  0.4709932E-002  0.4552061E+03  0.7546771E-02  0.1026181E+00
         21   -1    0    0  502  501  0.00000000000E+00  0.00000000000E+00  0.48337711331E+03  0.48337711331E+03  0.00000000000E+00 0. -1.
         21   -1    0    0  501  502 -0.00000000000E+00 -0.00000000000E+00 -0.10716922208E+03  0.10716922208E+03  0.00000000000E+00 0. -1.
      99926    2    1    2    0    0  0.00000000000E+00  0.00000000000E+00  0.37620789122E+03  0.59054633539E+03  0.45520610368E+03 0.  0.
      99925    2    3    3    0    0  0.98759535486E+02 -0.51688852115E+02  0.26314493812E+03  0.38841785460E+03  0.26305510455E+03 0.  0.
         25    1    3    3    0    0 -0.98759535486E+02  0.51688852115E+02  0.11306295310E+03  0.20212848079E+03  0.12509000000E+03 0.  0.
         25    1    4    4    0    0  0.88658533346E+02 -0.25720093629E+02  0.12079016262E+03  0.19687465616E+03  0.12509000000E+03 0.  0.
         25    1    4    4    0    0  0.10101002141E+02 -0.25968758487E+02  0.14235477550E+03  0.19154319844E+03  0.12509000000E+03 0.  0.
<mgrwt>
<rscale>  2 0.45520610E+03</rscale>
<asrwt>0</asrwt>
<pdfrwt beam="1">  1       21 0.71084869E-01 0.45520610E+03</pdfrwt>
<pdfrwt beam="2">  1       21 0.15760180E-01 0.45520610E+03</pdfrwt>
<totfact> 0.59167531E+04</totfact>
</mgrwt>
</event>
<event>
 7    0  0.4709932E-002  0.4552913E+03  0.7546771E-02  0.1026156E+00
         21   -1    0    0  502  501  0.00000000000E+00  0.00000000000E+00  0.54864392412E+02  0.54864392412E+02  0.00000000000E+00 0. -1.
         21   -1    0    0  501  502 -0.00000000000E+00 -0.00000000000E+00 -0.94455696224E+03  0.94455696224E+03  0.00000000000E+00 0. -1.
      99926    2    1    2    0    0 -0.35527136788E-14 -0.71054273576E-14 -0.88969256983E+03  0.99942135465E+03  0.45529130820E+03 0.  0.
      99925    2    3    3    0    0  0.74839581384E+01  0.33831581352E+02 -0.32225173500E+03  0.41732411651E+03  0.26289285266E+03 0.  0.
         25    1    3    3    0    0 -0.74839581384E+01 -0.33831581352E+02 -0.56744083483E+03  0.58209723814E+03  0.12509000000E+03 0.  0.
         25    1    4    4    0    0  0.32329765107E+02  0.37638161952E+02 -0.19663352495E+03  0.23827315456E+03  0.12509000000E+03 0.  0.
         25    1    4    4    0    0 -0.24845806968E+02 -0.38065805998E+01 -0.12561821005E+03  0.17905096195E+03  0.12509000000E+03 0.  0.
<mgrwt>
<rscale>  2 0.45529131E+03</rscale>
<asrwt>0</asrwt>
<pdfrwt beam="1">  1       21 0.80682937E-02 0.45529131E+03</pdfrwt>
<pdfrwt beam="2">  1       21 0.13890542E+00 0.45529131E+03</pdfrwt>
<totfact> 0.39100282E+04</totfact>
</mgrwt>
</event>
<event>
 6    0  0.4709932E-002  0.4578348E+03  0.7546771E-02  0.1025411E+00
         21   -1    0    0  502  501  0.00000000000E+00  0.00000000000E+00  0.14031143793E+03  0.14031143793E+03  0.00000000000E+00 0. -1.
         21   -1    0    0  501  502 -0.00000000000E+00 -0.00000000000E+00 -0.37347754881E+03  0.37347754881E+03  0.00000000000E+00 0. -1.
      99926    2    1    2    0    0  0.71054273576E-14  0.00000000000E+00 -0.23316611088E+03  0.51378898674E+03  0.45783478202E+03 0.  0.
         25    1    3    3    0    0  0.38844774593E+02  0.90886055144E+01 -0.37536887981E+02  0.13655784607E+03  0.12509000000E+03 0.  0.
         25    1    3    3    0    0 -0.64076015922E+02 -0.83631477204E+02 -0.53196942634E+02  0.17198076230E+03  0.12509000000E+03 0.  0.
         25    1    3    3    0    0  0.25231241329E+02  0.74542871690E+02 -0.14243228026E+03  0.20525037837E+03  0.12509000000E+03 0.  0.
<mgrwt>
<rscale>  2 0.45783478E+03</rscale>
<asrwt>0</asrwt>
<pdfrwt beam="1">  1       21 0.20634035E-01 0.45783478E+03</pdfrwt>
<pdfrwt beam="2">  1       21 0.54923168E-01 0.45783478E+03</pdfrwt>
<totfact> 0.62885755E+04</totfact>
</mgrwt>
</event>
<event>
 7    0  0.4709932E-002  0.4483157E+03  0.7546771E-02  0.1028226E+00
         21   -1    0    0  502  501  0.00000000000E+00  0.00000000000E+00  0.23112321636E+02  0.23112321636E+02  0.00000000000E+00 0.  1.
         21   -1    0    0  501  502 -0.00000000000E+00 -0.00000000000E+00 -0.21740235105E+04  0.21740235105E+04  0.00000000000E+00 0.  1.
      99926    2    1    2    0    0  0.00000000000E+00  0.00000000000E+00 -0.21509111889E+04  0.21971358322E+04  0.44831565050E+03 0.  0.
      99925    2    3    3    0    0  0.10788790792E+02  0.93918546914E+02 -0.11181076383E+04  0.11524982043E+04  0.26296450044E+03 0.  0.
         25    1    4    4    0    0 -0.11662520990E+02  0.33427955605E+02 -0.68068320415E+03  0.69298670631E+03  0.12509000000E+03 0.  0.
         25    1    4    4    0    0  0.22451311783E+02  0.60490591309E+02 -0.43742443417E+03  0.45951149794E+03  0.12509000000E+03 0.  0.
         25    1    3    3    0    0 -0.10788790792E+02 -0.93918546914E+02 -0.10328035506E+04  0.10446376279E+04  0.12509000000E+03 0.  0.
<mgrwt>
<rscale>  2 0.44831565E+03</rscale>
<asrwt>0</asrwt>
<pdfrwt beam="1">  1       21 0.33988710E-02 0.44831565E+03</pdfrwt>
<pdfrwt beam="2">  1       21 0.31970932E+00 0.44831565E+03</pdfrwt>
<totfact> 0.11326947E+04</totfact>
</mgrwt>
</event>
<event>
 7    0  0.4709932E-002  0.4461278E+03  0.7546771E-02  0.1028883E+00
         21   -1    0    0  502  501  0.00000000000E+00  0.00000000000E+00  0.13359223993E+03  0.13359223993E+03  0.00000000000E+00 0. -1.
         21   -1    0    0  501  502 -0.00000000000E+00 -0.00000000000E+00 -0.37245802128E+03  0.37245802128E+03  0.00000000000E+00 0. -1.
      99926    2    1    2    0    0  0.00000000000E+00  0.17763568394E-14 -0.23886578136E+03  0.50605026121E+03  0.44612779040E+03 0.  0.
      99925    2    3    3    0    0  0.10306940431E+03 -0.96695918458E+01 -0.13492384598E+03  0.31325960495E+03  0.26307856767E+03 0.  0.
         25    1    4    4    0    0  0.80857776754E+02  0.21352195557E+02 -0.56255757235E+02  0.16064281695E+03  0.12509000000E+03 0.  0.
         25    1    3    3    0    0 -0.10306940431E+03  0.96695918458E+01 -0.10394193538E+03  0.19279065626E+03  0.12509000000E+03 0.  0.
         25    1    4    4    0    0  0.22211627553E+02 -0.31021787402E+02 -0.78668088742E+02  0.15261678800E+03  0.12509000000E+03 0.  0.
<mgrwt>
<rscale>  2 0.44612779E+03</rscale>
<asrwt>0</asrwt>
<pdfrwt beam="1">  1       21 0.19645918E-01 0.44612779E+03</pdfrwt>
<pdfrwt beam="2">  1       21 0.54773239E-01 0.44612779E+03</pdfrwt>
<totfact> 0.69622116E+04</totfact>
</mgrwt>
</event>
<event>
 7    0  0.4709932E-002  0.4663593E+03  0.7546771E-02  0.1022953E+00
         21   -1    0    0  502  501  0.00000000000E+00  0.00000000000E+00  0.71396772005E+03  0.71396772005E+03  0.00000000000E+00 0.  1.
         21   -1    0    0  501  502 -0.00000000000E+00 -0.00000000000E+00 -0.76155761477E+02  0.76155761477E+02  0.00000000000E+00 0.  1.
      99926    2    1    2    0    0  0.17763568394E-14  0.00000000000E+00  0.63781195857E+03  0.79012348153E+03  0.46635932666E+03 0.  0.
      99925    2    3    3    0    0  0.72749069903E+01  0.68583442323E+02  0.22406242782E+03  0.35241033901E+03  0.26312062376E+03 0.  0.
         25    1    4    4    0    0 -0.26673517807E+02  0.59306746477E+01  0.10669491733E+03  0.16666722215E+03  0.12509000000E+03 0.  0.
         25    1    4    4    0    0  0.33948424797E+02  0.62652767675E+02  0.11736751049E+03  0.18574311686E+03  0.12509000000E+03 0.  0.
         25    1    3    3    0    0 -0.72749069903E+01 -0.68583442323E+02  0.41374953076E+03  0.43771314252E+03  0.12509000000E+03 0.  0.
<mgrwt>
<rscale>  2 0.46635933E+03</rscale>
<asrwt>0</asrwt>
<pdfrwt beam="1">  1       21 0.10499525E+00 0.46635933E+03</pdfrwt>
<pdfrwt beam="2">  1       21 0.11199377E-01 0.46635933E+03</pdfrwt>
<totfact> 0.44174383E+04</totfact>
</mgrwt>
</event>
<event>
 7    0  0.4709932E-002  0.4447176E+03  0.7546771E-02  0.1029309E+00
         21   -1    0    0  502  501  0.00000000000E+00  0.00000000000E+00  0.34910429220E+03  0.34910429220E+03  0.00000000000E+00 0. -1.
         21   -1    0    0  501  502 -0.00000000000E+00 -0.00000000000E+00 -0.14162941205E+03  0.14162941205E+03  0.00000000000E+00 0. -1.
      99926    2    1    2    0    0  0.00000000000E+00  0.00000000000E+00  0.20747488015E+03  0.49073370425E+03  0.44471759870E+03 0.  0.
      99925    2    3    3    0    0  0.88344947887E+02  0.48208842781E+02  0.10592540015E+03  0.30076337149E+03  0.26288684428E+03 0.  0.
         25    1    4    4    0    0  0.30553968705E+02  0.52720119661E+02  0.79929933881E+02  0.16046575476E+03  0.12509000000E+03 0.  0.
         25    1    3    3    0    0 -0.88344947887E+02 -0.48208842781E+02  0.10154948000E+03  0.18997033276E+03  0.12509000000E+03 0.  0.
         25    1    4    4    0    0  0.57790979182E+02 -0.45112768803E+01  0.25995466268E+02  0.14029761673E+03  0.12509000000E+03 0.  0.
<mgrwt>
<rscale>  2 0.44471760E+03</rscale>
<asrwt>0</asrwt>
<pdfrwt beam="1">  1       21 0.51338867E-01 0.44471760E+03</pdfrwt>
<pdfrwt beam="2">  1       21 0.20827855E-01 0.44471760E+03</pdfrwt>
<totfact> 0.71594571E+04</totfact>
</mgrwt>
</event>
<event>
 7    0  0.4709932E-002  0.4574714E+03  0.7546771E-02  0.1025517E+00
         21   -1    0    0  502  501  0.00000000000E+00  0.00000000000E+00  0.17236873379E+04  0.17236873379E+04  0.00000000000E+00 0. -1.
         21   -1    0    0  501  502 -0.00000000000E+00 -0.00000000000E+00 -0.30353543813E+02  0.30353543813E+02  0.00000000000E+00 0. -1.
      99926    2    1    2    0    0  0.00000000000E+00 -0.17763568394E-14  0.16933337941E+04  0.17540408818E+04  0.45747139422E+03 0.  0.
      99925    2    3    3    0    0 -0.11124492924E+03  0.10999948184E+02  0.95302644233E+03  0.99496320696E+03  0.26305123130E+03 0.  0.
         25    1    3    3    0    0  0.11124492924E+03 -0.10999948184E+02  0.74030735180E+03  0.75907767479E+03  0.12509000000E+03 0.  0.
         25    1    4    4    0    0 -0.66386086868E+02 -0.16153496107E+02  0.60199873204E+03  0.61864208509E+03  0.12509000000E+03 0.  0.
         25    1    4    4    0    0 -0.44858842369E+02  0.27153444291E+02  0.35102771028E+03  0.37632112187E+03  0.12509000000E+03 0.  0.
<mgrwt>
<rscale>  2 0.45747139E+03</rscale>
<asrwt>0</asrwt>
<pdfrwt beam="1">  1       21 0.25348336E+00 0.45747139E+03</pdfrwt>
<pdfrwt beam="2">  1       21 0.44637576E-02 0.45747139E+03</pdfrwt>
<totfact> 0.17815241E+04</totfact>
</mgrwt>
</event>
<event>
 7    0  0.4709932E-002  0.4490860E+03  0.7546771E-02  0.1027995E+00
         21   -1    0    0  502  501  0.00000000000E+00  0.00000000000E+00  0.69583934720E+02  0.69583934720E+02  0.00000000000E+00 0. -1.
         21   -1    0    0  501  502 -0.00000000000E+00 -0.00000000000E+00 -0.72458629058E+03  0.72458629058E+03  0.00000000000E+00 0. -1.
      99926    2    1    2    0    0  0.00000000000E+00 -0.71054273576E-14 -0.65500235586E+03  0.79417022530E+03  0.44908602803E+03 0.  0.
      99925    2    3    3    0    0  0.81474144429E+02  0.59738013710E+02 -0.35140017730E+03  0.45061752568E+03  0.26337692258E+03 0.  0.
         25    1    3    3    0    0 -0.81474144429E+02 -0.59738013710E+02 -0.30360217856E+03  0.34355269962E+03  0.12509000000E+03 0.  0.
         25    1    4    4    0    0  0.60428128157E+02  0.66961183708E+02 -0.17550128604E+03  0.23363126567E+03  0.12509000000E+03 0.  0.
         25    1    4    4    0    0  0.21046016272E+02 -0.72231699989E+01 -0.17589889126E+03  0.21698626001E+03  0.12509000000E+03 0.  0.
<mgrwt>
<rscale>  2 0.44908603E+03</rscale>
<asrwt>0</asrwt>
<pdfrwt beam="1">  1       21 0.10232932E-01 0.44908603E+03</pdfrwt>
<pdfrwt beam="2">  1       21 0.10655680E+00 0.44908603E+03</pdfrwt>
<totfact> 0.50344429E+04</totfact>
</mgrwt>
</event>
<event>
 7    0  0.4709932E-002  0.4430312E+03  0.7546771E-02  0.1029821E+00
         21   -1    0    0  502  501  0.00000000000E+00  0.00000000000E+00  0.37016777291E+03  0.37016777291E+03  0.00000000000E+00 0.  1.
         21   -1    0    0  501  502 -0.00000000000E+00 -0.00000000000E+00 -0.13255921949E+03  0.13255921949E+03  0.00000000000E+00 0.  1.
      99926    2    1    2    0    0  0.00000000000E+00  0.00000000000E+00  0.23760855342E+03  0.50272699240E+03  0.44303115491E+03 0.  0.
      99925    2    3    3    0    0 -0.84105057392E+02 -0.56953270501E+02  0.14563998910E+03  0.31719246563E+03  0.26283591483E+03 0.  0.
         25    1    4    4    0    0 -0.71728740755E+02 -0.38680744873E+02  0.10944817606E+03  0.18511516312E+03  0.12509000000E+03 0.  0.
         25    1    4    4    0    0 -0.12376316636E+02 -0.18272525628E+02  0.36191813038E+02  0.13207730251E+03  0.12509000000E+03 0.  0.
         25    1    3    3    0    0  0.84105057392E+02  0.56953270501E+02  0.91968564320E+02  0.18553452677E+03  0.12509000000E+03 0.  0.
<mgrwt>
<rscale>  2 0.44303115E+03</rscale>
<asrwt>0</asrwt>
<pdfrwt beam="1">  1       21 0.54436437E-01 0.44303115E+03</pdfrwt>
<pdfrwt beam="2">  1       21 0.19494003E-01 0.44303115E+03</pdfrwt>
<totfact> 0.71647089E+04</totfact>
</mgrwt>
</event>
<event>
 7    0  0.4709932E-002  0.4450434E+03  0.7546771E-02  0.1029211E+00
         21   -1    0    0  502  501  0.00000000000E+00  0.00000000000E+00  0.48917773710E+03  0.48917773710E+03  0.00000000000E+00 0. -1.
         21   -1    0    0  501  502 -0.00000000000E+00 -0.00000000000E+00 -0.10122274262E+03  0.10122274262E+03  0.00000000000E+00 0. -1.
      99926    2    1    2    0    0 -0.35527136788E-14 -0.14210854715E-13  0.38795499447E+03  0.59040047972E+03  0.44504342341E+03 0.  0.
      99925    2    3    3    0    0  0.12296908584E+02  0.97310328958E+02  0.20234023501E+03  0.34602195957E+03  0.26300021239E+03 0.  0.
         25    1    3    3    0    0 -0.12296908584E+02 -0.97310328958E+02  0.18561475946E+03  0.24437852015E+03  0.12509000000E+03 0.  0.
         25    1    4    4    0    0  0.27461887649E+02  0.43974947288E+02  0.58524249204E+02  0.14751456575E+03  0.12509000000E+03 0.  0.
         25    1    4    4    0    0 -0.15164979065E+02  0.53335381670E+02  0.14381598581E+03  0.19850739382E+03  0.12509000000E+03 0.  0.
<mgrwt>
<rscale>  2 0.44504342E+03</rscale>
<asrwt>0</asrwt>
<pdfrwt beam="1">  1       21 0.71937902E-01 0.44504342E+03</pdfrwt>
<pdfrwt beam="2">  1       21 0.14885698E-01 0.44504342E+03</pdfrwt>
<totfact> 0.64175803E+04</totfact>
</mgrwt>
</event>
<event>
 7    0  0.4709932E-002  0.4542836E+03  0.7546771E-02  0.1026452E+00
         21   -1    0    0  502  501  0.00000000000E+00  0.00000000000E+00  0.55753096777E+02  0.55753096777E+02  0.00000000000E+00 0.  1.
         21   -1    0    0  501  502 -0.00000000000E+00 -0.00000000000E+00 -0.92539054485E+03  0.92539054485E+03  0.00000000000E+00 0.  1.
      99926    2    1    2    0    0  0.00000000000E+00  0.00000000000E+00 -0.86963744808E+03  0.98114364163E+03  0.45428356168E+03 0.  0.
      99925    2    3    3    0    0 -0.84158652090E+02 -0.54481724352E+02 -0.65776102977E+03  0.71545573874E+03  0.26301407718E+03 0.  0.
         25    1    4    4    0    0 -0.23375348726E+01 -0.37428380973E+02 -0.28576822298E+03  0.31419314623E+03  0.12509000000E+03 0.  0.
         25    1    3    3    0    0  0.84158652090E+02  0.54481724352E+02 -0.21187641830E+03  0.26568790289E+03  0.12509000000E+03 0.  0.
         25    1    4    4    0    0 -0.81821117217E+02 -0.17053343379E+02 -0.37199280679E+03  0.40126259251E+03  0.12509000000E+03 0.  0.
<mgrwt>
<rscale>  2 0.45428356E+03</rscale>
<asrwt>0</asrwt>
<pdfrwt beam="1">  1       21 0.81989853E-02 0.45428356E+03</pdfrwt>
<pdfrwt beam="2">  1       21 0.13608684E+00 0.45428356E+03</pdfrwt>
<totfact> 0.40128878E+04</totfact>
</mgrwt>
</event>
<event>
 7    0  0.4709932E-002  0.4601116E+03  0.7546771E-02  0.1024749E+00
         21   -1    0    0  502  501  0.00000000000E+00  0.00000000000E+00  0.11806132844E+03  0.11806132844E+03  0.00000000000E+00 0.  1.
         21   -1    0    0  501  502 -0.00000000000E+00 -0.00000000000E+00 -0.44828974256E+03  0.44828974256E+03  0.00000000000E+00 0.  1.
      99926    2    1    2    0    0  0.00000000000E+00  0.00000000000E+00 -0.33022841413E+03  0.56635107100E+03  0.46011164963E+03 0.  0.
      99925    2    3    3    0    0 -0.92026748211E+02 -0.24966601067E+02 -0.12051840474E+03  0.30420979288E+03  0.26253887074E+03 0.  0.
         25    1    4    4    0    0 -0.51695532324E+02  0.26944197117E+02 -0.59837545836E+02  0.15042093542E+03  0.12509000000E+03 0.  0.
         25    1    4    4    0    0 -0.40331215886E+02 -0.51910798184E+02 -0.60680858908E+02  0.15378885747E+03  0.12509000000E+03 0.  0.
         25    1    3    3    0    0  0.92026748211E+02  0.24966601067E+02 -0.20971000938E+03  0.26214127811E+03  0.12509000000E+03 0.  0.
<mgrwt>
<rscale>  2 0.46011165E+03</rscale>
<asrwt>0</asrwt>
<pdfrwt beam="1">  1       21 0.17361960E-01 0.46011165E+03</pdfrwt>
<pdfrwt beam="2">  1       21 0.65924962E-01 0.46011165E+03</pdfrwt>
<totfact> 0.58401749E+04</totfact>
</mgrwt>
</event>
<event>
 6    0  0.4709932E-002  0.4545878E+03  0.7546771E-02  0.1026363E+00
         21   -1    0    0  502  501  0.00000000000E+00  0.00000000000E+00  0.93608447843E+02  0.93608447843E+02  0.00000000000E+00 0. -1.
         21   -1    0    0  501  502 -0.00000000000E+00 -0.00000000000E+00 -0.55190022009E+03  0.55190022009E+03  0.00000000000E+00 0. -1.
      99926    2    1    2    0    0  0.00000000000E+00  0.00000000000E+00 -0.45829177225E+03  0.64550866793E+03  0.45458782635E+03 0.  0.
         25    1    3    3    0    0  0.38567172689E+02  0.24218786981E+02 -0.13328294656E+03  0.18837682553E+03  0.12509000000E+03 0.  0.
         25    1    3    3    0    0  0.34488052821E+02 -0.91703480793E+02 -0.13213832811E+03  0.20665672027E+03  0.12509000000E+03 0.  0.
         25    1    3    3    0    0 -0.73055225510E+02  0.67484693813E+02 -0.19287049758E+03  0.25047512214E+03  0.12509000000E+03 0.  0.
<mgrwt>
<rscale>  2 0.45458783E+03</rscale>
<asrwt>0</asrwt>
<pdfrwt beam="1">  1       21 0.13765948E-01 0.45458783E+03</pdfrwt>
<pdfrwt beam="2">  1       21 0.81161798E-01 0.45458783E+03</pdfrwt>
<totfact> 0.56143338E+04</totfact>
</mgrwt>
</event>
<event>
 7    0  0.4709932E-002  0.4519666E+03  0.7546771E-02  0.1027137E+00
         21   -1    0    0  502  501  0.00000000000E+00  0.00000000000E+00  0.87665236481E+02  0.87665236481E+02  0.00000000000E+00 0. -1.
         21   -1    0    0  501  502 -0.00000000000E+00 -0.00000000000E+00 -0.58253935268E+03  0.58253935268E+03  0.00000000000E+00 0. -1.
      99926    2    1    2    0    0  0.00000000000E+00  0.00000000000E+00 -0.49487411619E+03  0.67020458916E+03  0.45196659218E+03 0.  0.
      99925    2    3    3    0    0 -0.80272039009E+02 -0.68688499680E+02 -0.36231959629E+03  0.45953916940E+03  0.26218132680E+03 0.  0.
         25    1    4    4    0    0 -0.65006659542E+02 -0.16632431749E+02 -0.14445780513E+03  0.20252918094E+03  0.12509000000E+03 0.  0.
         25    1    3    3    0    0  0.80272039009E+02  0.68688499680E+02 -0.13255451991E+03  0.21066541976E+03  0.12509000000E+03 0.  0.
         25    1    4    4    0    0 -0.15265379467E+02 -0.52056067931E+02 -0.21786179115E+03  0.25700998845E+03  0.12509000000E+03 0.  0.
<mgrwt>
<rscale>  2 0.45196659E+03</rscale>
<asrwt>0</asrwt>
<pdfrwt beam="1">  1       21 0.12891947E-01 0.45196659E+03</pdfrwt>
<pdfrwt beam="2">  1       21 0.85667550E-01 0.45196659E+03</pdfrwt>
<totfact> 0.55874780E+04</totfact>
</mgrwt>
</event>
<event>
 7    0  0.4709932E-002  0.4524814E+03  0.7546771E-02  0.1026985E+00
         21   -1    0    0  502  501  0.00000000000E+00  0.00000000000E+00  0.74187169274E+02  0.74187169274E+02  0.00000000000E+00 0. -1.
         21   -1    0    0  501  502 -0.00000000000E+00 -0.00000000000E+00 -0.68994212874E+03  0.68994212874E+03  0.00000000000E+00 0. -1.
      99926    2    1    2    0    0  0.14210854715E-13  0.17763568394E-14 -0.61575495947E+03  0.76412929802E+03  0.45248139628E+03 0.  0.
      99925    2    3    3    0    0 -0.10904835446E+03 -0.55283302922E+01 -0.42026032019E+03  0.50763803475E+03  0.26297439334E+03 0.  0.
         25    1    4    4    0    0 -0.13551924956E+02  0.11986019327E+02 -0.18546808212E+03  0.22443982916E+03  0.12509000000E+03 0.  0.
         25    1    3    3    0    0  0.10904835446E+03  0.55283302922E+01 -0.19549463928E+03  0.25649126327E+03  0.12509000000E+03 0.  0.
         25    1    4    4    0    0 -0.95496429502E+02 -0.17514349619E+02 -0.23479223807E+03  0.28319820559E+03  0.12509000000E+03 0.  0.
<mgrwt>
<rscale>  2 0.45248140E+03</rscale>
<asrwt>0</asrwt>
<pdfrwt beam="1">  1       21 0.10909877E-01 0.45248140E+03</pdfrwt>
<pdfrwt beam="2">  1       21 0.10146208E+00 0.45248140E+03</pdfrwt>
<totfact> 0.50540490E+04</totfact>
</mgrwt>
</event>
<event>
 7    0  0.4709932E-002  0.4046788E+03  0.7546771E-02  0.1042172E+00
         21   -1    0    0  502  501  0.00000000000E+00  0.00000000000E+00  0.51601808012E+03  0.51601808012E+03  0.00000000000E+00 0. -1.
         21   -1    0    0  501  502 -0.00000000000E+00 -0.00000000000E+00 -0.79340701846E+02  0.79340701846E+02  0.00000000000E+00 0. -1.
      99926    2    1    2    0    0  0.71054273576E-14  0.00000000000E+00  0.43667737827E+03  0.59535878196E+03  0.40467881902E+03 0.  0.
      99925    2    3    3    0    0  0.48589261158E+02 -0.19525791056E+02  0.30632365076E+03  0.40725834286E+03  0.26321665220E+03 0.  0.
         25    1    4    4    0    0 -0.13944489521E+02 -0.17379686787E+02  0.16700462961E+03  0.20984412480E+03  0.12509000000E+03 0.  0.
         25    1    3    3    0    0 -0.48589261158E+02  0.19525791056E+02  0.13035372751E+03  0.18810043911E+03  0.12509000000E+03 0.  0.
         25    1    4    4    0    0  0.62533750680E+02 -0.21461042688E+01  0.13931902115E+03  0.19741421806E+03  0.12509000000E+03 0.  0.
<mgrwt>
<rscale>  2 0.40467882E+03</rscale>
<asrwt>0</asrwt>
<pdfrwt beam="1">  1       21 0.75885010E-01 0.40467882E+03</pdfrwt>
<pdfrwt beam="2">  1       21 0.11667751E-01 0.40467882E+03</pdfrwt>
<totfact> 0.89618968E+04</totfact>
</mgrwt>
</event>
<event>
 7    0  0.4709932E-002  0.4569089E+03  0.7546771E-02  0.1025682E+00
         21   -1    0    0  502  501  0.00000000000E+00  0.00000000000E+00  0.38048281210E+02  0.38048281210E+02  0.00000000000E+00 0. -1.
         21   -1    0    0  501  502 -0.00000000000E+00 -0.00000000000E+00 -0.13717159022E+04  0.13717159022E+04  0.00000000000E+00 0. -1.
      99926    2    1    2    0    0  0.00000000000E+00  0.00000000000E+00 -0.13336676210E+04  0.14097641834E+04  0.45690888540E+03 0.  0.
      99925    2    3    3    0    0 -0.78817272769E+02 -0.35195406352E+02 -0.10722921140E+04  0.11074141497E+04  0.26287799862E+03 0.  0.
         25    1    3    3    0    0  0.78817272769E+02  0.35195406352E+02 -0.26137550701E+03  0.30235003370E+03  0.12509000000E+03 0.  0.
         25    1    4    4    0    0 -0.46836562423E+02  0.11407996268E+02 -0.63853202480E+03  0.65245265020E+03  0.12509000000E+03 0.  0.
         25    1    4    4    0    0 -0.31980710346E+02 -0.46603402620E+02 -0.43376008921E+03  0.45496149954E+03  0.12509000000E+03 0.  0.
<mgrwt>
<rscale>  2 0.45690889E+03</rscale>
<asrwt>0</asrwt>
<pdfrwt beam="1">  1       21 0.55953353E-02 0.45690889E+03</pdfrwt>
<pdfrwt beam="2">  1       21 0.20172293E+00 0.45690889E+03</pdfrwt>
<totfact> 0.25689773E+04</totfact>
</mgrwt>
</event>
<event>
 6    0  0.4709932E-002  0.4474402E+03  0.7546771E-02  0.1028488E+00
         21   -1    0    0  502  501  0.00000000000E+00  0.00000000000E+00  0.41607200737E+03  0.41607200737E+03  0.00000000000E+00 0.  1.
         21   -1    0    0  501  502 -0.00000000000E+00 -0.00000000000E+00 -0.12029331376E+03  0.12029331376E+03  0.00000000000E+00 0.  1.
      99926    2    1    2    0    0  0.00000000000E+00  0.35527136788E-14  0.29577869362E+03  0.53636532113E+03  0.44744018831E+03 0.  0.
         25    1    3    3    0    0  0.97273987833E+02 -0.22362333612E+02  0.97666593673E+02  0.18747953033E+03  0.12509000000E+03 0.  0.
         25    1    3    3    0    0 -0.93441746324E+02  0.38550338291E+02  0.10515036627E+03  0.19214993147E+03  0.12509000000E+03 0.  0.
         25    1    3    3    0    0 -0.38322415085E+01 -0.16188004679E+02  0.92961733676E+02  0.15673585933E+03  0.12509000000E+03 0.  0.
<mgrwt>
<rscale>  2 0.44744019E+03</rscale>
<asrwt>0</asrwt>
<pdfrwt beam="1">  1       21 0.61187059E-01 0.44744019E+03</pdfrwt>
<pdfrwt beam="2">  1       21 0.17690193E-01 0.44744019E+03</pdfrwt>
<totfact> 0.66677411E+04</totfact>
</mgrwt>
</event>
<event>
 7    0  0.4709932E-002  0.4512315E+03  0.7546771E-02  0.1027355E+00
         21   -1    0    0  502  501  0.00000000000E+00  0.00000000000E+00  0.52179648552E+03  0.52179648552E+03  0.00000000000E+00 0. -1.
         21   -1    0    0  501  502 -0.00000000000E+00 -0.00000000000E+00 -0.97552327555E+02  0.97552327555E+02  0.00000000000E+00 0. -1.
      99926    2    1    2    0    0  0.00000000000E+00  0.00000000000E+00  0.42424415797E+03  0.61934881308E+03  0.45123147795E+03 0.  0.
      99925    2    3    3    0    0  0.89378798393E+02  0.51924179212E+02  0.31726695920E+03  0.42498750225E+03  0.26319453582E+03 0.  0.
         25    1    4    4    0    0  0.41808906125E+02  0.33958601368E+02  0.21934826969E+03  0.25819051639E+03  0.12509000000E+03 0.  0.
         25    1    4    4    0    0  0.47569892268E+02  0.17965577844E+02  0.97918689509E+02  0.16679698586E+03  0.12509000000E+03 0.  0.
         25    1    3    3    0    0 -0.89378798393E+02 -0.51924179212E+02  0.10697719877E+03  0.19436131083E+03  0.12509000000E+03 0.  0.
<mgrwt>
<rscale>  2 0.45123148E+03</rscale>
<asrwt>0</asrwt>
<pdfrwt beam="1">  1       21 0.76734776E-01 0.45123148E+03</pdfrwt>
<pdfrwt beam="2">  1       21 0.14345931E-01 0.45123148E+03</pdfrwt>
<totfact> 0.59246302E+04</totfact>
</mgrwt>
</event>
<event>
 7    0  0.4709932E-002  0.4266445E+03  0.7546771E-02  0.1034925E+00
         21   -1    0    0  502  501  0.00000000000E+00  0.00000000000E+00  0.51225666369E+03  0.51225666369E+03  0.00000000000E+00 0. -1.
         21   -1    0    0  501  502 -0.00000000000E+00 -0.00000000000E+00 -0.88835107134E+02  0.88835107134E+02  0.00000000000E+00 0. -1.
      99926    2    1    2    0    0  0.00000000000E+00  0.55511151231E-16  0.42342155656E+03  0.60109177083E+03  0.42664446838E+03 0.  0.
      99925    2    3    3    0    0  0.83361774855E+02  0.26244896208E+00  0.28455911395E+03  0.39644685773E+03  0.26314818504E+03 0.  0.
         25    1    4    4    0    0  0.62751348562E+01  0.24013078083E+01  0.16400344522E+03  0.20637291911E+03  0.12509000000E+03 0.  0.
         25    1    4    4    0    0  0.77086639999E+02 -0.21388588462E+01  0.12055566872E+03  0.19007393863E+03  0.12509000000E+03 0.  0.
         25    1    3    3    0    0 -0.83361774855E+02 -0.26244896208E+00  0.13886244261E+03  0.20464491309E+03  0.12509000000E+03 0.  0.
<mgrwt>
<rscale>  2 0.42664447E+03</rscale>
<asrwt>0</asrwt>
<pdfrwt beam="1">  1       21 0.75331861E-01 0.42664447E+03</pdfrwt>
<pdfrwt beam="2">  1       21 0.13063987E-01 0.42664447E+03</pdfrwt>
<totfact> 0.73805997E+04</totfact>
</mgrwt>
</event>
<event>
 7    0  0.4709932E-002  0.4535461E+03  0.7546771E-02  0.1026670E+00
         21   -1    0    0  502  501  0.00000000000E+00  0.00000000000E+00  0.46648180187E+03  0.46648180187E+03  0.00000000000E+00 0. -1.
         21   -1    0    0  501  502 -0.00000000000E+00 -0.00000000000E+00 -0.11024227889E+03  0.11024227889E+03  0.00000000000E+00 0. -1.
      99926    2    1    2    0    0  0.00000000000E+00 -0.14210854715E-13  0.35623952297E+03  0.57672408076E+03  0.45354610306E+03 0.  0.
      99925    2    3    3    0    0  0.36550784170E+02 -0.79993264931E+02  0.31231594500E+03  0.41762766012E+03  0.26293864444E+03 0.  0.
         25    1    4    4    0    0  0.24997847533E+02 -0.79447163161E+02  0.14945395634E+03  0.21194512799E+03  0.12509000000E+03 0.  0.
         25    1    3    3    0    0 -0.36550784170E+02  0.79993264931E+02  0.43923577972E+02  0.15909642064E+03  0.12509000000E+03 0.  0.
         25    1    4    4    0    0  0.11552936637E+02 -0.54610177013E+00  0.16286198866E+03  0.20568253213E+03  0.12509000000E+03 0.  0.
<mgrwt>
<rscale>  2 0.45354610E+03</rscale>
<asrwt>0</asrwt>
<pdfrwt beam="1">  1       21 0.68600264E-01 0.45354610E+03</pdfrwt>
<pdfrwt beam="2">  1       21 0.16212100E-01 0.45354610E+03</pdfrwt>
<totfact> 0.60830574E+04</totfact>
</mgrwt>
</event>
<event>
 7    0  0.4709932E-002  0.4575341E+03  0.7546771E-02  0.1025499E+00
         21   -1    0    0  502  501  0.00000000000E+00  0.00000000000E+00  0.20390304630E+03  0.20390304630E+03  0.00000000000E+00 0. -1.
         21   -1    0    0  501  502 -0.00000000000E+00 -0.00000000000E+00 -0.25666299687E+03  0.25666299687E+03  0.00000000000E+00 0. -1.
      99926    2    1    2    0    0  0.00000000000E+00  0.00000000000E+00 -0.52759950570E+02  0.46056604317E+03  0.45753411647E+03 0.  0.
      99925    2    3    3    0    0  0.50939882534E+02 -0.10114678651E+03 -0.56200127498E+02  0.29179137987E+03  0.26297948776E+03 0.  0.
         25    1    4    4    0    0  0.33676672080E+02 -0.55291671638E+02 -0.68992733965E+02  0.15684002243E+03  0.12509000000E+03 0.  0.
         25    1    3    3    0    0 -0.50939882534E+02  0.10114678651E+03  0.34401769281E+01  0.16877466330E+03  0.12509000000E+03 0.  0.
         25    1    4    4    0    0  0.17263210453E+02 -0.45855114875E+02  0.12792606467E+02  0.13495135744E+03  0.12509000000E+03 0.  0.
<mgrwt>
<rscale>  2 0.45753412E+03</rscale>
<asrwt>0</asrwt>
<pdfrwt beam="1">  1       21 0.29985742E-01 0.45753412E+03</pdfrwt>
<pdfrwt beam="2">  1       21 0.37744558E-01 0.45753412E+03</pdfrwt>
<totfact> 0.66779438E+04</totfact>
</mgrwt>
</event>
<event>
 7    0  0.4709932E-002  0.4575278E+03  0.7546771E-02  0.1025501E+00
         21   -1    0    0  502  501  0.00000000000E+00  0.00000000000E+00  0.38126827481E+02  0.38126827481E+02  0.00000000000E+00 0.  1.
         21   -1    0    0  501  502 -0.00000000000E+00 -0.00000000000E+00 -0.13726008447E+04  0.13726008447E+04  0.00000000000E+00 0.  1.
      99926    2    1    2    0    0 -0.14210854715E-13  0.00000000000E+00 -0.13344740172E+04  0.14107276722E+04  0.45752777230E+03 0.  0.
      99925    2    3    3    0    0  0.90296202241E+02 -0.72625848153E+02 -0.80842664318E+03  0.85773466518E+03  0.26215873148E+03 0.  0.
         25    1    4    4    0    0  0.67351132220E+02 -0.12113484419E+02 -0.47058125506E+03  0.49170838637E+03  0.12509000000E+03 0.  0.
         25    1    3    3    0    0 -0.90296202241E+02  0.72625848153E+02 -0.52604737404E+03  0.55299300700E+03  0.12509000000E+03 0.  0.
         25    1    4    4    0    0  0.22945070021E+02 -0.60512363735E+02 -0.33784538812E+03  0.36602627881E+03  0.12509000000E+03 0.  0.
<mgrwt>
<rscale>  2 0.45752777E+03</rscale>
<asrwt>0</asrwt>
<pdfrwt beam="1">  1       21 0.56068881E-02 0.45752777E+03</pdfrwt>
<pdfrwt beam="2">  1       21 0.20185300E+00 0.45752777E+03</pdfrwt>
<totfact> 0.25542125E+04</totfact>
</mgrwt>
</event>
<event>
 7    0  0.4709932E-002  0.4107397E+03  0.7546771E-02  0.1040123E+00
         21   -1    0    0  502  501  0.00000000000E+00  0.00000000000E+00  0.66072534437E+02  0.66072534437E+02  0.00000000000E+00 0. -1.
         21   -1    0    0  501  502 -0.00000000000E+00 -0.00000000000E+00 -0.63834062346E+03  0.63834062346E+03  0.00000000000E+00 0. -1.
      99926    2    1    2    0    0  0.71054273576E-14  0.00000000000E+00 -0.57226808902E+03  0.70441315790E+03  0.41073973670E+03 0.  0.
      99925    2    3    3    0    0  0.35360798598E+02 -0.52230449339E+02 -0.36486141197E+03  0.45412643491E+03  0.26292311239E+03 0.  0.
         25    1    4    4    0    0  0.16824305886E+02 -0.10894675548E+02 -0.11520971207E+03  0.17123824654E+03  0.12509000000E+03 0.  0.
         25    1    4    4    0    0  0.18536492712E+02 -0.41335773790E+02 -0.24965169990E+03  0.28288818837E+03  0.12509000000E+03 0.  0.
         25    1    3    3    0    0 -0.35360798598E+02  0.52230449339E+02 -0.20740667705E+03  0.25028672298E+03  0.12509000000E+03 0.  0.
<mgrwt>
<rscale>  2 0.41073974E+03</rscale>
<asrwt>0</asrwt>
<pdfrwt beam="1">  1       21 0.97165495E-02 0.41073974E+03</pdfrwt>
<pdfrwt beam="2">  1       21 0.93873618E-01 0.41073974E+03</pdfrwt>
<totfact> 0.75816118E+04</totfact>
</mgrwt>
</event>
<event>
 7    0  0.4709932E-002  0.4543931E+03  0.7546771E-02  0.1026420E+00
         21   -1    0    0  502  501  0.00000000000E+00  0.00000000000E+00  0.23287430125E+03  0.23287430125E+03  0.00000000000E+00 0. -1.
         21   -1    0    0  501  502 -0.00000000000E+00 -0.00000000000E+00 -0.22165722298E+03  0.22165722298E+03  0.00000000000E+00 0. -1.
      99926    2    1    2    0    0 -0.14210854715E-13 -0.13322676296E-14  0.11217078261E+02  0.45453152423E+03  0.45439309378E+03 0.  0.
      99925    2    3    3    0    0  0.10266570772E+03  0.35547016339E+01  0.54632646130E+02  0.28694482106E+03  0.26229700887E+03 0.  0.
         25    1    4    4    0    0  0.64591085936E+02 -0.35423278663E+02  0.24665238022E+02  0.14725046391E+03  0.12509000000E+03 0.  0.
         25    1    3    3    0    0 -0.10266570772E+03 -0.35547016339E+01 -0.43415567869E+02  0.16758670317E+03  0.12509000000E+03 0.  0.
         25    1    4    4    0    0  0.38074621786E+02  0.38977980297E+02  0.29967408108E+02  0.13969435715E+03  0.12509000000E+03 0.  0.
<mgrwt>
<rscale>  2 0.45439309E+03</rscale>
<asrwt>0</asrwt>
<pdfrwt beam="1">  1       21 0.34246221E-01 0.45439309E+03</pdfrwt>
<pdfrwt beam="2">  1       21 0.32596650E-01 0.45439309E+03</pdfrwt>
<totfact> 0.68913238E+04</totfact>
</mgrwt>
</event>
<event>
 7    0  0.4709932E-002  0.4442558E+03  0.7546771E-02  0.1029449E+00
         21   -1    0    0  502  501  0.00000000000E+00  0.00000000000E+00  0.10261143501E+03  0.10261143501E+03  0.00000000000E+00 0.  1.
         21   -1    0    0  501  502 -0.00000000000E+00 -0.00000000000E+00 -0.48085083396E+03  0.48085083396E+03  0.00000000000E+00 0.  1.
      99926    2    1    2    0    0  0.14210854715E-13  0.00000000000E+00 -0.37823939895E+03  0.58346226897E+03  0.44425575560E+03 0.  0.
      99925    2    3    3    0    0 -0.70077290859E+02  0.67206229094E+02 -0.28458742186E+03  0.39949024708E+03  0.26301131707E+03 0.  0.
         25    1    3    3    0    0  0.70077290859E+02 -0.67206229094E+02 -0.93651977093E+02  0.18397202189E+03  0.12509000000E+03 0.  0.
         25    1    4    4    0    0 -0.15593129017E+02  0.16617673616E+01 -0.15824708082E+03  0.20232536626E+03  0.12509000000E+03 0.  0.
         25    1    4    4    0    0 -0.54484161843E+02  0.65544461733E+02 -0.12634034104E+03  0.19716488082E+03  0.12509000000E+03 0.  0.
<mgrwt>
<rscale>  2 0.44425576E+03</rscale>
<asrwt>0</asrwt>
<pdfrwt beam="1">  1       21 0.15089917E-01 0.44425576E+03</pdfrwt>
<pdfrwt beam="2">  1       21 0.70713358E-01 0.44425576E+03</pdfrwt>
<totfact> 0.65059872E+04</totfact>
</mgrwt>
</event>
<event>
 7    0  0.4709932E-002  0.4419684E+03  0.7546771E-02  0.1030145E+00
         21   -1    0    0  502  501  0.00000000000E+00  0.00000000000E+00  0.16219017505E+03  0.16219017505E+03  0.00000000000E+00 0. -1.
         21   -1    0    0  501  502 -0.00000000000E+00 -0.00000000000E+00 -0.30109104034E+03  0.30109104034E+03  0.00000000000E+00 0. -1.
      99926    2    1    2    0    0  0.71054273576E-14  0.14210854715E-13 -0.13890086529E+03  0.46328121539E+03  0.44196836329E+03 0.  0.
      99925    2    3    3    0    0  0.45220510364E+02  0.74365866065E+02 -0.35947840585E+02  0.27937360274E+03  0.26302506739E+03 0.  0.
         25    1    4    4    0    0  0.68868000166E+01  0.24031359202E+02  0.18682310513E+02  0.12892428424E+03  0.12509000000E+03 0.  0.
         25    1    3    3    0    0 -0.45220510364E+02 -0.74365866065E+02 -0.10295302470E+03  0.18390761264E+03  0.12509000000E+03 0.  0.
         25    1    4    4    0    0  0.38333710348E+02  0.50334506863E+02 -0.54630151098E+02  0.15044931851E+03  0.12509000000E+03 0.  0.
<mgrwt>
<rscale>  2 0.44196836E+03</rscale>
<asrwt>0</asrwt>
<pdfrwt beam="1">  1       21 0.23851497E-01 0.44196836E+03</pdfrwt>
<pdfrwt beam="2">  1       21 0.44278094E-01 0.44196836E+03</pdfrwt>
<totfact> 0.75442410E+04</totfact>
</mgrwt>
</event>
<event>
 7    0  0.4709932E-002  0.4523404E+03  0.7546771E-02  0.1027026E+00
         21   -1    0    0  502  501  0.00000000000E+00  0.00000000000E+00  0.44566909880E+02  0.44566909880E+02  0.00000000000E+00 0.  1.
         21   -1    0    0  501  502 -0.00000000000E+00 -0.00000000000E+00 -0.11477791289E+04  0.11477791289E+04  0.00000000000E+00 0.  1.
      99926    2    1    2    0    0  0.00000000000E+00  0.14210854715E-13 -0.11032122190E+04  0.11923460388E+04  0.45234044258E+03 0.  0.
      99925    2    3    3    0    0 -0.67005602181E+02  0.84706841057E+02 -0.63273084450E+03  0.69368259364E+03  0.26302513092E+03 0.  0.
         25    1    4    4    0    0 -0.60658418986E+02  0.62795568532E+02 -0.40629575268E+03  0.43398902517E+03  0.12509000000E+03 0.  0.
         25    1    4    4    0    0 -0.63471831950E+01  0.21911272524E+02 -0.22643509182E+03  0.25969356847E+03  0.12509000000E+03 0.  0.
         25    1    3    3    0    0  0.67005602181E+02 -0.84706841057E+02 -0.47048137449E+03  0.49866344511E+03  0.12509000000E+03 0.  0.
<mgrwt>
<rscale>  2 0.45234044E+03</rscale>
<asrwt>0</asrwt>
<pdfrwt beam="1">  1       21 0.65539576E-02 0.45234044E+03</pdfrwt>
<pdfrwt beam="2">  1       21 0.16879104E+00 0.45234044E+03</pdfrwt>
<totfact> 0.33079563E+04</totfact>
</mgrwt>
</event>
<event>
 7    0  0.4709932E-002  0.4484246E+03  0.7546771E-02  0.1028193E+00
         21   -1    0    0  502  501  0.00000000000E+00  0.00000000000E+00  0.25380352649E+03  0.25380352649E+03  0.00000000000E+00 0.  1.
         21   -1    0    0  501  502 -0.00000000000E+00 -0.00000000000E+00 -0.19807114787E+03  0.19807114787E+03  0.00000000000E+00 0.  1.
      99926    2    1    2    0    0  0.00000000000E+00  0.00000000000E+00  0.55732378619E+02  0.45187467436E+03  0.44842460158E+03 0.  0.
      99925    2    3    3    0    0  0.64994104193E+02  0.82083996432E+02  0.57119969820E+02  0.28874451296E+03  0.26296137884E+03 0.  0.
         25    1    3    3    0    0 -0.64994104193E+02 -0.82083996432E+02 -0.13875912014E+01  0.16313016140E+03  0.12509000000E+03 0.  0.
         25    1    4    4    0    0  0.81419739355E+01  0.71933434616E+02  0.39620116944E+02  0.14985984293E+03  0.12509000000E+03 0.  0.
         25    1    4    4    0    0  0.56852130257E+02  0.10150561816E+02  0.17499852876E+02  0.13888467003E+03  0.12509000000E+03 0.  0.
<mgrwt>
<rscale>  2 0.44842460E+03</rscale>
<asrwt>0</asrwt>
<pdfrwt beam="1">  1       21 0.37324048E-01 0.44842460E+03</pdfrwt>
<pdfrwt beam="2">  1       21 0.29128110E-01 0.44842460E+03</pdfrwt>
<totfact> 0.72504859E+04</totfact>
</mgrwt>
</event>
<event>
 7    0  0.4709932E-002  0.4561443E+03  0.7546771E-02  0.1025905E+00
         21   -1    0    0  502  501  0.00000000000E+00  0.00000000000E+00  0.34158934956E+03  0.34158934956E+03  0.00000000000E+00 0. -1.
         21   -1    0    0  501  502 -0.00000000000E+00 -0.00000000000E+00 -0.15227908669E+03  0.15227908669E+03  0.00000000000E+00 0. -1.
      99926    2    1    2    0    0 -0.14210854715E-13 -0.44408920985E-15  0.18931026286E+03  0.49386843625E+03  0.45614433757E+03 0.  0.
      99925    2    3    3    0    0  0.11391668857E+03  0.18195644548E+01  0.10999799933E+03  0.30700413790E+03  0.26300505335E+03 0.  0.
         25    1    4    4    0    0  0.26253841880E+02 -0.40062878934E+01  0.81127868777E+02  0.15144158527E+03  0.12509000000E+03 0.  0.
         25    1    3    3    0    0 -0.11391668857E+03 -0.18195644548E+01  0.79312263536E+02  0.18686429834E+03  0.12509000000E+03 0.  0.
         25    1    4    4    0    0  0.87662846685E+02  0.58258523482E+01  0.28870130550E+02  0.15556255264E+03  0.12509000000E+03 0.  0.
<mgrwt>
<rscale>  2 0.45614434E+03</rscale>
<asrwt>0</asrwt>
<pdfrwt beam="1">  1       21 0.50233728E-01 0.45614434E+03</pdfrwt>
<pdfrwt beam="2">  1       21 0.22393983E-01 0.45614434E+03</pdfrwt>
<totfact> 0.65110095E+04</totfact>
</mgrwt>
</event>
<event>
 7    0  0.4709932E-002  0.4700817E+03  0.7546771E-02  0.1021897E+00
         21   -1    0    0  502  501  0.00000000000E+00  0.00000000000E+00  0.18091602766E+04  0.18091602766E+04  0.00000000000E+00 0.  1.
         21   -1    0    0  501  502 -0.00000000000E+00 -0.00000000000E+00 -0.30535831044E+02  0.30535831044E+02  0.00000000000E+00 0.  1.
      99926    2    1    2    0    0 -0.14210854715E-13  0.00000000000E+00  0.17786244456E+04  0.18396961077E+04  0.47008174838E+03 0.  0.
      99925    2    3    3    0    0 -0.11863007974E+03 -0.44633506685E+02  0.11025156494E+04  0.11405281320E+04  0.26305592014E+03 0.  0.
         25    1    3    3    0    0  0.11863007974E+03  0.44633506685E+02  0.67610879625E+03  0.69916797568E+03  0.12509000000E+03 0.  0.
         25    1    4    4    0    0 -0.10325970302E+03 -0.18440704779E+02  0.60874074590E+03  0.63025029130E+03  0.12509000000E+03 0.  0.
         25    1    4    4    0    0 -0.15370376719E+02 -0.26192801906E+02  0.49377490345E+03  0.51027784072E+03  0.12509000000E+03 0.  0.
<mgrwt>
<rscale>  2 0.47008175E+03</rscale>
<asrwt>0</asrwt>
<pdfrwt beam="1">  1       21 0.26605291E+00 0.47008175E+03</pdfrwt>
<pdfrwt beam="2">  1       21 0.44905646E-02 0.47008175E+03</pdfrwt>
<totfact> 0.14709693E+04</totfact>
</mgrwt>
</event>
<event>
 7    0  0.4709932E-002  0.4555318E+03  0.7546771E-02  0.1026085E+00
         21   -1    0    0  502  501  0.00000000000E+00  0.00000000000E+00  0.54633111491E+03  0.54633111491E+03  0.00000000000E+00 0. -1.
         21   -1    0    0  501  502 -0.00000000000E+00 -0.00000000000E+00 -0.94955788041E+02  0.94955788041E+02  0.00000000000E+00 0. -1.
      99926    2    1    2    0    0  0.71054273576E-14 -0.17763568394E-14  0.45137532687E+03  0.64128690296E+03  0.45553178395E+03 0.  0.
      99925    2    3    3    0    0 -0.46756760235E+02 -0.14680064942E+02  0.42834254790E+03  0.50497947124E+03  0.26291677219E+03 0.  0.
         25    1    4    4    0    0 -0.37422558907E+01 -0.33749165650E+02  0.25546536168E+03  0.28646652471E+03  0.12509000000E+03 0.  0.
         25    1    4    4    0    0 -0.43014504345E+02  0.19069100708E+02  0.17287718622E+03  0.21851294653E+03  0.12509000000E+03 0.  0.
         25    1    3    3    0    0  0.46756760235E+02  0.14680064942E+02  0.23032778977E+02  0.13630743172E+03  0.12509000000E+03 0.  0.
<mgrwt>
<rscale>  2 0.45553178E+03</rscale>
<asrwt>0</asrwt>
<pdfrwt beam="1">  1       21 0.80342810E-01 0.45553178E+03</pdfrwt>
<pdfrwt beam="2">  1       21 0.13964087E-01 0.45553178E+03</pdfrwt>
<totfact> 0.55971012E+04</totfact>
</mgrwt>
</event>
<event>
 7    0  0.4709932E-002  0.4374448E+03  0.7546771E-02  0.1031534E+00
         21   -1    0    0  502  501  0.00000000000E+00  0.00000000000E+00  0.34298593357E+02  0.34298593357E+02  0.00000000000E+00 0.  1.
         21   -1    0    0  501  502 -0.00000000000E+00 -0.00000000000E+00 -0.13947944582E+04  0.13947944582E+04  0.00000000000E+00 0.  1.
      99926    2    1    2    0    0  0.00000000000E+00  0.00000000000E+00 -0.13604958649E+04  0.14290930516E+04  0.43744479853E+03 0.  0.
      99925    2    3    3    0    0 -0.84417656569E+02 -0.22339068600E+02 -0.99879175774E+03  0.10365338281E+04  0.26304377344E+03 0.  0.
         25    1    3    3    0    0  0.84417656569E+02  0.22339068600E+02 -0.36170410715E+03  0.39255922350E+03  0.12509000000E+03 0.  0.
         25    1    4    4    0    0 -0.79814522379E+02  0.30711331689E+01 -0.58074402742E+03  0.59940881152E+03  0.12509000000E+03 0.  0.
         25    1    4    4    0    0 -0.46031341900E+01 -0.25410201769E+02 -0.41804773032E+03  0.43712501659E+03  0.12509000000E+03 0.  0.
<mgrwt>
<rscale>  2 0.43744480E+03</rscale>
<asrwt>0</asrwt>
<pdfrwt beam="1">  1       21 0.50439112E-02 0.43744480E+03</pdfrwt>
<pdfrwt beam="2">  1       21 0.20511681E+00 0.43744480E+03</pdfrwt>
<totfact> 0.29374258E+04</totfact>
</mgrwt>
</event>
<event>
 7    0  0.4709932E-002  0.4429307E+03  0.7546771E-02  0.1029851E+00
         21   -1    0    0  502  501  0.00000000000E+00  0.00000000000E+00  0.62959040580E+02  0.62959040580E+02  0.00000000000E+00 0. -1.
         21   -1    0    0  501  502 -0.00000000000E+00 -0.00000000000E+00 -0.77902886825E+03  0.77902886825E+03  0.00000000000E+00 0. -1.
      99926    2    1    2    0    0  0.71054273576E-14  0.00000000000E+00 -0.71606982767E+03  0.84198790883E+03  0.44293074009E+03 0.  0.
      99925    2    3    3    0    0  0.42112594712E+02  0.79550868567E+02 -0.36624660077E+03  0.45972411313E+03  0.26288376955E+03 0.  0.
         25    1    4    4    0    0  0.55720988132E+02  0.63344581069E+02 -0.19225247047E+03  0.24438879878E+03  0.12509000000E+03 0.  0.
         25    1    3    3    0    0 -0.42112594712E+02 -0.79550868567E+02 -0.34982322690E+03  0.38226379570E+03  0.12509000000E+03 0.  0.
         25    1    4    4    0    0 -0.13608393420E+02  0.16206287498E+02 -0.17399413030E+03  0.21533531435E+03  0.12509000000E+03 0.  0.
<mgrwt>
<rscale>  2 0.44293074E+03</rscale>
<asrwt>0</asrwt>
<pdfrwt beam="1">  1       21 0.92586833E-02 0.44293074E+03</pdfrwt>
<pdfrwt beam="2">  1       21 0.11456306E+00 0.44293074E+03</pdfrwt>
<totfact> 0.50405745E+04</totfact>
</mgrwt>
</event>
<event>
 7    0  0.4709932E-002  0.4607349E+03  0.7546771E-02  0.1024568E+00
         21   -1    0    0  502  501  0.00000000000E+00  0.00000000000E+00  0.19463235424E+03  0.19463235424E+03  0.00000000000E+00 0.  1.
         21   -1    0    0  501  502 -0.00000000000E+00 -0.00000000000E+00 -0.27266366478E+03  0.27266366478E+03  0.00000000000E+00 0.  1.
      99926    2    1    2    0    0  0.00000000000E+00  0.00000000000E+00 -0.78031310543E+02  0.46729601902E+03  0.46073493894E+03 0.  0.
      99925    2    3    3    0    0  0.81390436091E+02 -0.45928751202E+02 -0.12246616927E+03  0.30495126843E+03  0.26317952091E+03 0.  0.
         25    1    4    4    0    0  0.33654275541E+02 -0.19506453535E+02 -0.16220660205E+02  0.13199897692E+03  0.12509000000E+03 0.  0.
         25    1    4    4    0    0  0.47736160549E+02 -0.26422297668E+02 -0.10624550907E+03  0.17295229150E+03  0.12509000000E+03 0.  0.
         25    1    3    3    0    0 -0.81390436091E+02  0.45928751202E+02  0.44434858732E+02  0.16234475059E+03  0.12509000000E+03 0.  0.
<mgrwt>
<rscale>  2 0.46073494E+03</rscale>
<asrwt>0</asrwt>
<pdfrwt beam="1">  1       21 0.28622405E-01 0.46073494E+03</pdfrwt>
<pdfrwt beam="2">  1       21 0.40097598E-01 0.46073494E+03</pdfrwt>
<totfact> 0.64642375E+04</totfact>
</mgrwt>
</event>
<event>
 7    0  0.4709932E-002  0.4901613E+03  0.7546771E-02  0.1016379E+00
         21   -1    0    0  502  501  0.00000000000E+00  0.00000000000E+00  0.47073697755E+03  0.47073697755E+03  0.00000000000E+00 0.  1.
         21   -1    0    0  501  502 -0.00000000000E+00 -0.00000000000E+00 -0.12759678659E+03  0.12759678659E+03  0.00000000000E+00 0.  1.
      99926    2    1    2    0    0  0.00000000000E+00  0.71054273576E-14  0.34314019096E+03  0.59833376414E+03  0.49016130269E+03 0.  0.
      99925    2    3    3    0    0 -0.57775139593E+02  0.45216645218E+02  0.58916881895E+02  0.27925241201E+03  0.26292241989E+03 0.  0.
         25    1    3    3    0    0  0.57775139593E+02 -0.45216645218E+02  0.28422330907E+03  0.31908135213E+03  0.12509000000E+03 0.  0.
         25    1    4    4    0    0 -0.22695236255E+02  0.11826227881E+02 -0.10693168145E+02  0.12812800381E+03  0.12509000000E+03 0.  0.
         25    1    4    4    0    0 -0.35079903338E+02  0.33390417337E+02  0.69610050040E+02  0.15112440820E+03  0.12509000000E+03 0.  0.
<mgrwt>
<rscale>  2 0.49016130E+03</rscale>
<asrwt>0</asrwt>
<pdfrwt beam="1">  1       21 0.69226026E-01 0.49016130E+03</pdfrwt>
<pdfrwt beam="2">  1       21 0.18764233E-01 0.49016130E+03</pdfrwt>
<totfact> 0.44931492E+04</totfact>
</mgrwt>
</event>
<event>
 7    0  0.4709932E-002  0.4573048E+03  0.7546771E-02  0.1025566E+00
         21   -1    0    0  502  501  0.00000000000E+00  0.00000000000E+00  0.24282784731E+03  0.24282784731E+03  0.00000000000E+00 0. -1.
         21   -1    0    0  501  502 -0.00000000000E+00 -0.00000000000E+00 -0.21530443906E+03  0.21530443906E+03  0.00000000000E+00 0. -1.
      99926    2    1    2    0    0  0.00000000000E+00  0.00000000000E+00  0.27523408250E+02  0.45813228636E+03  0.45730477125E+03 0.  0.
      99925    2    3    3    0    0  0.38745403540E+02  0.23490833530E+02  0.12348245597E+03  0.29409365526E+03  0.26304017864E+03 0.  0.
         25    1    4    4    0    0  0.11895923710E+02 -0.26905291547E+02  0.47576462506E+02  0.13702713453E+03  0.12509000000E+03 0.  0.
         25    1    3    3    0    0 -0.38745403540E+02 -0.23490833530E+02 -0.95959047716E+02  0.16403863110E+03  0.12509000000E+03 0.  0.
         25    1    4    4    0    0  0.26849479830E+02  0.50396125077E+02  0.75905993460E+02  0.15706652073E+03  0.12509000000E+03 0.  0.
<mgrwt>
<rscale>  2 0.45730477E+03</rscale>
<asrwt>0</asrwt>
<pdfrwt beam="1">  1       21 0.35709978E-01 0.45730477E+03</pdfrwt>
<pdfrwt beam="2">  1       21 0.31662417E-01 0.45730477E+03</pdfrwt>
<totfact> 0.67074987E+04</totfact>
</mgrwt>
</event>
<event>
 7    0  0.4709932E-002  0.4552826E+03  0.7546771E-02  0.1026158E+00
         21   -1    0    0  502  501  0.00000000000E+00  0.00000000000E+00  0.36411708426E+03  0.36411708426E+03  0.00000000000E+00 0.  1.
         21   -1    0    0  501  502 -0.00000000000E+00 -0.00000000000E+00 -0.14231840232E+03  0.14231840232E+03  0.00000000000E+00 0.  1.
      99926    2    1    2    0    0  0.00000000000E+00 -0.14210854715E-13  0.22179868195E+03  0.50643548658E+03  0.45528260098E+03 0.  0.
      99925    2    3    3    0    0  0.66920659523E+02 -0.73264718174E+02  0.20067680036E+03  0.34537731205E+03  0.26299850927E+03 0.  0.
         25    1    4    4    0    0  0.63378287755E+02 -0.93697265618E+01  0.10341250939E+03  0.17448855072E+03  0.12509000000E+03 0.  0.
         25    1    4    4    0    0  0.35423717684E+01 -0.63894991612E+02  0.97264290974E+02  0.17088876133E+03  0.12509000000E+03 0.  0.
         25    1    3    3    0    0 -0.66920659523E+02  0.73264718174E+02  0.21121881583E+02  0.16105817453E+03  0.12509000000E+03 0.  0.
<mgrwt>
<rscale>  2 0.45528260E+03</rscale>
<asrwt>0</asrwt>
<pdfrwt beam="1">  1       21 0.53546630E-01 0.45528260E+03</pdfrwt>
<pdfrwt beam="2">  1       21 0.20929177E-01 0.45528260E+03</pdfrwt>
<totfact> 0.64675683E+04</totfact>
</mgrwt>
</event>
<event>
 6    0  0.4709932E-002  0.4492586E+03  0.7546771E-02  0.1027943E+00
         21   -1    0    0  502  501  0.00000000000E+00  0.00000000000E+00  0.97847884566E+02  0.97847884566E+02  0.00000000000E+00 0.  1.
         21   -1    0    0  501  502 -0.00000000000E+00 -0.00000000000E+00 -0.51568122013E+03  0.51568122013E+03  0.00000000000E+00 0.  1.
      99926    2    1    2    0    0  0.00000000000E+00  0.00000000000E+00 -0.41783333556E+03  0.61352910469E+03  0.44925857365E+03 0.  0.
         25    1    3    3    0    0  0.26839892599E+02  0.46623966596E+02 -0.11073595482E+03  0.17551106486E+03  0.12509000000E+03 0.  0.
         25    1    3    3    0    0 -0.10217960462E+03 -0.37115101469E+02 -0.17213614925E+03  0.23894887390E+03  0.12509000000E+03 0.  0.
         25    1    3    3    0    0  0.75339712024E+02 -0.95088651265E+01 -0.13496123148E+03  0.19906916594E+03  0.12509000000E+03 0.  0.
<mgrwt>
<rscale>  2 0.44925857E+03</rscale>
<asrwt>0</asrwt>
<pdfrwt beam="1">  1       21 0.14389394E-01 0.44925857E+03</pdfrwt>
<pdfrwt beam="2">  1       21 0.75835475E-01 0.44925857E+03</pdfrwt>
<totfact> 0.60552532E+04</totfact>
</mgrwt>
</event>
<event>
 7    0  0.4709932E-002  0.4578019E+03  0.7546771E-02  0.1025421E+00
         21   -1    0    0  502  501  0.00000000000E+00  0.00000000000E+00  0.33359400058E+02  0.33359400058E+02  0.00000000000E+00 0.  1.
         21   -1    0    0  501  502 -0.00000000000E+00 -0.00000000000E+00 -0.15706413749E+04  0.15706413749E+04  0.00000000000E+00 0.  1.
      99926    2    1    2    0    0  0.71054273576E-14 -0.14210854715E-13 -0.15372819748E+04  0.16040007750E+04  0.45780193959E+03 0.  0.
      99925    2    3    3    0    0  0.45758529624E+02 -0.73698069130E+02 -0.12338797412E+04  0.12645517038E+04  0.26288124204E+03 0.  0.
         25    1    4    4    0    0  0.17032114468E+02  0.35873048563E+01 -0.60974882857E+03  0.62269101785E+03  0.12509000000E+03 0.  0.
         25    1    3    3    0    0 -0.45758529624E+02  0.73698069130E+02 -0.30340223360E+03  0.33944907111E+03  0.12509000000E+03 0.  0.
         25    1    4    4    0    0  0.28726415155E+02 -0.77285373987E+02 -0.62413091268E+03  0.64186068599E+03  0.12509000000E+03 0.  0.
<mgrwt>
<rscale>  2 0.45780194E+03</rscale>
<asrwt>0</asrwt>
<pdfrwt beam="1">  1       21 0.49057947E-02 0.45780194E+03</pdfrwt>
<pdfrwt beam="2">  1       21 0.23097665E+00 0.45780194E+03</pdfrwt>
<totfact> 0.20881517E+04</totfact>
</mgrwt>
</event>
<event>
 7    0  0.4709932E-002  0.4532560E+03  0.7546771E-02  0.1026756E+00
         21   -1    0    0  502  501  0.00000000000E+00  0.00000000000E+00  0.12873081101E+03  0.12873081101E+03  0.00000000000E+00 0. -1.
         21   -1    0    0  501  502 -0.00000000000E+00 -0.00000000000E+00 -0.39897400330E+03  0.39897400330E+03  0.00000000000E+00 0. -1.
      99926    2    1    2    0    0  0.00000000000E+00  0.14210854715E-13 -0.27024319229E+03  0.52770481431E+03  0.45325598514E+03 0.  0.
      99925    2    3    3    0    0  0.19811238035E+02 -0.75973531490E+02 -0.80686680401E+02  0.28740574661E+03  0.26443762998E+03 0.  0.
         25    1    4    4    0    0  0.18337150155E+02 -0.80744452203E+02 -0.34174203632E+02  0.15385480796E+03  0.12509000000E+03 0.  0.
         25    1    4    4    0    0  0.14740878800E+01  0.47709207129E+01 -0.46512476769E+02  0.13355093865E+03  0.12509000000E+03 0.  0.
         25    1    3    3    0    0 -0.19811238035E+02  0.75973531490E+02 -0.18955651189E+03  0.24029906771E+03  0.12509000000E+03 0.  0.
<mgrwt>
<rscale>  2 0.45325599E+03</rscale>
<asrwt>0</asrwt>
<pdfrwt beam="1">  1       21 0.18931001E-01 0.45325599E+03</pdfrwt>
<pdfrwt beam="2">  1       21 0.58672648E-01 0.45325599E+03</pdfrwt>
<totfact> 0.64245699E+04</totfact>
</mgrwt>
</event>
<event>
 7    0  0.4709932E-002  0.4336395E+03  0.7546771E-02  0.1032716E+00
         21   -1    0    0  502  501  0.00000000000E+00  0.00000000000E+00  0.11955128902E+04  0.11955128902E+04  0.00000000000E+00 0. -1.
         21   -1    0    0  501  502 -0.00000000000E+00 -0.00000000000E+00 -0.39322704622E+02  0.39322704622E+02  0.00000000000E+00 0. -1.
      99926    2    1    2    0    0 -0.14210854715E-13  0.00000000000E+00  0.11561901856E+04  0.12348355948E+04  0.43363948277E+03 0.  0.
      99925    2    3    3    0    0 -0.51541623145E+02 -0.61337262445E+02  0.61525513436E+03  0.67387477942E+03  0.26296299987E+03 0.  0.
         25    1    3    3    0    0  0.51541623145E+02  0.61337262445E+02  0.54093505122E+03  0.56096081541E+03  0.12509000000E+03 0.  0.
         25    1    4    4    0    0 -0.64941171784E+02 -0.43699000871E+02  0.34624283161E+03  0.37637556378E+03  0.12509000000E+03 0.  0.
         25    1    4    4    0    0  0.13399548639E+02 -0.17638261574E+02  0.26901230275E+03  0.29749921564E+03  0.12509000000E+03 0.  0.
<mgrwt>
<rscale>  2 0.43363948E+03</rscale>
<asrwt>0</asrwt>
<pdfrwt beam="1">  1       21 0.17581070E+00 0.43363948E+03</pdfrwt>
<pdfrwt beam="2">  1       21 0.57827514E-02 0.43363948E+03</pdfrwt>
<totfact> 0.36818251E+04</totfact>
</mgrwt>
</event>
<event>
 7    0  0.4709932E-002  0.4596485E+03  0.7546771E-02  0.1024883E+00
         21   -1    0    0  502  501  0.00000000000E+00  0.00000000000E+00  0.31610916188E+03  0.31610916188E+03  0.00000000000E+00 0.  1.
         21   -1    0    0  501  502 -0.00000000000E+00 -0.00000000000E+00 -0.16709161157E+03  0.16709161157E+03  0.00000000000E+00 0.  1.
      99926    2    1    2    0    0  0.17763568394E-14  0.00000000000E+00  0.14901755032E+03  0.48320077345E+03  0.45964851480E+03 0.  0.
      99925    2    3    3    0    0 -0.92425157295E+01  0.10315984066E+03  0.35105817666E+02  0.28483049403E+03  0.26299926819E+03 0.  0.
         25    1    3    3    0    0  0.92425157295E+01 -0.10315984066E+03  0.11391173265E+03  0.19837027942E+03  0.12509000000E+03 0.  0.
         25    1    4    4    0    0  0.10756847363E+02  0.35140641260E+02  0.51363182126E+02  0.14012943663E+03  0.12509000000E+03 0.  0.
         25    1    4    4    0    0 -0.19999363093E+02  0.68019199400E+02 -0.16257364460E+02  0.14470105739E+03  0.12509000000E+03 0.  0.
<mgrwt>
<rscale>  2 0.45964851E+03</rscale>
<asrwt>0</asrwt>
<pdfrwt beam="1">  1       21 0.46486642E-01 0.45964851E+03</pdfrwt>
<pdfrwt beam="2">  1       21 0.24572296E-01 0.45964851E+03</pdfrwt>
<totfact> 0.64070920E+04</totfact>
</mgrwt>
</event>
<event>
 7    0  0.4709932E-002  0.4559758E+03  0.7546771E-02  0.1025955E+00
         21   -1    0    0  502  501  0.00000000000E+00  0.00000000000E+00  0.45539592075E+02  0.45539592075E+02  0.00000000000E+00 0. -1.
         21   -1    0    0  501  502 -0.00000000000E+00 -0.00000000000E+00 -0.11413909172E+04  0.11413909172E+04  0.00000000000E+00 0. -1.
      99926    2    1    2    0    0  0.00000000000E+00 -0.26645352591E-14 -0.10958513251E+04  0.11869305093E+04  0.45597577466E+03 0.  0.
      99925    2    3    3    0    0  0.65025739435E+02  0.77488950933E+01 -0.93210691583E+03  0.97071734631E+03  0.26302180847E+03 0.  0.
         25    1    3    3    0    0 -0.65025739435E+02 -0.77488950933E+01 -0.16374440931E+03  0.21621316298E+03  0.12509000000E+03 0.  0.
         25    1    4    4    0    0  0.23668579178E+02  0.43435158016E+02 -0.47090675957E+03  0.48974227804E+03  0.12509000000E+03 0.  0.
         25    1    4    4    0    0  0.41357160258E+02 -0.35686262923E+02 -0.46120015626E+03  0.48097506827E+03  0.12509000000E+03 0.  0.
<mgrwt>
<rscale>  2 0.45597577E+03</rscale>
<asrwt>0</asrwt>
<pdfrwt beam="1">  1       21 0.66969984E-02 0.45597577E+03</pdfrwt>
<pdfrwt beam="2">  1       21 0.16785162E+00 0.45597577E+03</pdfrwt>
<totfact> 0.32326487E+04</totfact>
</mgrwt>
</event>
<event>
 7    0  0.4709932E-002  0.4386062E+03  0.7546771E-02  0.1031175E+00
         21   -1    0    0  502  501  0.00000000000E+00  0.00000000000E+00  0.55465125395E+03  0.55465125395E+03  0.00000000000E+00 0.  1.
         21   -1    0    0  501  502 -0.00000000000E+00 -0.00000000000E+00 -0.86710073026E+02  0.86710073026E+02  0.00000000000E+00 0.  1.
      99926    2    1    2    0    0  0.00000000000E+00  0.35527136788E-14  0.46794118093E+03  0.64136132698E+03  0.43860620486E+03 0.  0.
      99925    2    3    3    0    0 -0.46492054450E+02  0.10567924954E+02  0.17572925118E+03  0.31994491149E+03  0.26307942622E+03 0.  0.
         25    1    4    4    0    0 -0.38379023902E+02 -0.88061274936E+01  0.47226338946E+02  0.13938555358E+03  0.12509000000E+03 0.  0.
         25    1    4    4    0    0 -0.81130305482E+01  0.19374052448E+02  0.12850291224E+03  0.18055935790E+03  0.12509000000E+03 0.  0.
         25    1    3    3    0    0  0.46492054450E+02 -0.10567924954E+02  0.29221192974E+03  0.32141641549E+03  0.12509000000E+03 0.  0.
<mgrwt>
<rscale>  2 0.43860620E+03</rscale>
<asrwt>0</asrwt>
<pdfrwt beam="1">  1       21 0.81566359E-01 0.43860620E+03</pdfrwt>
<pdfrwt beam="2">  1       21 0.12751482E-01 0.43860620E+03</pdfrwt>
<totfact> 0.64098423E+04</totfact>
</mgrwt>
</event>
<event>
 7    0  0.4709932E-002  0.4536103E+03  0.7546771E-02  0.1026651E+00
         21   -1    0    0  502  501  0.00000000000E+00  0.00000000000E+00  0.22606114236E+03  0.22606114236E+03  0.00000000000E+00 0. -1.
         21   -1    0    0  501  502 -0.00000000000E+00 -0.00000000000E+00 -0.22755156001E+03  0.22755156001E+03  0.00000000000E+00 0. -1.
      99926    2    1    2    0    0  0.00000000000E+00  0.00000000000E+00 -0.14904176465E+01  0.45361270236E+03  0.45361025385E+03 0.  0.
      99925    2    3    3    0    0 -0.91290678329E+02  0.61274761728E+02  0.19887977738E+02  0.28570460767E+03  0.26295057865E+03 0.  0.
         25    1    3    3    0    0  0.91290678329E+02 -0.61274761728E+02 -0.21378395385E+02  0.16790809469E+03  0.12509000000E+03 0.  0.
         25    1    4    4    0    0 -0.49463246392E+02 -0.98880994688E+01  0.32869900329E+01  0.13491738086E+03  0.12509000000E+03 0.  0.
         25    1    4    4    0    0 -0.41827431937E+02  0.71162861197E+02  0.16600987705E+02  0.15078722681E+03  0.12509000000E+03 0.  0.
<mgrwt>
<rscale>  2 0.45361025E+03</rscale>
<asrwt>0</asrwt>
<pdfrwt beam="1">  1       21 0.33244286E-01 0.45361025E+03</pdfrwt>
<pdfrwt beam="2">  1       21 0.33463464E-01 0.45361025E+03</pdfrwt>
<totfact> 0.69414068E+04</totfact>
</mgrwt>
</event>
<event>
 7    0  0.4709932E-002  0.4446516E+03  0.7546771E-02  0.1029329E+00
         21   -1    0    0  502  501  0.00000000000E+00  0.00000000000E+00  0.14932967184E+03  0.14932967184E+03  0.00000000000E+00 0.  1.
         21   -1    0    0  501  502 -0.00000000000E+00 -0.00000000000E+00 -0.33100434408E+03  0.33100434408E+03  0.00000000000E+00 0.  1.
      99926    2    1    2    0    0  0.00000000000E+00 -0.26645352591E-14 -0.18167467224E+03  0.48033401592E+03  0.44465163928E+03 0.  0.
      99925    2    3    3    0    0  0.82722458675E+02  0.52369983795E+01 -0.18174670368E+03  0.33027421247E+03  0.26301855411E+03 0.  0.
         25    1    3    3    0    0 -0.82722458675E+02 -0.52369983795E+01  0.72031443133E-01  0.15005980344E+03  0.12509000000E+03 0.  0.
         25    1    4    4    0    0  0.23853706934E+02  0.24640421101E+02 -0.52178846507E+02  0.13980804630E+03  0.12509000000E+03 0.  0.
         25    1    4    4    0    0  0.58868751742E+02 -0.19403422722E+02 -0.12956785717E+03  0.19046616617E+03  0.12509000000E+03 0.  0.
<mgrwt>
<rscale>  2 0.44465164E+03</rscale>
<asrwt>0</asrwt>
<pdfrwt beam="1">  1       21 0.21960246E-01 0.44465164E+03</pdfrwt>
<pdfrwt beam="2">  1       21 0.48677109E-01 0.44465164E+03</pdfrwt>
<totfact> 0.72446855E+04</totfact>
</mgrwt>
</event>
<event>
 7    0  0.4709932E-002  0.4576928E+03  0.7546771E-02  0.1025453E+00
         21   -1    0    0  502  501  0.00000000000E+00  0.00000000000E+00  0.57756688014E+02  0.57756688014E+02  0.00000000000E+00 0.  1.
         21   -1    0    0  501  502 -0.00000000000E+00 -0.00000000000E+00 -0.90674637405E+03  0.90674637405E+03  0.00000000000E+00 0.  1.
      99926    2    1    2    0    0  0.00000000000E+00  0.00000000000E+00 -0.84898968604E+03  0.96450306207E+03  0.45769276784E+03 0.  0.
      99925    2    3    3    0    0 -0.36518241882E+02 -0.92111956833E+02 -0.65896915721E+03  0.71636297248E+03  0.26290181363E+03 0.  0.
         25    1    3    3    0    0  0.36518241882E+02  0.92111956833E+02 -0.19002052883E+03  0.24814008958E+03  0.12509000000E+03 0.  0.
         25    1    4    4    0    0 -0.41965068127E+02 -0.34683940483E+02 -0.40618033237E+03  0.42847871963E+03  0.12509000000E+03 0.  0.
         25    1    4    4    0    0  0.54468262454E+01 -0.57428016350E+02 -0.25278882484E+03  0.28788425285E+03  0.12509000000E+03 0.  0.
<mgrwt>
<rscale>  2 0.45769277E+03</rscale>
<asrwt>0</asrwt>
<pdfrwt beam="1">  1       21 0.84936317E-02 0.45769277E+03</pdfrwt>
<pdfrwt beam="2">  1       21 0.13334504E+00 0.45769277E+03</pdfrwt>
<totfact> 0.39716301E+04</totfact>
</mgrwt>
</event>
<event>
 7    0  0.4709932E-002  0.4508361E+03  0.7546771E-02  0.1027473E+00
         21   -1    0    0  502  501  0.00000000000E+00  0.00000000000E+00  0.68579411604E+02  0.68579411604E+02  0.00000000000E+00 0.  1.
         21   -1    0    0  501  502 -0.00000000000E+00 -0.00000000000E+00 -0.74094103101E+03  0.74094103101E+03  0.00000000000E+00 0.  1.
      99926    2    1    2    0    0  0.00000000000E+00  0.00000000000E+00 -0.67236161940E+03  0.80952044261E+03  0.45083611186E+03 0.  0.
      99925    2    3    3    0    0 -0.10679204445E+03  0.21046716382E+02 -0.44082042846E+03  0.52472870075E+03  0.26300200421E+03 0.  0.
         25    1    3    3    0    0  0.10679204445E+03 -0.21046716382E+02 -0.23154119095E+03  0.28479174186E+03  0.12509000000E+03 0.  0.
         25    1    4    4    0    0 -0.43667456525E+02 -0.13731127722E+02 -0.15392501356E+03  0.20355787513E+03  0.12509000000E+03 0.  0.
         25    1    4    4    0    0 -0.63124587921E+02  0.34777844104E+02 -0.28689541490E+03  0.32117082562E+03  0.12509000000E+03 0.  0.
<mgrwt>
<rscale>  2 0.45083611E+03</rscale>
<asrwt>0</asrwt>
<pdfrwt beam="1">  1       21 0.10085208E-01 0.45083611E+03</pdfrwt>
<pdfrwt beam="2">  1       21 0.10896192E+00 0.45083611E+03</pdfrwt>
<totfact> 0.48885641E+04</totfact>
</mgrwt>
</event>
<event>
 7    0  0.4709932E-002  0.4560071E+03  0.7546771E-02  0.1025946E+00
         21   -1    0    0  502  501  0.00000000000E+00  0.00000000000E+00  0.35444614045E+02  0.35444614045E+02  0.00000000000E+00 0. -1.
         21   -1    0    0  501  502 -0.00000000000E+00 -0.00000000000E+00 -0.14666718290E+04  0.14666718290E+04  0.00000000000E+00 0. -1.
      99926    2    1    2    0    0  0.35527136788E-14  0.00000000000E+00 -0.14312272149E+04  0.15021164430E+04  0.45600709165E+03 0.  0.
      99925    2    3    3    0    0  0.16859554579E+02 -0.67540718161E+02 -0.60169060487E+03  0.66031807719E+03  0.26294939794E+03 0.  0.
         25    1    4    4    0    0  0.23198737090E+02 -0.30649344095E+02 -0.39231900225E+03  0.41356894385E+03  0.12509000000E+03 0.  0.
         25    1    4    4    0    0 -0.63391825103E+01 -0.36891374066E+02 -0.20937160262E+03  0.24674913333E+03  0.12509000000E+03 0.  0.
         25    1    3    3    0    0 -0.16859554579E+02  0.67540718161E+02 -0.82953661005E+03  0.84179836582E+03  0.12509000000E+03 0.  0.
<mgrwt>
<rscale>  2 0.45600709E+03</rscale>
<asrwt>0</asrwt>
<pdfrwt beam="1">  1       21 0.52124431E-02 0.45600709E+03</pdfrwt>
<pdfrwt beam="2">  1       21 0.21568704E+00 0.45600709E+03</pdfrwt>
<totfact> 0.23542597E+04</totfact>
</mgrwt>
</event>
<event>
 7    0  0.4709932E-002  0.4405077E+03  0.7546771E-02  0.1030591E+00
         21   -1    0    0  502  501  0.00000000000E+00  0.00000000000E+00  0.53177460973E+02  0.53177460973E+02  0.00000000000E+00 0. -1.
         21   -1    0    0  501  502 -0.00000000000E+00 -0.00000000000E+00 -0.91226185316E+03  0.91226185316E+03  0.00000000000E+00 0. -1.
      99926    2    1    2    0    0  0.00000000000E+00  0.00000000000E+00 -0.85908439218E+03  0.96543931413E+03  0.44050774837E+03 0.  0.
      99925    2    3    3    0    0 -0.71036206592E+02 -0.59037437660E+02 -0.62607144448E+03  0.68530701754E+03  0.26296139072E+03 0.  0.
         25    1    4    4    0    0 -0.47623952971E+02 -0.41190989880E+02 -0.41711876339E+03  0.44000035161E+03  0.12509000000E+03 0.  0.
         25    1    3    3    0    0  0.71036206592E+02  0.59037437660E+02 -0.23301294770E+03  0.28013229659E+03  0.12509000000E+03 0.  0.
         25    1    4    4    0    0 -0.23412253621E+02 -0.17846447780E+02 -0.20895268109E+03  0.24530666593E+03  0.12509000000E+03 0.  0.
<mgrwt>
<rscale>  2 0.44050775E+03</rscale>
<asrwt>0</asrwt>
<pdfrwt beam="1">  1       21 0.78202143E-02 0.44050775E+03</pdfrwt>
<pdfrwt beam="2">  1       21 0.13415616E+00 0.44050775E+03</pdfrwt>
<totfact> 0.45458032E+04</totfact>
</mgrwt>
</event>
<event>
 7    0  0.4709932E-002  0.4532929E+03  0.7546771E-02  0.1026745E+00
         21   -1    0    0  502  501  0.00000000000E+00  0.00000000000E+00  0.64721233894E+02  0.64721233894E+02  0.00000000000E+00 0.  1.
         21   -1    0    0  501  502 -0.00000000000E+00 -0.00000000000E+00 -0.79369030970E+03  0.79369030970E+03  0.00000000000E+00 0.  1.
      99926    2    1    2    0    0  0.00000000000E+00 -0.19984014443E-14 -0.72896907580E+03  0.85841154359E+03  0.45329291269E+03 0.  0.
      99925    2    3    3    0    0  0.38296922854E+02 -0.40883615670E+00 -0.26080852407E+03  0.37231625278E+03  0.26292866791E+03 0.  0.
         25    1    4    4    0    0  0.83580864163E+01 -0.35567941293E+02 -0.10588045373E+03  0.16790805412E+03  0.12509000000E+03 0.  0.
         25    1    4    4    0    0  0.29938836438E+02  0.35159105136E+02 -0.15492807034E+03  0.20440819866E+03  0.12509000000E+03 0.  0.
         25    1    3    3    0    0 -0.38296922854E+02  0.40883615670E+00 -0.46816055173E+03  0.48609529081E+03  0.12509000000E+03 0.  0.
<mgrwt>
<rscale>  2 0.45329291E+03</rscale>
<asrwt>0</asrwt>
<pdfrwt beam="1">  1       21 0.95178284E-02 0.45329291E+03</pdfrwt>
<pdfrwt beam="2">  1       21 0.11671916E+00 0.45329291E+03</pdfrwt>
<totfact> 0.45673892E+04</totfact>
</mgrwt>
</event>
<event>
 7    0  0.4709932E-002  0.4455035E+03  0.7546771E-02  0.1029071E+00
         21   -1    0    0  502  501  0.00000000000E+00  0.00000000000E+00  0.39959326752E+03  0.39959326752E+03  0.00000000000E+00 0.  1.
         21   -1    0    0  501  502 -0.00000000000E+00 -0.00000000000E+00 -0.12417214079E+03  0.12417214079E+03  0.00000000000E+00 0.  1.
      99926    2    1    2    0    0  0.00000000000E+00  0.71054273576E-14  0.27542112673E+03  0.52376540831E+03  0.44550354196E+03 0.  0.
      99925    2    3    3    0    0 -0.83111421903E+01  0.56929001711E+02  0.27677110478E+03  0.38607257313E+03  0.26294448265E+03 0.  0.
         25    1    4    4    0    0  0.12632877643E+02  0.33130629852E+02  0.19125560360E+03  0.23126487463E+03  0.12509000000E+03 0.  0.
         25    1    4    4    0    0 -0.20944019833E+02  0.23798371859E+02  0.85515501183E+02  0.15480769849E+03  0.12509000000E+03 0.  0.
         25    1    3    3    0    0  0.83111421903E+01 -0.56929001711E+02 -0.13499780551E+01  0.13769283518E+03  0.12509000000E+03 0.  0.
<mgrwt>
<rscale>  2 0.44550354E+03</rscale>
<asrwt>0</asrwt>
<pdfrwt beam="1">  1       21 0.58763715E-01 0.44550354E+03</pdfrwt>
<pdfrwt beam="2">  1       21 0.18260609E-01 0.44550354E+03</pdfrwt>
<totfact> 0.68651882E+04</totfact>
</mgrwt>
</event>
<event>
 7    0  0.4709932E-002  0.4533474E+03  0.7546771E-02  0.1026728E+00
         21   -1    0    0  502  501  0.00000000000E+00  0.00000000000E+00  0.40708997751E+03  0.40708997751E+03  0.00000000000E+00 0.  1.
         21   -1    0    0  501  502 -0.00000000000E+00 -0.00000000000E+00 -0.12621526916E+03  0.12621526916E+03  0.00000000000E+00 0.  1.
      99926    2    1    2    0    0 -0.71054273576E-14  0.00000000000E+00  0.28087470835E+03  0.53330524668E+03  0.45334742124E+03 0.  0.
      99925    2    3    3    0    0 -0.45908103003E+02  0.56520704483E+02  0.27677415071E+03  0.38850722656E+03  0.26273901619E+03 0.  0.
         25    1    4    4    0    0 -0.60938125804E+02  0.44236209275E+02  0.15191987951E+03  0.21070703661E+03  0.12509000000E+03 0.  0.
         25    1    4    4    0    0  0.15030022801E+02  0.12284495208E+02  0.12485427121E+03  0.17780018995E+03  0.12509000000E+03 0.  0.
         25    1    3    3    0    0  0.45908103003E+02 -0.56520704483E+02  0.41005576371E+01  0.14479802012E+03  0.12509000000E+03 0.  0.
<mgrwt>
<rscale>  2 0.45334742E+03</rscale>
<asrwt>0</asrwt>
<pdfrwt beam="1">  1       21 0.59866173E-01 0.45334742E+03</pdfrwt>
<pdfrwt beam="2">  1       21 0.18561069E-01 0.45334742E+03</pdfrwt>
<totfact> 0.63814014E+04</totfact>
</mgrwt>
</event>
<event>
 7    0  0.4709932E-002  0.4550658E+03  0.7546771E-02  0.1026222E+00
         21   -1    0    0  502  501  0.00000000000E+00  0.00000000000E+00  0.42650072380E+02  0.42650072380E+02  0.00000000000E+00 0. -1.
         21   -1    0    0  501  502 -0.00000000000E+00 -0.00000000000E+00 -0.12138599456E+04  0.12138599456E+04  0.00000000000E+00 0. -1.
      99926    2    1    2    0    0 -0.35527136788E-14  0.35527136788E-14 -0.11712098732E+04  0.12565100180E+04  0.45506577344E+03 0.  0.
      99925    2    3    3    0    0 -0.30782915306E+02  0.18673744958E+02 -0.44073342617E+03  0.51452643028E+03  0.26304980115E+03 0.  0.
         25    1    4    4    0    0 -0.46978339815E+02  0.35126704937E+02 -0.23777735795E+03  0.27500259975E+03  0.12509000000E+03 0.  0.
         25    1    3    3    0    0  0.30782915306E+02 -0.18673744958E+02 -0.73047644704E+03  0.74198358770E+03  0.12509000000E+03 0.  0.
         25    1    4    4    0    0  0.16195424509E+02 -0.16452959979E+02 -0.20295606822E+03  0.23952383053E+03  0.12509000000E+03 0.  0.
<mgrwt>
<rscale>  2 0.45506577E+03</rscale>
<asrwt>0</asrwt>
<pdfrwt beam="1">  1       21 0.62720686E-02 0.45506577E+03</pdfrwt>
<pdfrwt beam="2">  1       21 0.17850884E+00 0.45506577E+03</pdfrwt>
<totfact> 0.30388770E+04</totfact>
</mgrwt>
</event>
<event>
 7    0  0.4709932E-002  0.4612865E+03  0.7546771E-02  0.1024409E+00
         21   -1    0    0  502  501  0.00000000000E+00  0.00000000000E+00  0.25831315075E+04  0.25831315075E+04  0.00000000000E+00 0.  1.
         21   -1    0    0  501  502 -0.00000000000E+00 -0.00000000000E+00 -0.20593727686E+02  0.20593727686E+02  0.00000000000E+00 0.  1.
      99926    2    1    2    0    0  0.71054273576E-14  0.00000000000E+00  0.25625377798E+04  0.26037252352E+04  0.46128649165E+03 0.  0.
      99925    2    3    3    0    0  0.44097025383E+02  0.35907505602E+02  0.21933431442E+04  0.22097885858E+04  0.26301625321E+03 0.  0.
         25    1    3    3    0    0 -0.44097025383E+02 -0.35907505602E+02  0.36919463566E+03  0.39393664935E+03  0.12509000000E+03 0.  0.
         25    1    4    4    0    0 -0.86175269562E+01  0.93597474288E+01  0.12590380113E+04  0.12653007898E+04  0.12509000000E+03 0.  0.
         25    1    4    4    0    0  0.52714552340E+02  0.26547758173E+02  0.93430513283E+03  0.94448779602E+03  0.12509000000E+03 0.  0.
<mgrwt>
<rscale>  2 0.46128649E+03</rscale>
<asrwt>0</asrwt>
<pdfrwt beam="1">  1       21 0.37987206E+00 0.46128649E+03</pdfrwt>
<pdfrwt beam="2">  1       21 0.30284911E-02 0.46128649E+03</pdfrwt>
<totfact> 0.58371518E+03</totfact>
</mgrwt>
</event>
<event>
 7    0  0.4709932E-002  0.4514938E+03  0.7546771E-02  0.1027278E+00
         21   -1    0    0  502  501  0.00000000000E+00  0.00000000000E+00  0.23665441869E+03  0.23665441869E+03  0.00000000000E+00 0. -1.
         21   -1    0    0  501  502 -0.00000000000E+00 -0.00000000000E+00 -0.21534207554E+03  0.21534207554E+03  0.00000000000E+00 0. -1.
      99926    2    1    2    0    0  0.13322676296E-14  0.00000000000E+00  0.21312343147E+02  0.45199649423E+03  0.45149375945E+03 0.  0.
      99925    2    3    3    0    0 -0.33960360779E+01  0.26618428241E+02 -0.93155914324E+02  0.28032656718E+03  0.26303020000E+03 0.  0.
         25    1    4    4    0    0 -0.20467774834E+02  0.43488268734E+02 -0.26624248953E+02  0.13662546635E+03  0.12509000000E+03 0.  0.
         25    1    4    4    0    0  0.17071738756E+02 -0.16869840493E+02 -0.66531665371E+02  0.14370110083E+03  0.12509000000E+03 0.  0.
         25    1    3    3    0    0  0.33960360779E+01 -0.26618428241E+02  0.11446825747E+03  0.17166992704E+03  0.12509000000E+03 0.  0.
<mgrwt>
<rscale>  2 0.45149376E+03</rscale>
<asrwt>0</asrwt>
<pdfrwt beam="1">  1       21 0.34802120E-01 0.45149376E+03</pdfrwt>
<pdfrwt beam="2">  1       21 0.31667952E-01 0.45149376E+03</pdfrwt>
<totfact> 0.70724375E+04</totfact>
</mgrwt>
</event>
<event>
 7    0  0.4709932E-002  0.4484008E+03  0.7546771E-02  0.1028200E+00
         21   -1    0    0  502  501  0.00000000000E+00  0.00000000000E+00  0.32181008054E+02  0.32181008054E+02  0.00000000000E+00 0. -1.
         21   -1    0    0  501  502 -0.00000000000E+00 -0.00000000000E+00 -0.15619714422E+04  0.15619714422E+04  0.00000000000E+00 0. -1.
      99926    2    1    2    0    0  0.71054273576E-14 -0.14210854715E-13 -0.15297904342E+04  0.15941524503E+04  0.44840078306E+03 0.  0.
      99925    2    3    3    0    0 -0.60308007510E+02  0.84381264218E+02 -0.87979820873E+03  0.92415643928E+03  0.26317861360E+03 0.  0.
         25    1    3    3    0    0  0.60308007510E+02 -0.84381264218E+02 -0.64999222543E+03  0.66999601099E+03  0.12509000000E+03 0.  0.
         25    1    4    4    0    0 -0.24440233400E+02  0.28329026093E+02 -0.54859754731E+03  0.56392077080E+03  0.12509000000E+03 0.  0.
         25    1    4    4    0    0 -0.35867774110E+02  0.56052238125E+02 -0.33120066142E+03  0.36023566847E+03  0.12509000000E+03 0.  0.
<mgrwt>
<rscale>  2 0.44840078E+03</rscale>
<asrwt>0</asrwt>
<pdfrwt beam="1">  1       21 0.47325003E-02 0.44840078E+03</pdfrwt>
<pdfrwt beam="2">  1       21 0.22970173E+00 0.44840078E+03</pdfrwt>
<totfact> 0.22703555E+04</totfact>
</mgrwt>
</event>
<event>
 7    0  0.4709932E-002  0.4589414E+03  0.7546771E-02  0.1025089E+00
         21   -1    0    0  502  501  0.00000000000E+00  0.00000000000E+00  0.98576010536E+03  0.98576010536E+03  0.00000000000E+00 0.  1.
         21   -1    0    0  501  502 -0.00000000000E+00 -0.00000000000E+00 -0.53417466773E+02  0.53417466773E+02  0.00000000000E+00 0.  1.
      99926    2    1    2    0    0  0.00000000000E+00  0.71054273576E-14  0.93234263858E+03  0.10391775721E+04  0.45894142403E+03 0.  0.
      99925    2    3    3    0    0 -0.76261889929E+02 -0.42349156442E+02  0.76058966729E+03  0.80949100710E+03  0.26300137201E+03 0.  0.
         25    1    4    4    0    0 -0.66376979104E+02 -0.49534720619E+02  0.37332637033E+03  0.40234273795E+03  0.12509000000E+03 0.  0.
         25    1    4    4    0    0 -0.98849108253E+01  0.71855641774E+01  0.38726329696E+03  0.40714826914E+03  0.12509000000E+03 0.  0.
         25    1    3    3    0    0  0.76261889929E+02  0.42349156442E+02  0.17175297130E+03  0.22968656503E+03  0.12509000000E+03 0.  0.
<mgrwt>
<rscale>  2 0.45894142E+03</rscale>
<asrwt>0</asrwt>
<pdfrwt beam="1">  1       21 0.14496471E+00 0.45894142E+03</pdfrwt>
<pdfrwt beam="2">  1       21 0.78555104E-02 0.45894142E+03</pdfrwt>
<totfact> 0.36539777E+04</totfact>
</mgrwt>
</event>
<event>
 7    0  0.4709932E-002  0.4394181E+03  0.7546771E-02  0.1030926E+00
         21   -1    0    0  502  501  0.00000000000E+00  0.00000000000E+00  0.13122209742E+03  0.13122209742E+03  0.00000000000E+00 0.  1.
         21   -1    0    0  501  502 -0.00000000000E+00 -0.00000000000E+00 -0.36786530782E+03  0.36786530782E+03  0.00000000000E+00 0.  1.
      99926    2    1    2    0    0 -0.14210854715E-13  0.00000000000E+00 -0.23664321040E+03  0.49908740524E+03  0.43941805726E+03 0.  0.
      99925    2    3    3    0    0 -0.74247847178E+02  0.41663601890E+02 -0.20599093554E+03  0.34469935976E+03  0.26293874679E+03 0.  0.
         25    1    4    4    0    0  0.31677799261E+01  0.16602473136E+02 -0.10849420989E+03  0.16644572275E+03  0.12509000000E+03 0.  0.
         25    1    3    3    0    0  0.74247847178E+02 -0.41663601890E+02 -0.30652274859E+02  0.15438804548E+03  0.12509000000E+03 0.  0.
         25    1    4    4    0    0 -0.77415627104E+02  0.25061128754E+02 -0.97496725653E+02  0.17825363701E+03  0.12509000000E+03 0.  0.
<mgrwt>
<rscale>  2 0.43941806E+03</rscale>
<asrwt>0</asrwt>
<pdfrwt beam="1">  1       21 0.19297367E-01 0.43941806E+03</pdfrwt>
<pdfrwt beam="2">  1       21 0.54097839E-01 0.43941806E+03</pdfrwt>
<totfact> 0.74081024E+04</totfact>
</mgrwt>
</event>
<event>
 7    0  0.4709932E-002  0.4510980E+03  0.7546771E-02  0.1027395E+00
         21   -1    0    0  502  501  0.00000000000E+00  0.00000000000E+00  0.32669296344E+02  0.32669296344E+02  0.00000000000E+00 0. -1.
         21   -1    0    0  501  502 -0.00000000000E+00 -0.00000000000E+00 -0.15571915061E+04  0.15571915061E+04  0.00000000000E+00 0. -1.
      99926    2    1    2    0    0  0.44408920985E-15  0.00000000000E+00 -0.15245222098E+04  0.15898608025E+04  0.45109799724E+03 0.  0.
      99925    2    3    3    0    0 -0.37140955024E+01 -0.73054094118E+02 -0.67586656474E+03  0.72892258916E+03  0.26302439523E+03 0.  0.
         25    1    4    4    0    0  0.10493938002E+02 -0.17646099823E+02 -0.23383174003E+03  0.26598176313E+03  0.12509000000E+03 0.  0.
         25    1    3    3    0    0  0.37140955024E+01  0.73054094118E+02 -0.84865564505E+03  0.86093821331E+03  0.12509000000E+03 0.  0.
         25    1    4    4    0    0 -0.14208033505E+02 -0.55407994295E+02 -0.44203482471E+03  0.46294082603E+03  0.12509000000E+03 0.  0.
<mgrwt>
<rscale>  2 0.45109800E+03</rscale>
<asrwt>0</asrwt>
<pdfrwt beam="1">  1       21 0.48043094E-02 0.45109800E+03</pdfrwt>
<pdfrwt beam="2">  1       21 0.22899870E+00 0.45109800E+03</pdfrwt>
<totfact> 0.22328797E+04</totfact>
</mgrwt>
</event>
<event>
 7    0  0.4709932E-002  0.4546975E+03  0.7546771E-02  0.1026330E+00
         21   -1    0    0  502  501  0.00000000000E+00  0.00000000000E+00  0.13157769735E+03  0.13157769735E+03  0.00000000000E+00 0.  1.
         21   -1    0    0  501  502 -0.00000000000E+00 -0.00000000000E+00 -0.39282842490E+03  0.39282842490E+03  0.00000000000E+00 0.  1.
      99926    2    1    2    0    0  0.00000000000E+00  0.00000000000E+00 -0.26125072755E+03  0.52440612224E+03  0.45469752408E+03 0.  0.
      99925    2    3    3    0    0  0.16861224298E+02 -0.94747715284E+02 -0.96438775993E+02  0.29621340125E+03  0.26302188337E+03 0.  0.
         25    1    4    4    0    0  0.47308126308E+02 -0.51583310880E+02 -0.61694889527E+02  0.15605340198E+03  0.12509000000E+03 0.  0.
         25    1    3    3    0    0 -0.16861224298E+02  0.94747715284E+02 -0.16481195156E+03  0.22819272099E+03  0.12509000000E+03 0.  0.
         25    1    4    4    0    0 -0.30446902010E+02 -0.43164404404E+02 -0.34743886466E+02  0.14015999927E+03  0.12509000000E+03 0.  0.
<mgrwt>
<rscale>  2 0.45469752E+03</rscale>
<asrwt>0</asrwt>
<pdfrwt beam="1">  1       21 0.19349661E-01 0.45469752E+03</pdfrwt>
<pdfrwt beam="2">  1       21 0.57768886E-01 0.45469752E+03</pdfrwt>
<totfact> 0.63739470E+04</totfact>
</mgrwt>
</event>
<event>
 7    0  0.4709932E-002  0.4492793E+03  0.7546771E-02  0.1027937E+00
         21   -1    0    0  502  501  0.00000000000E+00  0.00000000000E+00  0.97034640447E+02  0.97034640447E+02  0.00000000000E+00 0.  1.
         21   -1    0    0  501  502 -0.00000000000E+00 -0.00000000000E+00 -0.52005109562E+03  0.52005109562E+03  0.00000000000E+00 0.  1.
      99926    2    1    2    0    0  0.00000000000E+00  0.00000000000E+00 -0.42301645517E+03  0.61708573606E+03  0.44927929433E+03 0.  0.
      99925    2    3    3    0    0  0.95767702799E+02 -0.48959917350E+02 -0.26018428109E+03  0.38528765277E+03  0.26302507264E+03 0.  0.
         25    1    4    4    0    0  0.34918015252E+02  0.96262027127E+01 -0.14855295658E+03  0.19755358912E+03  0.12509000000E+03 0.  0.
         25    1    3    3    0    0 -0.95767702799E+02  0.48959917350E+02 -0.16283217408E+03  0.23179808330E+03  0.12509000000E+03 0.  0.
         25    1    4    4    0    0  0.60849687547E+02 -0.58586120063E+02 -0.11163132452E+03  0.18773406364E+03  0.12509000000E+03 0.  0.
<mgrwt>
<rscale>  2 0.44927929E+03</rscale>
<asrwt>0</asrwt>
<pdfrwt beam="1">  1       21 0.14269800E-01 0.44927929E+03</pdfrwt>
<pdfrwt beam="2">  1       21 0.76478102E-01 0.44927929E+03</pdfrwt>
<totfact> 0.60317823E+04</totfact>
</mgrwt>
</event>
<event>
 7    0  0.4709932E-002  0.4534448E+03  0.7546771E-02  0.1026700E+00
         21   -1    0    0  502  501  0.00000000000E+00  0.00000000000E+00  0.48793271321E+03  0.48793271321E+03  0.00000000000E+00 0.  1.
         21   -1    0    0  501  502 -0.00000000000E+00 -0.00000000000E+00 -0.10534862136E+03  0.10534862136E+03  0.00000000000E+00 0.  1.
      99926    2    1    2    0    0 -0.71054273576E-14  0.71054273576E-14  0.38258409185E+03  0.59328133456E+03  0.45344476467E+03 0.  0.
      99925    2    3    3    0    0 -0.49235312035E+02 -0.41219002892E+02  0.12130460004E+03  0.29657002186E+03  0.26289893442E+03 0.  0.
         25    1    4    4    0    0 -0.36160558103E+02 -0.58141860545E+02  0.77605889630E+02  0.16235222239E+03  0.12509000000E+03 0.  0.
         25    1    4    4    0    0 -0.13074753932E+02  0.16922857652E+02  0.43698710411E+02  0.13421779946E+03  0.12509000000E+03 0.  0.
         25    1    3    3    0    0  0.49235312035E+02  0.41219002892E+02  0.26127949181E+03  0.29671131271E+03  0.12509000000E+03 0.  0.
<mgrwt>
<rscale>  2 0.45344476E+03</rscale>
<asrwt>0</asrwt>
<pdfrwt beam="1">  1       21 0.71754810E-01 0.45344476E+03</pdfrwt>
<pdfrwt beam="2">  1       21 0.15492445E-01 0.45344476E+03</pdfrwt>
<totfact> 0.59825645E+04</totfact>
</mgrwt>
</event>
<event>
 7    0  0.4709932E-002  0.4039987E+03  0.7546771E-02  0.1042404E+00
         21   -1    0    0  502  501  0.00000000000E+00  0.00000000000E+00  0.11152089243E+03  0.11152089243E+03  0.00000000000E+00 0. -1.
         21   -1    0    0  501  502 -0.00000000000E+00 -0.00000000000E+00 -0.36588427004E+03  0.36588427004E+03  0.00000000000E+00 0. -1.
      99926    2    1    2    0    0 -0.35527136788E-14  0.00000000000E+00 -0.25436337761E+03  0.47740516247E+03  0.40399871445E+03 0.  0.
      99925    2    3    3    0    0  0.18794018494E+02 -0.47567596788E+02 -0.18372502887E+03  0.32491524212E+03  0.26305728830E+03 0.  0.
         25    1    4    4    0    0  0.22582872402E+01 -0.41543289780E+02 -0.50083865351E+02  0.14102073059E+03  0.12509000000E+03 0.  0.
         25    1    4    4    0    0  0.16535731253E+02 -0.60243070083E+01 -0.13364116352E+03  0.18389451153E+03  0.12509000000E+03 0.  0.
         25    1    3    3    0    0 -0.18794018494E+02  0.47567596788E+02 -0.70638348742E+02  0.15248992035E+03  0.12509000000E+03 0.  0.
<mgrwt>
<rscale>  2 0.40399871E+03</rscale>
<asrwt>0</asrwt>
<pdfrwt beam="1">  1       21 0.16400132E-01 0.40399871E+03</pdfrwt>
<pdfrwt beam="2">  1       21 0.53806509E-01 0.40399871E+03</pdfrwt>
<totfact> 0.10249385E+05</totfact>
</mgrwt>
</event>
<event>
 7    0  0.4709932E-002  0.4544842E+03  0.7546771E-02  0.1026393E+00
         21   -1    0    0  502  501  0.00000000000E+00  0.00000000000E+00  0.93664833231E+02  0.93664833231E+02  0.00000000000E+00 0.  1.
         21   -1    0    0  501  502 -0.00000000000E+00 -0.00000000000E+00 -0.55131658583E+03  0.55131658583E+03  0.00000000000E+00 0.  1.
      99926    2    1    2    0    0  0.00000000000E+00  0.00000000000E+00 -0.45765175260E+03  0.64498141906E+03  0.45448421785E+03 0.  0.
      99925    2    3    3    0    0  0.53416453118E+02 -0.40843120030E+02 -0.15953368017E+03  0.31476426153E+03  0.26287652484E+03 0.  0.
         25    1    4    4    0    0  0.86968813267E+01 -0.30836247099E+02 -0.11878104766E+03  0.17545072032E+03  0.12509000000E+03 0.  0.
         25    1    3    3    0    0 -0.53416453118E+02  0.40843120030E+02 -0.29811807243E+03  0.33021715753E+03  0.12509000000E+03 0.  0.
         25    1    4    4    0    0  0.44719571791E+02 -0.10006872931E+02 -0.40752632514E+02  0.13931354121E+03  0.12509000000E+03 0.  0.
<mgrwt>
<rscale>  2 0.45448422E+03</rscale>
<asrwt>0</asrwt>
<pdfrwt beam="1">  1       21 0.13774240E-01 0.45448422E+03</pdfrwt>
<pdfrwt beam="2">  1       21 0.81075972E-01 0.45448422E+03</pdfrwt>
<totfact> 0.56219982E+04</totfact>
</mgrwt>
</event>
<event>
 7    0  0.4709932E-002  0.4643107E+03  0.7546771E-02  0.1023538E+00
         21   -1    0    0  502  501  0.00000000000E+00  0.00000000000E+00  0.60798838330E+03  0.60798838330E+03  0.00000000000E+00 0.  1.
         21   -1    0    0  501  502 -0.00000000000E+00 -0.00000000000E+00 -0.88646607280E+02  0.88646607280E+02  0.00000000000E+00 0.  1.
      99926    2    1    2    0    0  0.00000000000E+00  0.71054273576E-14  0.51934177602E+03  0.69663499058E+03  0.46431070393E+03 0.  0.
      99925    2    3    3    0    0 -0.19985778480E+02 -0.43063049178E+02  0.49220889346E+03  0.56011554522E+03  0.26307027891E+03 0.  0.
         25    1    3    3    0    0  0.19985778480E+02  0.43063049178E+02  0.27132882557E+02  0.13651944536E+03  0.12509000000E+03 0.  0.
         25    1    4    4    0    0 -0.17515685432E+02 -0.61558686763E+02  0.27296894291E+03  0.30701111225E+03  0.12509000000E+03 0.  0.
         25    1    4    4    0    0 -0.24700930484E+01  0.18495637585E+02  0.21923995055E+03  0.25310443297E+03  0.12509000000E+03 0.  0.
<mgrwt>
<rscale>  2 0.46431070E+03</rscale>
<asrwt>0</asrwt>
<pdfrwt beam="1">  1       21 0.89410055E-01 0.46431070E+03</pdfrwt>
<pdfrwt beam="2">  1       21 0.13036266E-01 0.46431070E+03</pdfrwt>
<totfact> 0.49366984E+04</totfact>
</mgrwt>
</event>
<event>
 7    0  0.4709932E-002  0.4420556E+03  0.7546771E-02  0.1030118E+00
         21   -1    0    0  502  501  0.00000000000E+00  0.00000000000E+00  0.37397312422E+02  0.37397312422E+02  0.00000000000E+00 0.  1.
         21   -1    0    0  501  502 -0.00000000000E+00 -0.00000000000E+00 -0.13063313132E+04  0.13063313132E+04  0.00000000000E+00 0.  1.
      99926    2    1    2    0    0  0.00000000000E+00 -0.35527136788E-14 -0.12689340007E+04  0.13437286256E+04  0.44205556323E+03 0.  0.
      99925    2    3    3    0    0 -0.50821350912E+02 -0.30638221197E+02 -0.10561883243E+04  0.10898984831E+04  0.26234217482E+03 0.  0.
         25    1    4    4    0    0 -0.91927665598E+01 -0.37877543291E+02 -0.41249791568E+03  0.43280625433E+03  0.12509000000E+03 0.  0.
         25    1    4    4    0    0 -0.41628584352E+02  0.72393220942E+01 -0.64369040863E+03  0.65709222875E+03  0.12509000000E+03 0.  0.
         25    1    3    3    0    0  0.50821350912E+02  0.30638221197E+02 -0.21274567643E+03  0.25383014251E+03  0.12509000000E+03 0.  0.
<mgrwt>
<rscale>  2 0.44205556E+03</rscale>
<asrwt>0</asrwt>
<pdfrwt beam="1">  1       21 0.54996054E-02 0.44205556E+03</pdfrwt>
<pdfrwt beam="2">  1       21 0.19210753E+00 0.44205556E+03</pdfrwt>
<totfact> 0.30861439E+04</totfact>
</mgrwt>
</event>
<event>
 7    0  0.4709932E-002  0.4530022E+03  0.7546771E-02  0.1026831E+00
         21   -1    0    0  502  501  0.00000000000E+00  0.00000000000E+00  0.85212049742E+02  0.85212049742E+02  0.00000000000E+00 0. -1.
         21   -1    0    0  501  502 -0.00000000000E+00 -0.00000000000E+00 -0.60205966156E+03  0.60205966156E+03  0.00000000000E+00 0. -1.
      99926    2    1    2    0    0  0.00000000000E+00 -0.14210854715E-13 -0.51684761182E+03  0.68727171130E+03  0.45300215376E+03 0.  0.
      99925    2    3    3    0    0 -0.23305305873E+02  0.10384912053E+03 -0.27645184822E+03  0.39612671586E+03  0.26298854256E+03 0.  0.
         25    1    4    4    0    0 -0.80422288517E+01  0.74866337855E+02 -0.98371050059E+02  0.17605117886E+03  0.12509000000E+03 0.  0.
         25    1    4    4    0    0 -0.15263077021E+02  0.28982782671E+02 -0.17808079816E+03  0.22007553700E+03  0.12509000000E+03 0.  0.
         25    1    3    3    0    0  0.23305305873E+02 -0.10384912053E+03 -0.24039576360E+03  0.29114499544E+03  0.12509000000E+03 0.  0.
<mgrwt>
<rscale>  2 0.45300215E+03</rscale>
<asrwt>0</asrwt>
<pdfrwt beam="1">  1       21 0.12531184E-01 0.45300215E+03</pdfrwt>
<pdfrwt beam="2">  1       21 0.88538181E-01 0.45300215E+03</pdfrwt>
<totfact> 0.54451020E+04</totfact>
</mgrwt>
</event>
<event>
 7    0  0.4709932E-002  0.4546444E+03  0.7546771E-02  0.1026346E+00
         21   -1    0    0  502  501  0.00000000000E+00  0.00000000000E+00  0.14980482653E+03  0.14980482653E+03  0.00000000000E+00 0.  1.
         21   -1    0    0  501  502 -0.00000000000E+00 -0.00000000000E+00 -0.34495134098E+03  0.34495134098E+03  0.00000000000E+00 0.  1.
      99926    2    1    2    0    0  0.00000000000E+00  0.00000000000E+00 -0.19514651445E+03  0.49475616751E+03  0.45464437002E+03 0.  0.
      99925    2    3    3    0    0  0.30916821134E+02  0.11500477200E+02 -0.54921346300E+01  0.26518177284E+03  0.26306481768E+03 0.  0.
         25    1    4    4    0    0  0.33713405817E+01  0.42323809967E+02  0.10275134370E+02  0.13249814079E+03  0.12509000000E+03 0.  0.
         25    1    3    3    0    0 -0.30916821134E+02 -0.11500477200E+02 -0.18965437982E+03  0.22957439467E+03  0.12509000000E+03 0.  0.
         25    1    4    4    0    0  0.27545480553E+02 -0.30823332768E+02 -0.15767269000E+02  0.13268363205E+03  0.12509000000E+03 0.  0.
<mgrwt>
<rscale>  2 0.45464437E+03</rscale>
<asrwt>0</asrwt>
<pdfrwt beam="1">  1       21 0.22030122E-01 0.45464437E+03</pdfrwt>
<pdfrwt beam="2">  1       21 0.50728138E-01 0.45464437E+03</pdfrwt>
<totfact> 0.65826287E+04</totfact>
</mgrwt>
</event>
<event>
 7    0  0.4709932E-002  0.4809717E+03  0.7546771E-02  0.1018868E+00
         21   -1    0    0  502  501  0.00000000000E+00  0.00000000000E+00  0.17517659264E+03  0.17517659264E+03  0.00000000000E+00 0. -1.
         21   -1    0    0  501  502 -0.00000000000E+00 -0.00000000000E+00 -0.33014363405E+03  0.33014363405E+03  0.00000000000E+00 0. -1.
      99926    2    1    2    0    0  0.00000000000E+00  0.00000000000E+00 -0.15496704141E+03  0.50532022669E+03  0.48097167024E+03 0.  0.
      99925    2    3    3    0    0  0.33558326198E+02  0.13179375905E+03 -0.97097723196E+02  0.31169140065E+03  0.26311177322E+03 0.  0.
         25    1    4    4    0    0  0.14119845359E+02  0.10982516101E+03 -0.44705462914E+02  0.17293646966E+03  0.12509000000E+03 0.  0.
         25    1    4    4    0    0  0.19438480838E+02  0.21968598042E+02 -0.52392260282E+02  0.13875493099E+03  0.12509000000E+03 0.  0.
         25    1    3    3    0    0 -0.33558326198E+02 -0.13179375905E+03 -0.57869318210E+02  0.19362882604E+03  0.12509000000E+03 0.  0.
<mgrwt>
<rscale>  2 0.48097167E+03</rscale>
<asrwt>0</asrwt>
<pdfrwt beam="1">  1       21 0.25761264E-01 0.48097167E+03</pdfrwt>
<pdfrwt beam="2">  1       21 0.48550534E-01 0.48097167E+03</pdfrwt>
<totfact> 0.53081193E+04</totfact>
</mgrwt>
</event>
<event>
 7    0  0.4709932E-002  0.4619845E+03  0.7546771E-02  0.1024207E+00
         21   -1    0    0  502  501  0.00000000000E+00  0.00000000000E+00  0.67064285287E+02  0.67064285287E+02  0.00000000000E+00 0.  1.
         21   -1    0    0  501  502 -0.00000000000E+00 -0.00000000000E+00 -0.79561585717E+03  0.79561585717E+03  0.00000000000E+00 0.  1.
      99926    2    1    2    0    0  0.00000000000E+00  0.00000000000E+00 -0.72855157188E+03  0.86268014245E+03  0.46198445352E+03 0.  0.
      99925    2    3    3    0    0 -0.71393871788E+02  0.92768314075E+02 -0.40961596107E+03  0.50064357390E+03  0.26297472787E+03 0.  0.
         25    1    4    4    0    0 -0.31666318437E+02  0.67226648501E+01 -0.21225686460E+03  0.24849232305E+03  0.12509000000E+03 0.  0.
         25    1    3    3    0    0  0.71393871788E+02 -0.92768314075E+02 -0.31893561081E+03  0.36203656855E+03  0.12509000000E+03 0.  0.
         25    1    4    4    0    0 -0.39727553352E+02  0.86045649225E+02 -0.19735909647E+03  0.25215125085E+03  0.12509000000E+03 0.  0.
<mgrwt>
<rscale>  2 0.46198445E+03</rscale>
<asrwt>0</asrwt>
<pdfrwt beam="1">  1       21 0.98623955E-02 0.46198445E+03</pdfrwt>
<pdfrwt beam="2">  1       21 0.11700233E+00 0.46198445E+03</pdfrwt>
<totfact> 0.42500755E+04</totfact>
</mgrwt>
</event>
<event>
 7    0  0.4709932E-002  0.4645374E+03  0.7546771E-02  0.1023473E+00
         21   -1    0    0  502  501  0.00000000000E+00  0.00000000000E+00  0.10264076643E+03  0.10264076643E+03  0.00000000000E+00 0. -1.
         21   -1    0    0  501  502 -0.00000000000E+00 -0.00000000000E+00 -0.52560731489E+03  0.52560731489E+03  0.00000000000E+00 0. -1.
      99926    2    1    2    0    0  0.00000000000E+00  0.35527136788E-14 -0.42296654847E+03  0.62824808132E+03  0.46453735109E+03 0.  0.
      99925    2    3    3    0    0  0.91039827277E+02 -0.22261167096E+02 -0.36939482305E+03  0.46301718961E+03  0.26296116228E+03 0.  0.
         25    1    4    4    0    0  0.55677487804E+02 -0.76345908014E+01 -0.25366062915E+03  0.28835653713E+03  0.12509000000E+03 0.  0.
         25    1    3    3    0    0 -0.91039827277E+02  0.22261167096E+02 -0.53571725414E+02  0.16523089171E+03  0.12509000000E+03 0.  0.
         25    1    4    4    0    0  0.35362339473E+02 -0.14626576294E+02 -0.11573419390E+03  0.17466065248E+03  0.12509000000E+03 0.  0.
<mgrwt>
<rscale>  2 0.46453735E+03</rscale>
<asrwt>0</asrwt>
<pdfrwt beam="1">  1       21 0.15094231E-01 0.46453735E+03</pdfrwt>
<pdfrwt beam="2">  1       21 0.77295193E-01 0.46453735E+03</pdfrwt>
<totfact> 0.52876943E+04</totfact>
</mgrwt>
</event>
<event>
 7    0  0.4709932E-002  0.4544096E+03  0.7546771E-02  0.1026415E+00
         21   -1    0    0  502  501  0.00000000000E+00  0.00000000000E+00  0.86350703093E+03  0.86350703093E+03  0.00000000000E+00 0.  1.
         21   -1    0    0  501  502 -0.00000000000E+00 -0.00000000000E+00 -0.59781811916E+02  0.59781811916E+02  0.00000000000E+00 0.  1.
      99926    2    1    2    0    0  0.00000000000E+00  0.00000000000E+00  0.80372521902E+03  0.92328884285E+03  0.45440957257E+03 0.  0.
      99925    2    3    3    0    0  0.79294997143E+02 -0.75555349436E+02  0.45060549416E+03  0.53298465944E+03  0.26273756571E+03 0.  0.
         25    1    4    4    0    0  0.52544090964E+02 -0.75799453301E+02  0.22146091481E+03  0.27055292182E+03  0.12509000000E+03 0.  0.
         25    1    4    4    0    0  0.26750906180E+02  0.24410386483E+00  0.22914457935E+03  0.26243173762E+03  0.12509000000E+03 0.  0.
         25    1    3    3    0    0 -0.79294997143E+02  0.75555349436E+02  0.35311972486E+03  0.39030418341E+03  0.12509000000E+03 0.  0.
<mgrwt>
<rscale>  2 0.45440957E+03</rscale>
<asrwt>0</asrwt>
<pdfrwt beam="1">  1       21 0.12698632E+00 0.45440957E+03</pdfrwt>
<pdfrwt beam="2">  1       21 0.87914434E-02 0.45440957E+03</pdfrwt>
<totfact> 0.42437493E+04</totfact>
</mgrwt>
</event>
<event>
 7    0  0.4709932E-002  0.4537640E+03  0.7546771E-02  0.1026605E+00
         21   -1    0    0  502  501  0.00000000000E+00  0.00000000000E+00  0.11844406051E+04  0.11844406051E+04  0.00000000000E+00 0. -1.
         21   -1    0    0  501  502 -0.00000000000E+00 -0.00000000000E+00 -0.43459703227E+02  0.43459703227E+02  0.00000000000E+00 0. -1.
      99926    2    1    2    0    0  0.00000000000E+00  0.00000000000E+00  0.11409809019E+04  0.12279003083E+04  0.45376397912E+03 0.  0.
      99925    2    3    3    0    0  0.84234249403E+02 -0.66410303392E+02  0.80675289325E+03  0.85525891634E+03  0.26289131985E+03 0.  0.
         25    1    4    4    0    0  0.23102437634E+01 -0.23878461374E+02  0.32616688632E+03  0.35015405749E+03  0.12509000000E+03 0.  0.
         25    1    4    4    0    0  0.81924005639E+02 -0.42531842018E+02  0.48058600693E+03  0.50510485886E+03  0.12509000000E+03 0.  0.
         25    1    3    3    0    0 -0.84234249403E+02  0.66410303392E+02  0.33422800862E+03  0.37264139198E+03  0.12509000000E+03 0.  0.
<mgrwt>
<rscale>  2 0.45376398E+03</rscale>
<asrwt>0</asrwt>
<pdfrwt beam="1">  1       21 0.17418242E+00 0.45376398E+03</pdfrwt>
<pdfrwt beam="2">  1       21 0.63911336E-02 0.45376398E+03</pdfrwt>
<totfact> 0.31585479E+04</totfact>
</mgrwt>
</event>
<event>
 7    0  0.4709932E-002  0.4595796E+03  0.7546771E-02  0.1024903E+00
         21   -1    0    0  502  501  0.00000000000E+00  0.00000000000E+00  0.21061992218E+03  0.21061992218E+03  0.00000000000E+00 0. -1.
         21   -1    0    0  501  502 -0.00000000000E+00 -0.00000000000E+00 -0.25070446922E+03  0.25070446922E+03  0.00000000000E+00 0. -1.
      99926    2    1    2    0    0 -0.88817841970E-15  0.00000000000E+00 -0.40084547038E+02  0.46132439140E+03  0.45957961572E+03 0.  0.
      99925    2    3    3    0    0  0.76121430132E+01 -0.54091783306E+02 -0.12949576603E+03  0.29815043537E+03  0.26294612177E+03 0.  0.
         25    1    4    4    0    0 -0.11768751650E+02  0.79389085123E+01 -0.77871812145E+02  0.14803059485E+03  0.12509000000E+03 0.  0.
         25    1    3    3    0    0 -0.76121430132E+01  0.54091783306E+02  0.89411218991E+02  0.16317395602E+03  0.12509000000E+03 0.  0.
         25    1    4    4    0    0  0.19380894663E+02 -0.62030691818E+02 -0.51623953884E+02  0.15011984053E+03  0.12509000000E+03 0.  0.
<mgrwt>
<rscale>  2 0.45957962E+03</rscale>
<asrwt>0</asrwt>
<pdfrwt beam="1">  1       21 0.30973518E-01 0.45957962E+03</pdfrwt>
<pdfrwt beam="2">  1       21 0.36868304E-01 0.45957962E+03</pdfrwt>
<totfact> 0.65653053E+04</totfact>
</mgrwt>
</event>
<event>
 7    0  0.4709932E-002  0.4546732E+03  0.7546771E-02  0.1026338E+00
         21   -1    0    0  502  501  0.00000000000E+00  0.00000000000E+00  0.45655462490E+03  0.45655462490E+03  0.00000000000E+00 0. -1.
         21   -1    0    0  501  502 -0.00000000000E+00 -0.00000000000E+00 -0.11319986862E+03  0.11319986862E+03  0.00000000000E+00 0. -1.
      99926    2    1    2    0    0  0.00000000000E+00  0.00000000000E+00  0.34335475627E+03  0.56975449352E+03  0.45467317298E+03 0.  0.
      99925    2    3    3    0    0 -0.20610062284E+02 -0.63258749389E+02  0.33034170250E+03  0.42747557129E+03  0.26302714613E+03 0.  0.
         25    1    3    3    0    0  0.20610062284E+02  0.63258749389E+02  0.13013053773E+02  0.14227892223E+03  0.12509000000E+03 0.  0.
         25    1    4    4    0    0  0.27435475152E+02 -0.23429772261E+02  0.13823888897E+03  0.18989249076E+03  0.12509000000E+03 0.  0.
         25    1    4    4    0    0 -0.48045537436E+02 -0.39828977128E+02  0.19210281353E+03  0.23758308053E+03  0.12509000000E+03 0.  0.
<mgrwt>
<rscale>  2 0.45467317E+03</rscale>
<asrwt>0</asrwt>
<pdfrwt beam="1">  1       21 0.67140385E-01 0.45467317E+03</pdfrwt>
<pdfrwt beam="2">  1       21 0.16647040E-01 0.45467317E+03</pdfrwt>
<totfact> 0.60736506E+04</totfact>
</mgrwt>
</event>
<event>
 7    0  0.4709932E-002  0.4645564E+03  0.7546771E-02  0.1023468E+00
         21   -1    0    0  502  501  0.00000000000E+00  0.00000000000E+00  0.24238960937E+04  0.24238960937E+04  0.00000000000E+00 0.  1.
         21   -1    0    0  501  502 -0.00000000000E+00 -0.00000000000E+00 -0.22258859116E+02  0.22258859116E+02  0.00000000000E+00 0.  1.
      99926    2    1    2    0    0  0.00000000000E+00  0.00000000000E+00  0.24016372345E+04  0.24461549528E+04  0.46455639770E+03 0.  0.
      99925    2    3    3    0    0 -0.11188598796E+03 -0.47971811473E+02  0.14616967272E+04  0.14901447883E+04  0.26297224000E+03 0.  0.
         25    1    4    4    0    0 -0.32286942245E+02 -0.15604002735E+02  0.50553685257E+03  0.52201623437E+03  0.12509000000E+03 0.  0.
         25    1    3    3    0    0  0.11188598796E+03  0.47971811473E+02  0.93994050736E+03  0.95601016442E+03  0.12509000000E+03 0.  0.
         25    1    4    4    0    0 -0.79599045713E+02 -0.32367808738E+02  0.95615987460E+03  0.96812855397E+03  0.12509000000E+03 0.  0.
<mgrwt>
<rscale>  2 0.46455640E+03</rscale>
<asrwt>0</asrwt>
<pdfrwt beam="1">  1       21 0.35645513E+00 0.46455640E+03</pdfrwt>
<pdfrwt beam="2">  1       21 0.32733633E-02 0.46455640E+03</pdfrwt>
<totfact> 0.71523863E+03</totfact>
</mgrwt>
</event>
<event>
 7    0  0.4709932E-002  0.4537394E+03  0.7546771E-02  0.1026613E+00
         21   -1    0    0  502  501  0.00000000000E+00  0.00000000000E+00  0.32457598906E+02  0.32457598906E+02  0.00000000000E+00 0.  1.
         21   -1    0    0  501  502 -0.00000000000E+00 -0.00000000000E+00 -0.15857568457E+04  0.15857568457E+04  0.00000000000E+00 0.  1.
      99926    2    1    2    0    0 -0.71054273576E-14  0.00000000000E+00 -0.15532992468E+04  0.16182144446E+04  0.45373939508E+03 0.  0.
      99925    2    3    3    0    0  0.56420006534E+02 -0.87956230216E+02 -0.11155499800E+04  0.11511047741E+04  0.26395251009E+03 0.  0.
         25    1    4    4    0    0  0.63940198511E+02 -0.22074299415E+02 -0.54389452294E+03  0.56217824920E+03  0.12509000000E+03 0.  0.
         25    1    3    3    0    0 -0.56420006534E+02  0.87956230216E+02 -0.43774926680E+03  0.46710967048E+03  0.12509000000E+03 0.  0.
         25    1    4    4    0    0 -0.75201919763E+01 -0.65881930801E+02 -0.57165545706E+03  0.58892652494E+03  0.12509000000E+03 0.  0.
<mgrwt>
<rscale>  2 0.45373940E+03</rscale>
<asrwt>0</asrwt>
<pdfrwt beam="1">  1       21 0.47731756E-02 0.45373940E+03</pdfrwt>
<pdfrwt beam="2">  1       21 0.23319957E+00 0.45373940E+03</pdfrwt>
<totfact> 0.21228315E+04</totfact>
</mgrwt>
</event>
<event>
 7    0  0.4709932E-002  0.4548029E+03  0.7546771E-02  0.1026299E+00
         21   -1    0    0  502  501  0.00000000000E+00  0.00000000000E+00  0.22435449303E+03  0.22435449303E+03  0.00000000000E+00 0.  1.
         21   -1    0    0  501  502 -0.00000000000E+00 -0.00000000000E+00 -0.23048978787E+03  0.23048978787E+03  0.00000000000E+00 0.  1.
      99926    2    1    2    0    0 -0.35527136788E-14 -0.14210854715E-13 -0.61352948371E+01  0.45484428090E+03  0.45480290019E+03 0.  0.
      99925    2    3    3    0    0  0.23172785407E+02 -0.10287484109E+03  0.36684323114E+02  0.28572527341E+03  0.26300756907E+03 0.  0.
         25    1    3    3    0    0 -0.23172785407E+02  0.10287484109E+03 -0.42819617952E+02  0.16911900749E+03  0.12509000000E+03 0.  0.
         25    1    4    4    0    0 -0.18782741262E+02 -0.35219280914E+02 -0.59666189068E+01  0.13143933109E+03  0.12509000000E+03 0.  0.
         25    1    4    4    0    0  0.41955526668E+02 -0.67655560177E+02  0.42650942021E+02  0.15428594232E+03  0.12509000000E+03 0.  0.
<mgrwt>
<rscale>  2 0.45480290E+03</rscale>
<asrwt>0</asrwt>
<pdfrwt beam="1">  1       21 0.32993308E-01 0.45480290E+03</pdfrwt>
<pdfrwt beam="2">  1       21 0.33895557E-01 0.45480290E+03</pdfrwt>
<totfact> 0.68665124E+04</totfact>
</mgrwt>
</event>
<event>
 7    0  0.4709932E-002  0.4526473E+03  0.7546771E-02  0.1026936E+00
         21   -1    0    0  502  501  0.00000000000E+00  0.00000000000E+00  0.19693119199E+04  0.19693119199E+04  0.00000000000E+00 0. -1.
         21   -1    0    0  501  502 -0.00000000000E+00 -0.00000000000E+00 -0.26010306100E+02  0.26010306100E+02  0.00000000000E+00 0. -1.
      99926    2    1    2    0    0  0.00000000000E+00  0.00000000000E+00  0.19433016138E+04  0.19953222260E+04  0.45264734990E+03 0.  0.
      99925    2    3    3    0    0  0.94070025479E+02 -0.45304948399E+02  0.13918264282E+04  0.14202795350E+04  0.26289055375E+03 0.  0.
         25    1    3    3    0    0 -0.94070025479E+02  0.45304948399E+02  0.55147518552E+03  0.57504269093E+03  0.12509000000E+03 0.  0.
         25    1    4    4    0    0  0.10071469799E+02 -0.38285505732E+01  0.68085194173E+03  0.69233154410E+03  0.12509000000E+03 0.  0.
         25    1    4    4    0    0  0.83998555680E+02 -0.41476397826E+02  0.71097448651E+03  0.72794799093E+03  0.12509000000E+03 0.  0.
<mgrwt>
<rscale>  2 0.45264735E+03</rscale>
<asrwt>0</asrwt>
<pdfrwt beam="1">  1       21 0.28960459E+00 0.45264735E+03</pdfrwt>
<pdfrwt beam="2">  1       21 0.38250464E-02 0.45264735E+03</pdfrwt>
<totfact> 0.14040870E+04</totfact>
</mgrwt>
</event>
<event>
 7    0  0.4709932E-002  0.4762190E+03  0.7546771E-02  0.1020179E+00
         21   -1    0    0  502  501  0.00000000000E+00  0.00000000000E+00  0.48297810421E+03  0.48297810421E+03  0.00000000000E+00 0. -1.
         21   -1    0    0  501  502 -0.00000000000E+00 -0.00000000000E+00 -0.11738861599E+03  0.11738861599E+03  0.00000000000E+00 0. -1.
      99926    2    1    2    0    0  0.00000000000E+00  0.71054273576E-14  0.36558948822E+03  0.60036672021E+03  0.47621898832E+03 0.  0.
      99925    2    3    3    0    0  0.33199197631E+02 -0.34815713453E+02  0.70929648107E+02  0.27665967657E+03  0.26304988316E+03 0.  0.
         25    1    4    4    0    0  0.83222896428E+01  0.17855426608E+02  0.14050870136E+02  0.12740883728E+03  0.12509000000E+03 0.  0.
         25    1    4    4    0    0  0.24876907988E+02 -0.52671140061E+02  0.56878777971E+02  0.14925083929E+03  0.12509000000E+03 0.  0.
         25    1    3    3    0    0 -0.33199197631E+02  0.34815713453E+02  0.29465984011E+03  0.32370704364E+03  0.12509000000E+03 0.  0.
<mgrwt>
<rscale>  2 0.47621899E+03</rscale>
<asrwt>0</asrwt>
<pdfrwt beam="1">  1       21 0.71026191E-01 0.47621899E+03</pdfrwt>
<pdfrwt beam="2">  1       21 0.17263032E-01 0.47621899E+03</pdfrwt>
<totfact> 0.49770608E+04</totfact>
</mgrwt>
</event>
<event>
 7    0  0.4709932E-002  0.4558094E+03  0.7546771E-02  0.1026004E+00
         21   -1    0    0  502  501  0.00000000000E+00  0.00000000000E+00  0.33838409737E+03  0.33838409737E+03  0.00000000000E+00 0. -1.
         21   -1    0    0  501  502 -0.00000000000E+00 -0.00000000000E+00 -0.15349582350E+03  0.15349582350E+03  0.00000000000E+00 0. -1.
      99926    2    1    2    0    0  0.00000000000E+00  0.00000000000E+00  0.18488827387E+03  0.49187992087E+03  0.45580937105E+03 0.  0.
      99925    2    3    3    0    0 -0.91252989717E+02 -0.66670300975E+02  0.10049413944E+03  0.30335428550E+03  0.26296903488E+03 0.  0.
         25    1    3    3    0    0  0.91252989717E+02  0.66670300975E+02  0.84394134435E+02  0.18852563537E+03  0.12509000000E+03 0.  0.
         25    1    4    4    0    0 -0.19503320734E+02 -0.29123551296E+02  0.13010834627E+02  0.13055784418E+03  0.12509000000E+03 0.  0.
         25    1    4    4    0    0 -0.71749668983E+02 -0.37546749679E+02  0.87483304809E+02  0.17279644131E+03  0.12509000000E+03 0.  0.
<mgrwt>
<rscale>  2 0.45580937E+03</rscale>
<asrwt>0</asrwt>
<pdfrwt beam="1">  1       21 0.49762367E-01 0.45580937E+03</pdfrwt>
<pdfrwt beam="2">  1       21 0.22572915E-01 0.45580937E+03</pdfrwt>
<totfact> 0.65423586E+04</totfact>
</mgrwt>
</event>
<event>
 7    0  0.4709932E-002  0.4630556E+03  0.7546771E-02  0.1023899E+00
         21   -1    0    0  502  501  0.00000000000E+00  0.00000000000E+00  0.36215470524E+03  0.36215470524E+03  0.00000000000E+00 0.  1.
         21   -1    0    0  501  502 -0.00000000000E+00 -0.00000000000E+00 -0.14801721029E+03  0.14801721029E+03  0.00000000000E+00 0.  1.
      99926    2    1    2    0    0  0.00000000000E+00  0.00000000000E+00  0.21413749495E+03  0.51017191553E+03  0.46305563020E+03 0.  0.
      99925    2    3    3    0    0  0.52988616560E+02  0.10321263887E+03  0.97599046395E+02  0.30355787826E+03  0.26298511229E+03 0.  0.
         25    1    4    4    0    0  0.53662554411E+02  0.62825928090E+02  0.82846444144E+02  0.17128283158E+03  0.12509000000E+03 0.  0.
         25    1    3    3    0    0 -0.52988616560E+02 -0.10321263887E+03  0.11653844856E+03  0.20661403728E+03  0.12509000000E+03 0.  0.
         25    1    4    4    0    0 -0.67393785072E+00  0.40386710785E+02  0.14752602250E+02  0.13227504668E+03  0.12509000000E+03 0.  0.
<mgrwt>
<rscale>  2 0.46305563E+03</rscale>
<asrwt>0</asrwt>
<pdfrwt beam="1">  1       21 0.53258045E-01 0.46305563E+03</pdfrwt>
<pdfrwt beam="2">  1       21 0.21767237E-01 0.46305563E+03</pdfrwt>
<totfact> 0.60593823E+04</totfact>
</mgrwt>
</event>
<event>
 7    0  0.4709932E-002  0.4334455E+03  0.7546771E-02  0.1032777E+00
         21   -1    0    0  502  501  0.00000000000E+00  0.00000000000E+00  0.75048835933E+03  0.75048835933E+03  0.00000000000E+00 0. -1.
         21   -1    0    0  501  502 -0.00000000000E+00 -0.00000000000E+00 -0.62584259810E+02  0.62584259810E+02  0.00000000000E+00 0. -1.
      99926    2    1    2    0    0  0.00000000000E+00 -0.71054273576E-14  0.68790409952E+03  0.81307261914E+03  0.43344553736E+03 0.  0.
      99925    2    3    3    0    0  0.39450096914E+02 -0.53221273920E+02  0.56050763183E+03  0.62263579963E+03  0.26290249048E+03 0.  0.
         25    1    4    4    0    0  0.29572488948E+02 -0.57157681396E+02  0.23674737953E+03  0.27538765851E+03  0.12509000000E+03 0.  0.
         25    1    4    4    0    0  0.98776079658E+01  0.39364074758E+01  0.32376025230E+03  0.34724814112E+03  0.12509000000E+03 0.  0.
         25    1    3    3    0    0 -0.39450096914E+02  0.53221273920E+02  0.12739646769E+03  0.19043681951E+03  0.12509000000E+03 0.  0.
<mgrwt>
<rscale>  2 0.43344554E+03</rscale>
<asrwt>0</asrwt>
<pdfrwt beam="1">  1       21 0.11036593E+00 0.43344554E+03</pdfrwt>
<pdfrwt beam="2">  1       21 0.92035681E-02 0.43344554E+03</pdfrwt>
<totfact> 0.56031991E+04</totfact>
</mgrwt>
</event>
<event>
 7    0  0.4709932E-002  0.4424484E+03  0.7546771E-02  0.1029998E+00
         21   -1    0    0  502  501  0.00000000000E+00  0.00000000000E+00  0.43543926497E+03  0.43543926497E+03  0.00000000000E+00 0. -1.
         21   -1    0    0  501  502 -0.00000000000E+00 -0.00000000000E+00 -0.11239259893E+03  0.11239259893E+03  0.00000000000E+00 0. -1.
      99926    2    1    2    0    0 -0.71054273576E-14  0.00000000000E+00  0.32304666603E+03  0.54783186390E+03  0.44244841809E+03 0.  0.
      99925    2    3    3    0    0  0.56937926564E+02 -0.40581241228E+02  0.11569491192E+03  0.29577825322E+03  0.26307926146E+03 0.  0.
         25    1    4    4    0    0  0.53588545653E+02  0.10251723381E+02  0.47733001622E+02  0.14457792916E+03  0.12509000000E+03 0.  0.
         25    1    3    3    0    0 -0.56937926564E+02  0.40581241228E+02  0.20735175412E+03  0.25205361068E+03  0.12509000000E+03 0.  0.
         25    1    4    4    0    0  0.33493809106E+01 -0.50832964609E+02  0.67961910295E+02  0.15120032406E+03  0.12509000000E+03 0.  0.
<mgrwt>
<rscale>  2 0.44244842E+03</rscale>
<asrwt>0</asrwt>
<pdfrwt beam="1">  1       21 0.64035185E-01 0.44244842E+03</pdfrwt>
<pdfrwt beam="2">  1       21 0.16528324E-01 0.44244842E+03</pdfrwt>
<totfact> 0.68570247E+04</totfact>
</mgrwt>
</event>
<event>
 7    0  0.4709932E-002  0.4577752E+03  0.7546771E-02  0.1025428E+00
         21   -1    0    0  502  501  0.00000000000E+00  0.00000000000E+00  0.12515104059E+03  0.12515104059E+03  0.00000000000E+00 0. -1.
         21   -1    0    0  501  502 -0.00000000000E+00 -0.00000000000E+00 -0.41861038163E+03  0.41861038163E+03  0.00000000000E+00 0. -1.
      99926    2    1    2    0    0 -0.71054273576E-14 -0.14210854715E-13 -0.29345934105E+03  0.54376142222E+03  0.45777516255E+03 0.  0.
      99925    2    3    3    0    0  0.36242535698E+02  0.10261800619E+03 -0.13780237950E+03  0.31633984372E+03  0.26313005214E+03 0.  0.
         25    1    4    4    0    0  0.52992280201E+01  0.78016537453E+02 -0.10512131090E+03  0.18114265107E+03  0.12509000000E+03 0.  0.
         25    1    4    4    0    0  0.30943307678E+02  0.24601468738E+02 -0.32681068601E+02  0.13519719264E+03  0.12509000000E+03 0.  0.
         25    1    3    3    0    0 -0.36242535698E+02 -0.10261800619E+03 -0.15565696155E+03  0.22742157850E+03  0.12509000000E+03 0.  0.
<mgrwt>
<rscale>  2 0.45777516E+03</rscale>
<asrwt>0</asrwt>
<pdfrwt beam="1">  1       21 0.18404565E-01 0.45777516E+03</pdfrwt>
<pdfrwt beam="2">  1       21 0.61560350E-01 0.45777516E+03</pdfrwt>
<totfact> 0.60931505E+04</totfact>
</mgrwt>
</event>
<event>
 7    0  0.4709932E-002  0.4555646E+03  0.7546771E-02  0.1026075E+00
         21   -1    0    0  502  501  0.00000000000E+00  0.00000000000E+00  0.17658532613E+03  0.17658532613E+03  0.00000000000E+00 0. -1.
         21   -1    0    0  501  502 -0.00000000000E+00 -0.00000000000E+00 -0.29382272283E+03  0.29382272283E+03  0.00000000000E+00 0. -1.
      99926    2    1    2    0    0 -0.14210854715E-13  0.00000000000E+00 -0.11723739670E+03  0.47040804897E+03  0.45556462258E+03 0.  0.
      99925    2    3    3    0    0  0.87910945140E+02  0.70259886387E+02 -0.90232671093E+02  0.29999223627E+03  0.26303729960E+03 0.  0.
         25    1    4    4    0    0  0.43620319034E+02  0.26430640652E+02 -0.86074465681E+02  0.16018000106E+03  0.12509000000E+03 0.  0.
         25    1    3    3    0    0 -0.87910945140E+02 -0.70259886387E+02 -0.27004725607E+02  0.17041581269E+03  0.12509000000E+03 0.  0.
         25    1    4    4    0    0  0.44290626106E+02  0.43829245735E+02 -0.41582054127E+01  0.13981223521E+03  0.12509000000E+03 0.  0.
<mgrwt>
<rscale>  2 0.45556462E+03</rscale>
<asrwt>0</asrwt>
<pdfrwt beam="1">  1       21 0.25968431E-01 0.45556462E+03</pdfrwt>
<pdfrwt beam="2">  1       21 0.43209223E-01 0.45556462E+03</pdfrwt>
<totfact> 0.67104305E+04</totfact>
</mgrwt>
</event>
