<event>
 7    0  0.4707675E-002  0.4537214E+03  0.7546771E-02  0.1026618E+00
         21   -1    0    0  502  501  0.00000000000E+00  0.00000000000E+00  0.11650391701E+03  0.11650391701E+03  0.00000000000E+00 0. -1.
         21   -1    0    0  501  502 -0.00000000000E+00 -0.00000000000E+00 -0.44175150219E+03  0.44175150219E+03  0.00000000000E+00 0. -1.
      99926    2    1    2    0    0 -0.14210854715E-13  0.00000000000E+00 -0.32524758518E+03  0.55825541920E+03  0.45372141386E+03 0.  0.
      99925    2    3    3    0    0 -0.10677798229E+03 -0.34235594400E+02 -0.19803042036E+03  0.34752970043E+03  0.26265420588E+03 0.  0.
         25    1    3    3    0    0  0.10677798229E+03  0.34235594400E+02 -0.12721716482E+03  0.21072571877E+03  0.12509000000E+03 0.  0.
         25    1    4    4    0    0 -0.36179744917E+02  0.17414323803E+02 -0.10983405442E+03  0.17124035805E+03  0.12509000000E+03 0.  0.
         25    1    4    4    0    0 -0.70598237371E+02 -0.51649918203E+02 -0.88196365942E+02  0.17628934238E+03  0.12509000000E+03 0.  0.
<mgrwt>
<rscale>  2 0.45372141E+03</rscale>
<asrwt>0</asrwt>
<pdfrwt beam="1">  1       21 0.17132929E-01 0.45372141E+03</pdfrwt>
<pdfrwt beam="2">  1       21 0.64963455E-01 0.45372141E+03</pdfrwt>
<totfact> 0.61948428E+04</totfact>
</mgrwt>
</event>
<event>
 7    0  0.4707675E-002  0.4564066E+03  0.7546771E-02  0.1025829E+00
         21   -1    0    0  502  501  0.00000000000E+00  0.00000000000E+00  0.84787278201E+02  0.84787278201E+02  0.00000000000E+00 0. -1.
         21   -1    0    0  501  502 -0.00000000000E+00 -0.00000000000E+00 -0.61420465779E+03  0.61420465779E+03  0.00000000000E+00 0. -1.
      99926    2    1    2    0    0  0.00000000000E+00 -0.14210854715E-13 -0.52941737958E+03  0.69899193599E+03  0.45640657836E+03 0.  0.
      99925    2    3    3    0    0 -0.32030967998E+02 -0.10703243087E+03 -0.29532216873E+03  0.41101624254E+03  0.26312970969E+03 0.  0.
         25    1    4    4    0    0 -0.18757614108E+02 -0.93739201862E+02 -0.18727349536E+03  0.24465844808E+03  0.12509000000E+03 0.  0.
         25    1    3    3    0    0  0.32030967998E+02  0.10703243087E+03 -0.23409521085E+03  0.28797569344E+03  0.12509000000E+03 0.  0.
         25    1    4    4    0    0 -0.13273353890E+02 -0.13293229011E+02 -0.10804867337E+03  0.16635779446E+03  0.12509000000E+03 0.  0.
<mgrwt>
<rscale>  2 0.45640658E+03</rscale>
<asrwt>0</asrwt>
<pdfrwt beam="1">  1       21 0.12468717E-01 0.45640658E+03</pdfrwt>
<pdfrwt beam="2">  1       21 0.90324217E-01 0.45640658E+03</pdfrwt>
<totfact> 0.52375524E+04</totfact>
</mgrwt>
</event>
<event>
 7    0  0.4707675E-002  0.4556378E+03  0.7546771E-02  0.1026054E+00
         21   -1    0    0  502  501  0.00000000000E+00  0.00000000000E+00  0.19495345223E+03  0.19495345223E+03  0.00000000000E+00 0. -1.
         21   -1    0    0  501  502 -0.00000000000E+00 -0.00000000000E+00 -0.26622479928E+03  0.26622479928E+03  0.00000000000E+00 0. -1.
      99926    2    1    2    0    0  0.17763568394E-14  0.00000000000E+00 -0.71271347054E+02  0.46117825151E+03  0.45563776704E+03 0.  0.
      99925    2    3    3    0    0 -0.96992797007E+01 -0.11347455921E+03 -0.49701689173E+02  0.29063995711E+03  0.26273708369E+03 0.  0.
         25    1    4    4    0    0  0.29630909198E+01 -0.83037674516E+02  0.48432495791E+01  0.15024979355E+03  0.12509000000E+03 0.  0.
         25    1    3    3    0    0  0.96992797007E+01  0.11347455921E+03 -0.21569657881E+02  0.17053829440E+03  0.12509000000E+03 0.  0.
         25    1    4    4    0    0 -0.12662370620E+02 -0.30436884698E+02 -0.54544938752E+02  0.14039016356E+03  0.12509000000E+03 0.  0.
<mgrwt>
<rscale>  2 0.45563777E+03</rscale>
<asrwt>0</asrwt>
<pdfrwt beam="1">  1       21 0.28669625E-01 0.45563777E+03</pdfrwt>
<pdfrwt beam="2">  1       21 0.39150706E-01 0.45563777E+03</pdfrwt>
<totfact> 0.67749540E+04</totfact>
</mgrwt>
</event>
<event>
 7    0  0.4707675E-002  0.4648471E+03  0.7546771E-02  0.1023385E+00
         21   -1    0    0  502  501  0.00000000000E+00  0.00000000000E+00  0.49877760473E+03  0.49877760473E+03  0.00000000000E+00 0. -1.
         21   -1    0    0  501  502 -0.00000000000E+00 -0.00000000000E+00 -0.10830618049E+03  0.10830618049E+03  0.00000000000E+00 0. -1.
      99926    2    1    2    0    0  0.00000000000E+00  0.00000000000E+00  0.39047142424E+03  0.60708378523E+03  0.46484705995E+03 0.  0.
      99925    2    3    3    0    0  0.52000814742E+02  0.97884060765E+02  0.31057232203E+03  0.42183598168E+03  0.26306853507E+03 0.  0.
         25    1    4    4    0    0  0.50014627129E+02  0.75489888748E+02  0.13517007841E+03  0.20522827395E+03  0.12509000000E+03 0.  0.
         25    1    4    4    0    0  0.19861876127E+01  0.22394172016E+02  0.17540224362E+03  0.21660770773E+03  0.12509000000E+03 0.  0.
         25    1    3    3    0    0 -0.52000814742E+02 -0.97884060765E+02  0.79899102205E+02  0.18524780355E+03  0.12509000000E+03 0.  0.
<mgrwt>
<rscale>  2 0.46484706E+03</rscale>
<asrwt>0</asrwt>
<pdfrwt beam="1">  1       21 0.73349647E-01 0.46484706E+03</pdfrwt>
<pdfrwt beam="2">  1       21 0.15927380E-01 0.46484706E+03</pdfrwt>
<totfact> 0.53925342E+04</totfact>
</mgrwt>
</event>
<event>
 7    0  0.4707675E-002  0.4538824E+03  0.7546771E-02  0.1026571E+00
         21   -1    0    0  502  501  0.00000000000E+00  0.00000000000E+00  0.23821531773E+03  0.23821531773E+03  0.00000000000E+00 0. -1.
         21   -1    0    0  501  502 -0.00000000000E+00 -0.00000000000E+00 -0.21620067946E+03  0.21620067946E+03  0.00000000000E+00 0. -1.
      99926    2    1    2    0    0  0.00000000000E+00  0.35527136788E-14  0.22014638262E+02  0.45441599719E+03  0.45388242333E+03 0.  0.
      99925    2    3    3    0    0  0.96677317225E+02 -0.26804206902E+02 -0.35963943423E+02  0.28390502040E+03  0.26314195068E+03 0.  0.
         25    1    4    4    0    0  0.60595547493E+02 -0.47665291751E+02 -0.38971785176E+02  0.15202009260E+03  0.12509000000E+03 0.  0.
         25    1    3    3    0    0 -0.96677317225E+02  0.26804206902E+02  0.57978581685E+02  0.17051097680E+03  0.12509000000E+03 0.  0.
         25    1    4    4    0    0  0.36081769733E+02  0.20861084849E+02  0.30078417527E+01  0.13188492780E+03  0.12509000000E+03 0.  0.
<mgrwt>
<rscale>  2 0.45388242E+03</rscale>
<asrwt>0</asrwt>
<pdfrwt beam="1">  1       21 0.35031665E-01 0.45388242E+03</pdfrwt>
<pdfrwt beam="2">  1       21 0.31794217E-01 0.45388242E+03</pdfrwt>
<totfact> 0.69203656E+04</totfact>
</mgrwt>
</event>
<event>
 7    0  0.4707675E-002  0.4552717E+03  0.7546771E-02  0.1026162E+00
         21   -1    0    0  502  501  0.00000000000E+00  0.00000000000E+00  0.14203923680E+04  0.14203923680E+04  0.00000000000E+00 0.  1.
         21   -1    0    0  501  502 -0.00000000000E+00 -0.00000000000E+00 -0.36481528085E+02  0.36481528085E+02  0.00000000000E+00 0.  1.
      99926    2    1    2    0    0  0.35527136788E-14  0.14210854715E-13  0.13839108399E+04  0.14568738961E+04  0.45527171695E+03 0.  0.
      99925    2    3    3    0    0  0.23514344216E+02  0.75082171707E+02  0.60918757789E+03  0.66818263981E+03  0.26299862776E+03 0.  0.
         25    1    3    3    0    0 -0.23514344216E+02 -0.75082171707E+02  0.77472326203E+03  0.78869125628E+03  0.12509000000E+03 0.  0.
         25    1    4    4    0    0  0.23590762702E+02  0.67122995138E+01  0.34820591628E+03  0.37080513384E+03  0.12509000000E+03 0.  0.
         25    1    4    4    0    0 -0.76418486904E-01  0.68369872193E+02  0.26098166160E+03  0.29737750597E+03  0.12509000000E+03 0.  0.
<mgrwt>
<rscale>  2 0.45527172E+03</rscale>
<asrwt>0</asrwt>
<pdfrwt beam="1">  1       21 0.20888119E+00 0.45527172E+03</pdfrwt>
<pdfrwt beam="2">  1       21 0.53649315E-02 0.45527172E+03</pdfrwt>
<totfact> 0.24802567E+04</totfact>
</mgrwt>
</event>
<event>
 7    0  0.4707675E-002  0.4539721E+03  0.7546771E-02  0.1026544E+00
         21   -1    0    0  502  501  0.00000000000E+00  0.00000000000E+00  0.10462382163E+04  0.10462382163E+04  0.00000000000E+00 0. -1.
         21   -1    0    0  501  502 -0.00000000000E+00 -0.00000000000E+00 -0.49245632967E+02  0.49245632967E+02  0.00000000000E+00 0. -1.
      99926    2    1    2    0    0  0.00000000000E+00  0.00000000000E+00  0.99699258334E+03  0.10954838493E+04  0.45397208371E+03 0.  0.
      99925    2    3    3    0    0  0.23576573529E+02 -0.10698058163E+03  0.55934968689E+03  0.62731773284E+03  0.26202054508E+03 0.  0.
         25    1    4    4    0    0  0.35395609139E+02 -0.59159381848E+02  0.35558983597E+03  0.38320271548E+03  0.12509000000E+03 0.  0.
         25    1    4    4    0    0 -0.11819035610E+02 -0.47821199787E+02  0.20375985092E+03  0.24411501736E+03  0.12509000000E+03 0.  0.
         25    1    3    3    0    0 -0.23576573529E+02  0.10698058163E+03  0.43764289645E+03  0.46816611644E+03  0.12509000000E+03 0.  0.
<mgrwt>
<rscale>  2 0.45397208E+03</rscale>
<asrwt>0</asrwt>
<pdfrwt beam="1">  1       21 0.15385855E+00 0.45397208E+03</pdfrwt>
<pdfrwt beam="2">  1       21 0.72420055E-02 0.45397208E+03</pdfrwt>
<totfact> 0.35938590E+04</totfact>
</mgrwt>
</event>
<event>
 7    0  0.4707675E-002  0.4600865E+03  0.7546771E-02  0.1024756E+00
         21   -1    0    0  502  501  0.00000000000E+00  0.00000000000E+00  0.71587726739E+02  0.71587726739E+02  0.00000000000E+00 0. -1.
         21   -1    0    0  501  502 -0.00000000000E+00 -0.00000000000E+00 -0.73923126373E+03  0.73923126373E+03  0.00000000000E+00 0. -1.
      99926    2    1    2    0    0  0.00000000000E+00  0.35527136788E-14 -0.66764353699E+03  0.81081899047E+03  0.46008645146E+03 0.  0.
      99925    2    3    3    0    0 -0.55295798440E+02 -0.17079783393E+02 -0.59925712740E+03  0.65695686568E+03  0.26293321264E+03 0.  0.
         25    1    3    3    0    0  0.55295798440E+02  0.17079783393E+02 -0.68386409593E+02  0.15386212478E+03  0.12509000000E+03 0.  0.
         25    1    4    4    0    0  0.38599308912E+01 -0.33483425852E+02 -0.27238879100E+03  0.30162758567E+03  0.12509000000E+03 0.  0.
         25    1    4    4    0    0 -0.59155729331E+02  0.16403642458E+02 -0.32686833640E+03  0.35532928002E+03  0.12509000000E+03 0.  0.
<mgrwt>
<rscale>  2 0.46008645E+03</rscale>
<asrwt>0</asrwt>
<pdfrwt beam="1">  1       21 0.10527607E-01 0.46008645E+03</pdfrwt>
<pdfrwt beam="2">  1       21 0.10871048E+00 0.46008645E+03</pdfrwt>
<totfact> 0.45406287E+04</totfact>
</mgrwt>
</event>
<event>
 7    0  0.4707675E-002  0.4611824E+03  0.7546771E-02  0.1024439E+00
         21   -1    0    0  502  501  0.00000000000E+00  0.00000000000E+00  0.90326553592E+02  0.90326553592E+02  0.00000000000E+00 0.  1.
         21   -1    0    0  501  502 -0.00000000000E+00 -0.00000000000E+00 -0.58866738269E+03  0.58866738269E+03  0.00000000000E+00 0.  1.
      99926    2    1    2    0    0  0.00000000000E+00  0.88817841970E-15 -0.49834082910E+03  0.67899393628E+03  0.46118237560E+03 0.  0.
      99925    2    3    3    0    0  0.10173982375E+03  0.47133022987E+01 -0.40214168436E+03  0.49117756186E+03  0.26299098086E+03 0.  0.
         25    1    3    3    0    0 -0.10173982375E+03 -0.47133022987E+01 -0.96199144735E+02  0.18781637443E+03  0.12509000000E+03 0.  0.
         25    1    4    4    0    0  0.76778826057E+02  0.14488077421E+02 -0.16196779731E+03  0.21905699711E+03  0.12509000000E+03 0.  0.
         25    1    4    4    0    0  0.24960997691E+02 -0.97747751222E+01 -0.24017388705E+03  0.27212056474E+03  0.12509000000E+03 0.  0.
<mgrwt>
<rscale>  2 0.46118238E+03</rscale>
<asrwt>0</asrwt>
<pdfrwt beam="1">  1       21 0.13283317E-01 0.46118238E+03</pdfrwt>
<pdfrwt beam="2">  1       21 0.86568733E-01 0.46118238E+03</pdfrwt>
<totfact> 0.51503347E+04</totfact>
</mgrwt>
</event>
<event>
 7    0  0.4707675E-002  0.4504466E+03  0.7546771E-02  0.1027589E+00
         21   -1    0    0  502  501  0.00000000000E+00  0.00000000000E+00  0.14072798849E+03  0.14072798849E+03  0.00000000000E+00 0.  1.
         21   -1    0    0  501  502 -0.00000000000E+00 -0.00000000000E+00 -0.36045100538E+03  0.36045100538E+03  0.00000000000E+00 0.  1.
      99926    2    1    2    0    0  0.00000000000E+00  0.00000000000E+00 -0.21972301689E+03  0.50117899388E+03  0.45044664473E+03 0.  0.
      99925    2    3    3    0    0 -0.88488192632E+02 -0.39882060794E+02 -0.83736608432E+02  0.29246734975E+03  0.26287752294E+03 0.  0.
         25    1    3    3    0    0  0.88488192632E+02  0.39882060794E+02 -0.13598640846E+03  0.20871164413E+03  0.12509000000E+03 0.  0.
         25    1    4    4    0    0 -0.97684704212E+01  0.55409722041E+01 -0.36308275296E+02  0.13073608661E+03  0.12509000000E+03 0.  0.
         25    1    4    4    0    0 -0.78719722211E+02 -0.45423032998E+02 -0.47428333137E+02  0.16173126314E+03  0.12509000000E+03 0.  0.
<mgrwt>
<rscale>  2 0.45044664E+03</rscale>
<asrwt>0</asrwt>
<pdfrwt beam="1">  1       21 0.20695293E-01 0.45044664E+03</pdfrwt>
<pdfrwt beam="2">  1       21 0.53007500E-01 0.45044664E+03</pdfrwt>
<totfact> 0.67598224E+04</totfact>
</mgrwt>
</event>
<event>
 7    0  0.4707675E-002  0.4498529E+03  0.7546771E-02  0.1027766E+00
         21   -1    0    0  502  501  0.00000000000E+00  0.00000000000E+00  0.71004249878E+02  0.71004249878E+02  0.00000000000E+00 0.  1.
         21   -1    0    0  501  502 -0.00000000000E+00 -0.00000000000E+00 -0.71251937651E+03  0.71251937651E+03  0.00000000000E+00 0.  1.
      99926    2    1    2    0    0  0.71054273576E-14  0.00000000000E+00 -0.64151512664E+03  0.78352362639E+03  0.44985288197E+03 0.  0.
      99925    2    3    3    0    0 -0.54136221401E+02 -0.14132366550E+02 -0.24406163054E+03  0.36311044403E+03  0.26296893506E+03 0.  0.
         25    1    3    3    0    0  0.54136221401E+02  0.14132366550E+02 -0.39745349609E+03  0.42041318237E+03  0.12509000000E+03 0.  0.
         25    1    4    4    0    0 -0.59977723990E+02 -0.27891751776E+02 -0.11074339039E+03  0.17968551363E+03  0.12509000000E+03 0.  0.
         25    1    4    4    0    0  0.58415025888E+01  0.13759385226E+02 -0.13331824015E+03  0.18342493040E+03  0.12509000000E+03 0.  0.
<mgrwt>
<rscale>  2 0.44985288E+03</rscale>
<asrwt>0</asrwt>
<pdfrwt beam="1">  1       21 0.10441801E-01 0.44985288E+03</pdfrwt>
<pdfrwt beam="2">  1       21 0.10478226E+00 0.44985288E+03</pdfrwt>
<totfact> 0.50584976E+04</totfact>
</mgrwt>
</event>
<event>
 7    0  0.4707675E-002  0.4491097E+03  0.7546771E-02  0.1027988E+00
         21   -1    0    0  502  501  0.00000000000E+00  0.00000000000E+00  0.40623707594E+03  0.40623707594E+03  0.00000000000E+00 0.  1.
         21   -1    0    0  501  502 -0.00000000000E+00 -0.00000000000E+00 -0.12412675456E+03  0.12412675456E+03  0.00000000000E+00 0.  1.
      99926    2    1    2    0    0 -0.71054273576E-14  0.71054273576E-14  0.28211032138E+03  0.53036383051E+03  0.44910974080E+03 0.  0.
      99925    2    3    3    0    0  0.56413307382E+02 -0.49106367572E+02  0.26963190263E+03  0.38408630106E+03  0.26311029467E+03 0.  0.
         25    1    4    4    0    0  0.46720215490E+01 -0.48243957385E+02  0.16698865811E+03  0.21420090393E+03  0.12509000000E+03 0.  0.
         25    1    4    4    0    0  0.51741285833E+02 -0.86241018789E+00  0.10264324453E+03  0.16988539713E+03  0.12509000000E+03 0.  0.
         25    1    3    3    0    0 -0.56413307382E+02  0.49106367572E+02  0.12478418750E+02  0.14627752944E+03  0.12509000000E+03 0.  0.
<mgrwt>
<rscale>  2 0.44910974E+03</rscale>
<asrwt>0</asrwt>
<pdfrwt beam="1">  1       21 0.59740746E-01 0.44910974E+03</pdfrwt>
<pdfrwt beam="2">  1       21 0.18253935E-01 0.44910974E+03</pdfrwt>
<totfact> 0.66216873E+04</totfact>
</mgrwt>
</event>
<event>
 7    0  0.4707675E-002  0.4522805E+03  0.7546771E-02  0.1027044E+00
         21   -1    0    0  502  501  0.00000000000E+00  0.00000000000E+00  0.90190290104E+03  0.90190290104E+03  0.00000000000E+00 0. -1.
         21   -1    0    0  501  502 -0.00000000000E+00 -0.00000000000E+00 -0.56701678927E+02  0.56701678927E+02  0.00000000000E+00 0. -1.
      99926    2    1    2    0    0 -0.71054273576E-14  0.00000000000E+00  0.84520122212E+03  0.95860457997E+03  0.45228048253E+03 0.  0.
      99925    2    3    3    0    0  0.45215166282E+02 -0.17199050099E+02  0.74426993080E+03  0.79075091676E+03  0.26269576297E+03 0.  0.
         25    1    4    4    0    0  0.29526311949E+02  0.18150084109E+02  0.45648284013E+03  0.47457909782E+03  0.12509000000E+03 0.  0.
         25    1    4    4    0    0  0.15688854333E+02 -0.35349134208E+02  0.28778709067E+03  0.31617181894E+03  0.12509000000E+03 0.  0.
         25    1    3    3    0    0 -0.45215166282E+02  0.17199050099E+02  0.10093129132E+03  0.16785366321E+03  0.12509000000E+03 0.  0.
<mgrwt>
<rscale>  2 0.45228048E+03</rscale>
<asrwt>0</asrwt>
<pdfrwt beam="1">  1       21 0.13263277E+00 0.45228048E+03</pdfrwt>
<pdfrwt beam="2">  1       21 0.83384827E-02 0.45228048E+03</pdfrwt>
<totfact> 0.41673464E+04</totfact>
</mgrwt>
</event>
<event>
 7    0  0.4707675E-002  0.4440679E+03  0.7546771E-02  0.1029506E+00
         21   -1    0    0  502  501  0.00000000000E+00  0.00000000000E+00  0.11103364579E+03  0.11103364579E+03  0.00000000000E+00 0. -1.
         21   -1    0    0  501  502 -0.00000000000E+00 -0.00000000000E+00 -0.44400122440E+03  0.44400122440E+03  0.00000000000E+00 0. -1.
      99926    2    1    2    0    0 -0.88817841970E-15  0.00000000000E+00 -0.33296757861E+03  0.55503487018E+03  0.44406789877E+03 0.  0.
      99925    2    3    3    0    0 -0.50186609570E+01  0.65313951594E+02 -0.31037979614E+03  0.41203551617E+03  0.26295731499E+03 0.  0.
         25    1    4    4    0    0  0.26912900513E+02  0.41721187852E+02 -0.19712251945E+03  0.23868338339E+03  0.12509000000E+03 0.  0.
         25    1    4    4    0    0 -0.31931561470E+02  0.23592763742E+02 -0.11325727669E+03  0.17335213279E+03  0.12509000000E+03 0.  0.
         25    1    3    3    0    0  0.50186609570E+01 -0.65313951594E+02 -0.22587782470E+02  0.14299935401E+03  0.12509000000E+03 0.  0.
<mgrwt>
<rscale>  2 0.44406790E+03</rscale>
<asrwt>0</asrwt>
<pdfrwt beam="1">  1       21 0.16328477E-01 0.44406790E+03</pdfrwt>
<pdfrwt beam="2">  1       21 0.65294299E-01 0.44406790E+03</pdfrwt>
<totfact> 0.67157128E+04</totfact>
</mgrwt>
</event>
<event>
 7    0  0.4707675E-002  0.4531951E+03  0.7546771E-02  0.1026774E+00
         21   -1    0    0  502  501  0.00000000000E+00  0.00000000000E+00  0.76120599072E+02  0.76120599072E+02  0.00000000000E+00 0. -1.
         21   -1    0    0  501  502 -0.00000000000E+00 -0.00000000000E+00 -0.67454065467E+03  0.67454065467E+03  0.00000000000E+00 0. -1.
      99926    2    1    2    0    0 -0.71054273576E-14  0.00000000000E+00 -0.59842005560E+03  0.75066125374E+03  0.45319505175E+03 0.  0.
      99925    2    3    3    0    0  0.60398076518E+02 -0.53366633442E+02 -0.24998122652E+03  0.37177729931E+03  0.26311940533E+03 0.  0.
         25    1    4    4    0    0  0.69471450489E+02 -0.28226581149E+02 -0.15197213762E+03  0.21063252604E+03  0.12509000000E+03 0.  0.
         25    1    3    3    0    0 -0.60398076518E+02  0.53366633442E+02 -0.34843882908E+03  0.37888395443E+03  0.12509000000E+03 0.  0.
         25    1    4    4    0    0 -0.90733739712E+01 -0.25140052293E+02 -0.98009088902E+02  0.16114477327E+03  0.12509000000E+03 0.  0.
<mgrwt>
<rscale>  2 0.45319505E+03</rscale>
<asrwt>0</asrwt>
<pdfrwt beam="1">  1       21 0.11194206E-01 0.45319505E+03</pdfrwt>
<pdfrwt beam="2">  1       21 0.99197154E-01 0.45319505E+03</pdfrwt>
<totfact> 0.50956201E+04</totfact>
</mgrwt>
</event>
<event>
 7    0  0.4707675E-002  0.4737876E+03  0.7546771E-02  0.1020857E+00
         21   -1    0    0  502  501  0.00000000000E+00  0.00000000000E+00  0.11568026103E+03  0.11568026103E+03  0.00000000000E+00 0.  1.
         21   -1    0    0  501  502 -0.00000000000E+00 -0.00000000000E+00 -0.48511876539E+03  0.48511876539E+03  0.00000000000E+00 0.  1.
      99926    2    1    2    0    0  0.00000000000E+00 -0.35527136788E-14 -0.36943850436E+03  0.60079902642E+03  0.47378757016E+03 0.  0.
      99925    2    3    3    0    0 -0.23513592234E+02 -0.21839536024E+02 -0.38847063811E+03  0.47026326669E+03  0.26307460723E+03 0.  0.
         25    1    4    4    0    0 -0.52047156052E+02 -0.58052048961E+01 -0.20573518386E+03  0.24640836194E+03  0.12509000000E+03 0.  0.
         25    1    4    4    0    0  0.28533563818E+02 -0.16034331128E+02 -0.18273545425E+03  0.22385490475E+03  0.12509000000E+03 0.  0.
         25    1    3    3    0    0  0.23513592234E+02  0.21839536024E+02  0.19032133750E+02  0.13053575973E+03  0.12509000000E+03 0.  0.
<mgrwt>
<rscale>  2 0.47378757E+03</rscale>
<asrwt>0</asrwt>
<pdfrwt beam="1">  1       21 0.17011803E-01 0.47378757E+03</pdfrwt>
<pdfrwt beam="2">  1       21 0.71340994E-01 0.47378757E+03</pdfrwt>
<totfact> 0.50676337E+04</totfact>
</mgrwt>
</event>
<event>
 7    0  0.4707675E-002  0.4449556E+03  0.7546771E-02  0.1029237E+00
         21   -1    0    0  502  501  0.00000000000E+00  0.00000000000E+00  0.39513792048E+03  0.39513792048E+03  0.00000000000E+00 0. -1.
         21   -1    0    0  501  502 -0.00000000000E+00 -0.00000000000E+00 -0.12526351959E+03  0.12526351959E+03  0.00000000000E+00 0. -1.
      99926    2    1    2    0    0  0.00000000000E+00  0.00000000000E+00  0.26987440090E+03  0.52040144007E+03  0.44495557820E+03 0.  0.
      99925    2    3    3    0    0  0.27279017657E+02  0.95807935142E+02  0.20354332920E+03  0.34728118010E+03  0.26315589666E+03 0.  0.
         25    1    3    3    0    0 -0.27279017657E+02 -0.95807935142E+02  0.66331071693E+02  0.17312025997E+03  0.12509000000E+03 0.  0.
         25    1    4    4    0    0  0.80277385763E+01  0.80296945129E+01  0.72309472511E+02  0.14493132338E+03  0.12509000000E+03 0.  0.
         25    1    4    4    0    0  0.19251279080E+02  0.87778240629E+02  0.13123385669E+03  0.20234985672E+03  0.12509000000E+03 0.  0.
<mgrwt>
<rscale>  2 0.44495558E+03</rscale>
<asrwt>0</asrwt>
<pdfrwt beam="1">  1       21 0.58108517E-01 0.44495558E+03</pdfrwt>
<pdfrwt beam="2">  1       21 0.18421106E-01 0.44495558E+03</pdfrwt>
<totfact> 0.69207793E+04</totfact>
</mgrwt>
</event>
<event>
 7    0  0.4707675E-002  0.4502134E+03  0.7546771E-02  0.1027658E+00
         21   -1    0    0  502  501  0.00000000000E+00  0.00000000000E+00  0.25056333933E+03  0.25056333933E+03  0.00000000000E+00 0.  1.
         21   -1    0    0  501  502 -0.00000000000E+00 -0.00000000000E+00 -0.20223635078E+03  0.20223635078E+03  0.00000000000E+00 0.  1.
      99926    2    1    2    0    0 -0.71054273576E-14  0.14210854715E-13  0.48326988544E+02  0.45279969011E+03  0.45021335114E+03 0.  0.
      99925    2    3    3    0    0 -0.35021827495E+02  0.99161010459E+02  0.28353690979E+01  0.28316352081E+03  0.26289561769E+03 0.  0.
         25    1    4    4    0    0 -0.80736650042E+01  0.77288273486E+02  0.30609657524E+02  0.15040984183E+03  0.12509000000E+03 0.  0.
         25    1    3    3    0    0  0.35021827495E+02 -0.99161010459E+02  0.45491619446E+02  0.16963616930E+03  0.12509000000E+03 0.  0.
         25    1    4    4    0    0 -0.26948162491E+02  0.21872736973E+02 -0.27774288426E+02  0.13275367898E+03  0.12509000000E+03 0.  0.
<mgrwt>
<rscale>  2 0.45021335E+03</rscale>
<asrwt>0</asrwt>
<pdfrwt beam="1">  1       21 0.36847550E-01 0.45021335E+03</pdfrwt>
<pdfrwt beam="2">  1       21 0.29740640E-01 0.45021335E+03</pdfrwt>
<totfact> 0.71395134E+04</totfact>
</mgrwt>
</event>
<event>
 7    0  0.4707675E-002  0.4559943E+03  0.7546771E-02  0.1025949E+00
         21   -1    0    0  502  501  0.00000000000E+00  0.00000000000E+00  0.62343670023E+03  0.62343670023E+03  0.00000000000E+00 0.  1.
         21   -1    0    0  501  502 -0.00000000000E+00 -0.00000000000E+00 -0.83380871181E+02  0.83380871181E+02  0.00000000000E+00 0.  1.
      99926    2    1    2    0    0  0.14210854715E-13 -0.71054273576E-14  0.54005582905E+03  0.70681757141E+03  0.45599427712E+03 0.  0.
      99925    2    3    3    0    0 -0.99772926857E+02  0.54065951185E+02  0.32063294774E+03  0.42992106917E+03  0.26296173587E+03 0.  0.
         25    1    3    3    0    0  0.99772926857E+02 -0.54065951185E+02  0.21942288131E+03  0.27689650224E+03  0.12509000000E+03 0.  0.
         25    1    4    4    0    0 -0.44121726791E+02 -0.12770502940E+02  0.13371105288E+03  0.18877490904E+03  0.12509000000E+03 0.  0.
         25    1    4    4    0    0 -0.55651200066E+02  0.66836454125E+02  0.18692189486E+03  0.24114616013E+03  0.12509000000E+03 0.  0.
<mgrwt>
<rscale>  2 0.45599428E+03</rscale>
<asrwt>0</asrwt>
<pdfrwt beam="1">  1       21 0.91681865E-01 0.45599428E+03</pdfrwt>
<pdfrwt beam="2">  1       21 0.12261893E-01 0.45599428E+03</pdfrwt>
<totfact> 0.52125379E+04</totfact>
</mgrwt>
</event>
<event>
 7    0  0.4707675E-002  0.4576356E+03  0.7546771E-02  0.1025469E+00
         21   -1    0    0  502  501  0.00000000000E+00  0.00000000000E+00  0.20399997674E+03  0.20399997674E+03  0.00000000000E+00 0.  1.
         21   -1    0    0  501  502 -0.00000000000E+00 -0.00000000000E+00 -0.25665487251E+03  0.25665487251E+03  0.00000000000E+00 0.  1.
      99926    2    1    2    0    0  0.37747582837E-14  0.00000000000E+00 -0.52654895767E+02  0.46065484924E+03  0.45763561059E+03 0.  0.
      99925    2    3    3    0    0  0.98032098437E+00 -0.93260102078E+02  0.35789548502E+02  0.28129951620E+03  0.26296410090E+03 0.  0.
         25    1    4    4    0    0  0.40249658912E+02 -0.40753774467E+02  0.12325725025E+02  0.13813159223E+03  0.12509000000E+03 0.  0.
         25    1    3    3    0    0 -0.98032098437E+00  0.93260102078E+02 -0.88444444269E+02  0.17935533304E+03  0.12509000000E+03 0.  0.
         25    1    4    4    0    0 -0.39269337928E+02 -0.52506327611E+02  0.23463823477E+02  0.14316792397E+03  0.12509000000E+03 0.  0.
<mgrwt>
<rscale>  2 0.45763561E+03</rscale>
<asrwt>0</asrwt>
<pdfrwt beam="1">  1       21 0.29999997E-01 0.45763561E+03</pdfrwt>
<pdfrwt beam="2">  1       21 0.37743364E-01 0.45763561E+03</pdfrwt>
<totfact> 0.66719353E+04</totfact>
</mgrwt>
</event>
<event>
 7    0  0.4707675E-002  0.4536799E+03  0.7546771E-02  0.1026630E+00
         21   -1    0    0  502  501  0.00000000000E+00  0.00000000000E+00  0.96519808679E+02  0.96519808679E+02  0.00000000000E+00 0.  1.
         21   -1    0    0  501  502 -0.00000000000E+00 -0.00000000000E+00 -0.53311723652E+03  0.53311723652E+03  0.00000000000E+00 0.  1.
      99926    2    1    2    0    0  0.17763568394E-14  0.00000000000E+00 -0.43659742784E+03  0.62963704520E+03  0.45367994742E+03 0.  0.
      99925    2    3    3    0    0  0.11877888732E+02 -0.27906322470E+01 -0.12069059602E+03  0.28964659481E+03  0.26302102206E+03 0.  0.
         25    1    4    4    0    0  0.30990301214E+02  0.68074445143E+01 -0.94795823170E+02  0.16012650081E+03  0.12509000000E+03 0.  0.
         25    1    3    3    0    0 -0.11877888732E+02  0.27906322470E+01 -0.31590683182E+03  0.33999045039E+03  0.12509000000E+03 0.  0.
         25    1    4    4    0    0 -0.19112412481E+02 -0.95980767612E+01 -0.25894772853E+02  0.12952009400E+03  0.12509000000E+03 0.  0.
<mgrwt>
<rscale>  2 0.45367995E+03</rscale>
<asrwt>0</asrwt>
<pdfrwt beam="1">  1       21 0.14194089E-01 0.45367995E+03</pdfrwt>
<pdfrwt beam="2">  1       21 0.78399595E-01 0.45367995E+03</pdfrwt>
<totfact> 0.57486834E+04</totfact>
</mgrwt>
</event>
<event>
 7    0  0.4707675E-002  0.4616393E+03  0.7546771E-02  0.1024307E+00
         21   -1    0    0  502  501  0.00000000000E+00  0.00000000000E+00  0.10564266834E+04  0.10564266834E+04  0.00000000000E+00 0. -1.
         21   -1    0    0  501  502 -0.00000000000E+00 -0.00000000000E+00 -0.50431992017E+02  0.50431992017E+02  0.00000000000E+00 0. -1.
      99926    2    1    2    0    0  0.14210854715E-13  0.00000000000E+00  0.10059946914E+04  0.11068586754E+04  0.46163926203E+03 0.  0.
      99925    2    3    3    0    0 -0.78502428497E+02  0.56327120468E+02  0.46160788695E+03  0.53999019268E+03  0.26300606669E+03 0.  0.
         25    1    3    3    0    0  0.78502428497E+02 -0.56327120468E+02  0.54438680440E+03  0.56686848271E+03  0.12509000000E+03 0.  0.
         25    1    4    4    0    0 -0.80849305995E+02  0.32843670219E+02  0.23767307216E+03  0.28240275190E+03  0.12509000000E+03 0.  0.
         25    1    4    4    0    0  0.23468774981E+01  0.23483450249E+02  0.22393481480E+03  0.25758744078E+03  0.12509000000E+03 0.  0.
<mgrwt>
<rscale>  2 0.46163926E+03</rscale>
<asrwt>0</asrwt>
<pdfrwt beam="1">  1       21 0.15535685E+00 0.46163926E+03</pdfrwt>
<pdfrwt beam="2">  1       21 0.74164700E-02 0.46163926E+03</pdfrwt>
<totfact> 0.33488175E+04</totfact>
</mgrwt>
</event>
<event>
 7    0  0.4707675E-002  0.4493058E+03  0.7546771E-02  0.1027929E+00
         21   -1    0    0  502  501  0.00000000000E+00  0.00000000000E+00  0.98950194356E+02  0.98950194356E+02  0.00000000000E+00 0. -1.
         21   -1    0    0  501  502 -0.00000000000E+00 -0.00000000000E+00 -0.51004368860E+03  0.51004368860E+03  0.00000000000E+00 0. -1.
      99926    2    1    2    0    0  0.00000000000E+00 -0.17763568394E-14 -0.41109349425E+03  0.60899388296E+03  0.44930578504E+03 0.  0.
      99925    2    3    3    0    0 -0.84590249668E+02  0.73974421279E+01 -0.17021895179E+03  0.32460280400E+03  0.26302520093E+03 0.  0.
         25    1    4    4    0    0 -0.69439830081E+02 -0.27391321936E+02 -0.88870974215E+02  0.17063918857E+03  0.12509000000E+03 0.  0.
         25    1    3    3    0    0  0.84590249668E+02 -0.73974421279E+01 -0.24087454246E+03  0.28439107896E+03  0.12509000000E+03 0.  0.
         25    1    4    4    0    0 -0.15150419588E+02  0.34788764064E+02 -0.81347977575E+02  0.15396361542E+03  0.12509000000E+03 0.  0.
<mgrwt>
<rscale>  2 0.44930579E+03</rscale>
<asrwt>0</asrwt>
<pdfrwt beam="1">  1       21 0.14551499E-01 0.44930579E+03</pdfrwt>
<pdfrwt beam="2">  1       21 0.75006425E-01 0.44930579E+03</pdfrwt>
<totfact> 0.60817712E+04</totfact>
</mgrwt>
</event>
<event>
 7    0  0.4707675E-002  0.4586437E+03  0.7546771E-02  0.1025175E+00
         21   -1    0    0  502  501  0.00000000000E+00  0.00000000000E+00  0.19931671245E+03  0.19931671245E+03  0.00000000000E+00 0.  1.
         21   -1    0    0  501  502 -0.00000000000E+00 -0.00000000000E+00 -0.26384399169E+03  0.26384399169E+03  0.00000000000E+00 0.  1.
      99926    2    1    2    0    0  0.00000000000E+00  0.14210854715E-13 -0.64527279245E+02  0.46316070414E+03  0.45864372676E+03 0.  0.
      99925    2    3    3    0    0  0.82153536452E+01  0.11290094686E+03 -0.12518613981E+02  0.28662026911E+03  0.26302157161E+03 0.  0.
         25    1    4    4    0    0  0.13826438816E+02  0.15888589918E+02  0.68808445317E+01  0.12703728516E+03  0.12509000000E+03 0.  0.
         25    1    4    4    0    0 -0.56110851708E+01  0.97012356940E+02 -0.19399458513E+02  0.15958298395E+03  0.12509000000E+03 0.  0.
         25    1    3    3    0    0 -0.82153536452E+01 -0.11290094686E+03 -0.52008665264E+02  0.17654043503E+03  0.12509000000E+03 0.  0.
<mgrwt>
<rscale>  2 0.45864373E+03</rscale>
<asrwt>0</asrwt>
<pdfrwt beam="1">  1       21 0.29311281E-01 0.45864373E+03</pdfrwt>
<pdfrwt beam="2">  1       21 0.38800587E-01 0.45864373E+03</pdfrwt>
<totfact> 0.66011730E+04</totfact>
</mgrwt>
</event>
<event>
 7    0  0.4707675E-002  0.4460724E+03  0.7546771E-02  0.1028900E+00
         21   -1    0    0  502  501  0.00000000000E+00  0.00000000000E+00  0.14467532495E+03  0.14467532495E+03  0.00000000000E+00 0. -1.
         21   -1    0    0  501  502 -0.00000000000E+00 -0.00000000000E+00 -0.34383988808E+03  0.34383988808E+03  0.00000000000E+00 0. -1.
      99926    2    1    2    0    0  0.00000000000E+00  0.00000000000E+00 -0.19916456314E+03  0.48851521303E+03  0.44607240461E+03 0.  0.
      99925    2    3    3    0    0 -0.33002270122E+01 -0.67233330043E+02 -0.21395898105E+03  0.34569506365E+03  0.26305022200E+03 0.  0.
         25    1    4    4    0    0 -0.40762977122E+02 -0.23120603442E+02 -0.11037849173E+03  0.17328330024E+03  0.12509000000E+03 0.  0.
         25    1    3    3    0    0  0.33002270122E+01  0.67233330043E+02  0.14794417910E+02  0.14282014938E+03  0.12509000000E+03 0.  0.
         25    1    4    4    0    0  0.37462750109E+02 -0.44112726601E+02 -0.10358048932E+03  0.17241176341E+03  0.12509000000E+03 0.  0.
<mgrwt>
<rscale>  2 0.44607240E+03</rscale>
<asrwt>0</asrwt>
<pdfrwt beam="1">  1       21 0.21275783E-01 0.44607240E+03</pdfrwt>
<pdfrwt beam="2">  1       21 0.50564689E-01 0.44607240E+03</pdfrwt>
<totfact> 0.70984291E+04</totfact>
</mgrwt>
</event>
<event>
 7    0  0.4707675E-002  0.3916593E+03  0.7546771E-02  0.1046707E+00
         21   -1    0    0  502  501  0.00000000000E+00  0.00000000000E+00  0.14542240085E+02  0.14542240085E+02  0.00000000000E+00 0. -1.
         21   -1    0    0  501  502 -0.00000000000E+00 -0.00000000000E+00 -0.26370932333E+04  0.26370932333E+04  0.00000000000E+00 0. -1.
      99926    2    1    2    0    0  0.00000000000E+00  0.00000000000E+00 -0.26225509932E+04  0.26516354734E+04  0.39165925458E+03 0.  0.
      99925    2    3    3    0    0  0.48732604148E+01  0.16434877441E+02 -0.16471702293E+04  0.16681167920E+04  0.26296390187E+03 0.  0.
         25    1    3    3    0    0 -0.48732604148E+01 -0.16434877441E+02 -0.97538076391E+03  0.98351868135E+03  0.12509000000E+03 0.  0.
         25    1    4    4    0    0 -0.21074936124E+02  0.85153093479E+01 -0.10297118454E+04  0.10375310386E+04  0.12509000000E+03 0.  0.
         25    1    4    4    0    0  0.25948196538E+02  0.79195680927E+01 -0.61745838395E+03  0.63058575347E+03  0.12509000000E+03 0.  0.
<mgrwt>
<rscale>  2 0.39165925E+03</rscale>
<asrwt>0</asrwt>
<pdfrwt beam="1">  1       21 0.21385637E-02 0.39165925E+03</pdfrwt>
<pdfrwt beam="2">  1       21 0.38780802E+00 0.39165925E+03</pdfrwt>
<totfact> 0.96574919E+03</totfact>
</mgrwt>
</event>
<event>
 7    0  0.4707675E-002  0.4518283E+03  0.7546771E-02  0.1027178E+00
         21   -1    0    0  502  501  0.00000000000E+00  0.00000000000E+00  0.25373114458E+03  0.25373114458E+03  0.00000000000E+00 0. -1.
         21   -1    0    0  501  502 -0.00000000000E+00 -0.00000000000E+00 -0.20114675629E+03  0.20114675629E+03  0.00000000000E+00 0. -1.
      99926    2    1    2    0    0  0.00000000000E+00 -0.71054273576E-14  0.52584388293E+02  0.45487790087E+03  0.45182827137E+03 0.  0.
      99925    2    3    3    0    0  0.65531354376E+02  0.44684886259E+02 -0.43701860272E+02  0.27821537732E+03  0.26306433836E+03 0.  0.
         25    1    3    3    0    0 -0.65531354376E+02 -0.44684886259E+02  0.96286248565E+02  0.17666252356E+03  0.12509000000E+03 0.  0.
         25    1    4    4    0    0  0.49923974781E+02  0.29471054981E+02 -0.59690896359E+02  0.15023800301E+03  0.12509000000E+03 0.  0.
         25    1    4    4    0    0  0.15607379595E+02  0.15213831278E+02  0.15989036086E+02  0.12797737431E+03  0.12509000000E+03 0.  0.
<mgrwt>
<rscale>  2 0.45182827E+03</rscale>
<asrwt>0</asrwt>
<pdfrwt beam="1">  1       21 0.37313403E-01 0.45182827E+03</pdfrwt>
<pdfrwt beam="2">  1       21 0.29580405E-01 0.45182827E+03</pdfrwt>
<totfact> 0.70317275E+04</totfact>
</mgrwt>
</event>
<event>
 7    0  0.4707675E-002  0.4514899E+03  0.7546771E-02  0.1027279E+00
         21   -1    0    0  502  501  0.00000000000E+00  0.00000000000E+00  0.87153080116E+03  0.87153080116E+03  0.00000000000E+00 0. -1.
         21   -1    0    0  501  502 -0.00000000000E+00 -0.00000000000E+00 -0.58472734220E+02  0.58472734220E+02  0.00000000000E+00 0. -1.
      99926    2    1    2    0    0 -0.33306690739E-14  0.00000000000E+00  0.81305806694E+03  0.93000353538E+03  0.45148992857E+03 0.  0.
      99925    2    3    3    0    0  0.10714952054E+01  0.37495539308E+02  0.30002779971E+03  0.40061272816E+03  0.26280565785E+03 0.  0.
         25    1    3    3    0    0 -0.10714952054E+01 -0.37495539308E+02  0.51303026723E+03  0.52939080722E+03  0.12509000000E+03 0.  0.
         25    1    4    4    0    0 -0.16278041750E+02 -0.76667193446E+01  0.18428916673E+03  0.22345862772E+03  0.12509000000E+03 0.  0.
         25    1    4    4    0    0  0.17349536955E+02  0.45162258653E+02  0.11573863297E+03  0.17715410044E+03  0.12509000000E+03 0.  0.
<mgrwt>
<rscale>  2 0.45148993E+03</rscale>
<asrwt>0</asrwt>
<pdfrwt beam="1">  1       21 0.12816629E+00 0.45148993E+03</pdfrwt>
<pdfrwt beam="2">  1       21 0.85989320E-02 0.45148993E+03</pdfrwt>
<totfact> 0.43133393E+04</totfact>
</mgrwt>
</event>
<event>
 7    0  0.4707675E-002  0.4302705E+03  0.7546771E-02  0.1033775E+00
         21   -1    0    0  502  501  0.00000000000E+00  0.00000000000E+00  0.10148012693E+03  0.10148012693E+03  0.00000000000E+00 0.  1.
         21   -1    0    0  501  502 -0.00000000000E+00 -0.00000000000E+00 -0.45608115033E+03  0.45608115033E+03  0.00000000000E+00 0.  1.
      99926    2    1    2    0    0  0.32196467714E-14  0.00000000000E+00 -0.35460102340E+03  0.55756127726E+03  0.43027048714E+03 0.  0.
      99925    2    3    3    0    0 -0.48977395569E+00  0.27791166759E+02 -0.33662914383E+03  0.42816620245E+03  0.26312454773E+03 0.  0.
         25    1    4    4    0    0 -0.21278110359E+02  0.43707036679E+02 -0.14250676648E+03  0.19575175511E+03  0.12509000000E+03 0.  0.
         25    1    3    3    0    0  0.48977395569E+00 -0.27791166759E+02 -0.17971879568E+02  0.12939507480E+03  0.12509000000E+03 0.  0.
         25    1    4    4    0    0  0.20788336403E+02 -0.15915869921E+02 -0.19412237735E+03  0.23241444735E+03  0.12509000000E+03 0.  0.
<mgrwt>
<rscale>  2 0.43027049E+03</rscale>
<asrwt>0</asrwt>
<pdfrwt beam="1">  1       21 0.14923548E-01 0.43027049E+03</pdfrwt>
<pdfrwt beam="2">  1       21 0.67070758E-01 0.43027049E+03</pdfrwt>
<totfact> 0.74998500E+04</totfact>
</mgrwt>
</event>
<event>
 7    0  0.4707675E-002  0.4564776E+03  0.7546771E-02  0.1025808E+00
         21   -1    0    0  502  501  0.00000000000E+00  0.00000000000E+00  0.22036141430E+04  0.22036141430E+04  0.00000000000E+00 0. -1.
         21   -1    0    0  501  502 -0.00000000000E+00 -0.00000000000E+00 -0.23639780876E+02  0.23639780876E+02  0.00000000000E+00 0. -1.
      99926    2    1    2    0    0  0.00000000000E+00  0.00000000000E+00  0.21799743621E+04  0.22272539239E+04  0.45647762475E+03 0.  0.
      99925    2    3    3    0    0 -0.61925922182E+02  0.48323713847E+02  0.17768047536E+04  0.17978785142E+04  0.26298672586E+03 0.  0.
         25    1    4    4    0    0 -0.30856163078E+02  0.19461244214E+02  0.61910721132E+03  0.63267060152E+03  0.12509000000E+03 0.  0.
         25    1    4    4    0    0 -0.31069759105E+02  0.28862469633E+02  0.11576975423E+04  0.11652079126E+04  0.12509000000E+03 0.  0.
         25    1    3    3    0    0  0.61925922182E+02 -0.48323713847E+02  0.40316960847E+03  0.42937540970E+03  0.12509000000E+03 0.  0.
<mgrwt>
<rscale>  2 0.45647762E+03</rscale>
<asrwt>0</asrwt>
<pdfrwt beam="1">  1       21 0.32406076E+00 0.45647762E+03</pdfrwt>
<pdfrwt beam="2">  1       21 0.34764399E-02 0.45647762E+03</pdfrwt>
<totfact> 0.10223883E+04</totfact>
</mgrwt>
</event>
<event>
 7    0  0.4707675E-002  0.4496742E+03  0.7546771E-02  0.1027819E+00
         21   -1    0    0  502  501  0.00000000000E+00  0.00000000000E+00  0.37535246696E+02  0.37535246696E+02  0.00000000000E+00 0.  1.
         21   -1    0    0  501  502 -0.00000000000E+00 -0.00000000000E+00 -0.13467801900E+04  0.13467801900E+04  0.00000000000E+00 0.  1.
      99926    2    1    2    0    0  0.88817841970E-15 -0.14210854715E-13 -0.13092449433E+04  0.13843154367E+04  0.44967422287E+03 0.  0.
      99925    2    3    3    0    0 -0.66549140208E+01  0.10218295770E+03 -0.93395118221E+03  0.97568533509E+03  0.26308062953E+03 0.  0.
         25    1    4    4    0    0 -0.56442475718E+01  0.94494095914E+02 -0.50587302762E+03  0.52963763071E+03  0.12509000000E+03 0.  0.
         25    1    3    3    0    0  0.66549140208E+01 -0.10218295770E+03 -0.37529376110E+03  0.40863010162E+03  0.12509000000E+03 0.  0.
         25    1    4    4    0    0 -0.10106664490E+01  0.76888617825E+01 -0.42807815459E+03  0.44604770438E+03  0.12509000000E+03 0.  0.
<mgrwt>
<rscale>  2 0.44967422E+03</rscale>
<asrwt>0</asrwt>
<pdfrwt beam="1">  1       21 0.55198905E-02 0.44967422E+03</pdfrwt>
<pdfrwt beam="2">  1       21 0.19805586E+00 0.44967422E+03</pdfrwt>
<totfact> 0.27889634E+04</totfact>
</mgrwt>
</event>
<event>
 7    0  0.4707675E-002  0.4028223E+03  0.7546771E-02  0.1042807E+00
         21   -1    0    0  502  501  0.00000000000E+00  0.00000000000E+00  0.13615388303E+03  0.13615388303E+03  0.00000000000E+00 0. -1.
         21   -1    0    0  501  502 -0.00000000000E+00 -0.00000000000E+00 -0.29794556946E+03  0.29794556946E+03  0.00000000000E+00 0. -1.
      99926    2    1    2    0    0  0.00000000000E+00  0.00000000000E+00 -0.16179168643E+03  0.43409945248E+03  0.40282227452E+03 0.  0.
      99925    2    3    3    0    0 -0.47508203553E+02  0.59553756497E+01 -0.12531886763E+03  0.29528205258E+03  0.26304785893E+03 0.  0.
         25    1    3    3    0    0  0.47508203553E+02 -0.59553756497E+01 -0.36472818798E+02  0.13881739990E+03  0.12509000000E+03 0.  0.
         25    1    4    4    0    0 -0.20058677103E+02  0.85606148930E+01 -0.10667531758E+03  0.16583957952E+03  0.12509000000E+03 0.  0.
         25    1    4    4    0    0 -0.27449526450E+02 -0.26052392434E+01 -0.18643550052E+02  0.12944247306E+03  0.12509000000E+03 0.  0.
<mgrwt>
<rscale>  2 0.40282227E+03</rscale>
<asrwt>0</asrwt>
<pdfrwt beam="1">  1       21 0.20022630E-01 0.40282227E+03</pdfrwt>
<pdfrwt beam="2">  1       21 0.43815525E-01 0.40282227E+03</pdfrwt>
<totfact> 0.10870546E+05</totfact>
</mgrwt>
</event>
<event>
 7    0  0.4707675E-002  0.4570269E+03  0.7546771E-02  0.1025647E+00
         21   -1    0    0  502  501  0.00000000000E+00  0.00000000000E+00  0.51430673736E+03  0.51430673736E+03  0.00000000000E+00 0. -1.
         21   -1    0    0  501  502 -0.00000000000E+00 -0.00000000000E+00 -0.10153164337E+03  0.10153164337E+03  0.00000000000E+00 0. -1.
      99926    2    1    2    0    0  0.00000000000E+00  0.00000000000E+00  0.41277509399E+03  0.61583838072E+03  0.45702694992E+03 0.  0.
      99925    2    3    3    0    0 -0.11465741835E+03 -0.27450280383E+01  0.24771152209E+03  0.37909516619E+03  0.26305567489E+03 0.  0.
         25    1    4    4    0    0 -0.16824118199E+02 -0.32828757754E+01  0.13157268750E+03  0.18235325174E+03  0.12509000000E+03 0.  0.
         25    1    3    3    0    0  0.11465741835E+03  0.27450280383E+01  0.16506357190E+03  0.23674321453E+03  0.12509000000E+03 0.  0.
         25    1    4    4    0    0 -0.97833300150E+02  0.53784773705E+00  0.11613883460E+03  0.19674191445E+03  0.12509000000E+03 0.  0.
<mgrwt>
<rscale>  2 0.45702695E+03</rscale>
<asrwt>0</asrwt>
<pdfrwt beam="1">  1       21 0.75633343E-01 0.45702695E+03</pdfrwt>
<pdfrwt beam="2">  1       21 0.14931124E-01 0.45702695E+03</pdfrwt>
<totfact> 0.56799095E+04</totfact>
</mgrwt>
</event>
<event>
 7    0  0.4707675E-002  0.4533163E+03  0.7546771E-02  0.1026738E+00
         21   -1    0    0  502  501  0.00000000000E+00  0.00000000000E+00  0.17341486795E+03  0.17341486795E+03  0.00000000000E+00 0. -1.
         21   -1    0    0  501  502 -0.00000000000E+00 -0.00000000000E+00 -0.29624865553E+03  0.29624865553E+03  0.00000000000E+00 0. -1.
      99926    2    1    2    0    0  0.00000000000E+00 -0.71054273576E-14 -0.12283378757E+03  0.46966352348E+03  0.45331631994E+03 0.  0.
      99925    2    3    3    0    0  0.39159722883E+02 -0.59541169446E+02 -0.16664708501E+03  0.31917848141E+03  0.26272612603E+03 0.  0.
         25    1    4    4    0    0  0.33117497186E+02 -0.60518231396E+02 -0.61003569985E+02  0.15533244543E+03  0.12509000000E+03 0.  0.
         25    1    4    4    0    0  0.60422256969E+01  0.97706194988E+00 -0.10564351502E+03  0.16384603598E+03  0.12509000000E+03 0.  0.
         25    1    3    3    0    0 -0.39159722883E+02  0.59541169446E+02  0.43813297435E+02  0.15048504207E+03  0.12509000000E+03 0.  0.
<mgrwt>
<rscale>  2 0.45331632E+03</rscale>
<asrwt>0</asrwt>
<pdfrwt beam="1">  1       21 0.25502187E-01 0.45331632E+03</pdfrwt>
<pdfrwt beam="2">  1       21 0.43565979E-01 0.45331632E+03</pdfrwt>
<totfact> 0.68369413E+04</totfact>
</mgrwt>
</event>
<event>
 7    0  0.4707675E-002  0.4619502E+03  0.7546771E-02  0.1024217E+00
         21   -1    0    0  502  501  0.00000000000E+00  0.00000000000E+00  0.44247647761E+02  0.44247647761E+02  0.00000000000E+00 0.  1.
         21   -1    0    0  501  502 -0.00000000000E+00 -0.00000000000E+00 -0.12057026644E+04  0.12057026644E+04  0.00000000000E+00 0.  1.
      99926    2    1    2    0    0  0.35527136788E-14  0.00000000000E+00 -0.11614550166E+04  0.12499503122E+04  0.46195024320E+03 0.  0.
      99925    2    3    3    0    0 -0.17789634894E+02 -0.11673876763E+03 -0.77687799058E+03  0.82865302039E+03  0.26302472314E+03 0.  0.
         25    1    4    4    0    0  0.99907784786E+01 -0.64319541168E+02 -0.49370908753E+03  0.51345203305E+03  0.12509000000E+03 0.  0.
         25    1    4    4    0    0 -0.27780413372E+02 -0.52419226458E+02 -0.28316890304E+03  0.31520098734E+03  0.12509000000E+03 0.  0.
         25    1    3    3    0    0  0.17789634894E+02  0.11673876763E+03 -0.38457702605E+03  0.42129729176E+03  0.12509000000E+03 0.  0.
<mgrwt>
<rscale>  2 0.46195024E+03</rscale>
<asrwt>0</asrwt>
<pdfrwt beam="1">  1       21 0.65070075E-02 0.46195024E+03</pdfrwt>
<pdfrwt beam="2">  1       21 0.17730920E+00 0.46195024E+03</pdfrwt>
<totfact> 0.29002385E+04</totfact>
</mgrwt>
</event>
<event>
 7    0  0.4707675E-002  0.4346582E+03  0.7546771E-02  0.1032399E+00
         21   -1    0    0  502  501  0.00000000000E+00  0.00000000000E+00  0.13155895150E+03  0.13155895150E+03  0.00000000000E+00 0. -1.
         21   -1    0    0  501  502 -0.00000000000E+00 -0.00000000000E+00 -0.35901721244E+03  0.35901721244E+03  0.00000000000E+00 0. -1.
      99926    2    1    2    0    0  0.71054273576E-14  0.00000000000E+00 -0.22745826095E+03  0.49057616394E+03  0.43465815551E+03 0.  0.
      99925    2    3    3    0    0  0.48268814491E+02  0.63423752949E+02 -0.19990376340E+03  0.33971460712E+03  0.26285366420E+03 0.  0.
         25    1    4    4    0    0  0.66354147771E+01  0.30844159174E+02 -0.14266069654E+03  0.19234077394E+03  0.12509000000E+03 0.  0.
         25    1    3    3    0    0 -0.48268814491E+02 -0.63423752949E+02 -0.27554497550E+02  0.15086155682E+03  0.12509000000E+03 0.  0.
         25    1    4    4    0    0  0.41633399713E+02  0.32579593774E+02 -0.57243066859E+02  0.14737383318E+03  0.12509000000E+03 0.  0.
<mgrwt>
<rscale>  2 0.43465816E+03</rscale>
<asrwt>0</asrwt>
<pdfrwt beam="1">  1       21 0.19346905E-01 0.43465816E+03</pdfrwt>
<pdfrwt beam="2">  1       21 0.52796648E-01 0.43465816E+03</pdfrwt>
<totfact> 0.77754271E+04</totfact>
</mgrwt>
</event>
<event>
 7    0  0.4707675E-002  0.4236189E+03  0.7546771E-02  0.1035895E+00
         21   -1    0    0  502  501  0.00000000000E+00  0.00000000000E+00  0.11675450127E+03  0.11675450127E+03  0.00000000000E+00 0.  1.
         21   -1    0    0  501  502 -0.00000000000E+00 -0.00000000000E+00 -0.38425284741E+03  0.38425284741E+03  0.00000000000E+00 0.  1.
      99926    2    1    2    0    0 -0.71054273576E-14  0.00000000000E+00 -0.26749834613E+03  0.50100734868E+03  0.42361893046E+03 0.  0.
      99925    2    3    3    0    0 -0.59503974521E+02 -0.32327409287E+02 -0.12260700723E+03  0.29796352936E+03  0.26299049837E+03 0.  0.
         25    1    3    3    0    0  0.59503974521E+02  0.32327409287E+02 -0.14489133891E+03  0.20304381932E+03  0.12509000000E+03 0.  0.
         25    1    4    4    0    0 -0.48128498512E+02  0.65687056343E+01 -0.31045773869E+02  0.13773470310E+03  0.12509000000E+03 0.  0.
         25    1    4    4    0    0 -0.11375476009E+02 -0.38896114921E+02 -0.91561233359E+02  0.16022882626E+03  0.12509000000E+03 0.  0.
<mgrwt>
<rscale>  2 0.42361893E+03</rscale>
<asrwt>0</asrwt>
<pdfrwt beam="1">  1       21 0.17169780E-01 0.42361893E+03</pdfrwt>
<pdfrwt beam="2">  1       21 0.56507771E-01 0.42361893E+03</pdfrwt>
<totfact> 0.84306633E+04</totfact>
</mgrwt>
</event>
<event>
 7    0  0.4707675E-002  0.4468383E+03  0.7546771E-02  0.1028669E+00
         21   -1    0    0  502  501  0.00000000000E+00  0.00000000000E+00  0.31153025031E+03  0.31153025031E+03  0.00000000000E+00 0.  1.
         21   -1    0    0  501  502 -0.00000000000E+00 -0.00000000000E+00 -0.16022877086E+03  0.16022877086E+03  0.00000000000E+00 0.  1.
      99926    2    1    2    0    0  0.00000000000E+00  0.35527136788E-14  0.15130147945E+03  0.47175902117E+03  0.44683826646E+03 0.  0.
      99925    2    3    3    0    0  0.74524082488E+02  0.25267645484E+02  0.21825178675E+02  0.27528023519E+03  0.26288890559E+03 0.  0.
         25    1    4    4    0    0  0.54760528683E+02  0.39081689694E+02  0.37568436238E+02  0.14691830884E+03  0.12509000000E+03 0.  0.
         25    1    3    3    0    0 -0.74524082488E+02 -0.25267645484E+02  0.12947630078E+03  0.19647878599E+03  0.12509000000E+03 0.  0.
         25    1    4    4    0    0  0.19763553805E+02 -0.13814044209E+02 -0.15743257563E+02  0.12836192635E+03  0.12509000000E+03 0.  0.
<mgrwt>
<rscale>  2 0.44683827E+03</rscale>
<asrwt>0</asrwt>
<pdfrwt beam="1">  1       21 0.45813272E-01 0.44683827E+03</pdfrwt>
<pdfrwt beam="2">  1       21 0.23563054E-01 0.44683827E+03</pdfrwt>
<totfact> 0.71847348E+04</totfact>
</mgrwt>
</event>
<event>
 7    0  0.4707675E-002  0.4427098E+03  0.7546771E-02  0.1029919E+00
         21   -1    0    0  502  501  0.00000000000E+00  0.00000000000E+00  0.88824290154E+03  0.88824290154E+03  0.00000000000E+00 0.  1.
         21   -1    0    0  501  502 -0.00000000000E+00 -0.00000000000E+00 -0.55162818136E+02  0.55162818136E+02  0.00000000000E+00 0.  1.
      99926    2    1    2    0    0  0.00000000000E+00  0.00000000000E+00  0.83308008341E+03  0.94340571968E+03  0.44270975430E+03 0.  0.
      99925    2    3    3    0    0 -0.98475417930E+02  0.22661448347E+02  0.52284349896E+03  0.59397018113E+03  0.26310511679E+03 0.  0.
         25    1    3    3    0    0  0.98475417930E+02 -0.22661448347E+02  0.31023658444E+03  0.34943553855E+03  0.12509000000E+03 0.  0.
         25    1    4    4    0    0 -0.37043808624E+02  0.44277007393E+02  0.30198144664E+03  0.33192318291E+03  0.12509000000E+03 0.  0.
         25    1    4    4    0    0 -0.61431609306E+02 -0.21615559046E+02  0.22086205232E+03  0.26204699821E+03  0.12509000000E+03 0.  0.
<mgrwt>
<rscale>  2 0.44270975E+03</rscale>
<asrwt>0</asrwt>
<pdfrwt beam="1">  1       21 0.13062395E+00 0.44270975E+03</pdfrwt>
<pdfrwt beam="2">  1       21 0.81121797E-02 0.44270975E+03</pdfrwt>
<totfact> 0.45640205E+04</totfact>
</mgrwt>
</event>
<event>
 7    0  0.4707675E-002  0.4528132E+03  0.7546771E-02  0.1026886E+00
         21   -1    0    0  502  501  0.00000000000E+00  0.00000000000E+00  0.18822807471E+03  0.18822807471E+03  0.00000000000E+00 0. -1.
         21   -1    0    0  501  502 -0.00000000000E+00 -0.00000000000E+00 -0.27232896609E+03  0.27232896609E+03  0.00000000000E+00 0. -1.
      99926    2    1    2    0    0  0.71054273576E-14  0.14210854715E-13 -0.84100891384E+02  0.46055704080E+03  0.45281323732E+03 0.  0.
      99925    2    3    3    0    0  0.59086561729E+02  0.71070718577E+02  0.93479810958E+01  0.27911154296E+03  0.26319878390E+03 0.  0.
         25    1    4    4    0    0  0.53596213289E+02  0.71433450833E+02  0.76967033276E+01  0.15388969855E+03  0.12509000000E+03 0.  0.
         25    1    3    3    0    0 -0.59086561729E+02 -0.71070718577E+02 -0.93448872480E+02  0.18144549783E+03  0.12509000000E+03 0.  0.
         25    1    4    4    0    0  0.54903484401E+01 -0.36273225590E+00  0.16512777682E+01  0.12522184442E+03  0.12509000000E+03 0.  0.
<mgrwt>
<rscale>  2 0.45281324E+03</rscale>
<asrwt>0</asrwt>
<pdfrwt beam="1">  1       21 0.27680599E-01 0.45281324E+03</pdfrwt>
<pdfrwt beam="2">  1       21 0.40048377E-01 0.45281324E+03</pdfrwt>
<totfact> 0.69338750E+04</totfact>
</mgrwt>
</event>
<event>
 7    0  0.4707675E-002  0.4505660E+03  0.7546771E-02  0.1027553E+00
         21   -1    0    0  502  501  0.00000000000E+00  0.00000000000E+00  0.40837723244E+03  0.40837723244E+03  0.00000000000E+00 0.  1.
         21   -1    0    0  501  502 -0.00000000000E+00 -0.00000000000E+00 -0.12427829171E+03  0.12427829171E+03  0.00000000000E+00 0.  1.
      99926    2    1    2    0    0  0.00000000000E+00  0.00000000000E+00  0.28409894073E+03  0.53265552415E+03  0.45056597662E+03 0.  0.
      99925    2    3    3    0    0  0.81186012954E+01 -0.59936277727E+02  0.72402846487E+02  0.27943425038E+03  0.26302672684E+03 0.  0.
         25    1    4    4    0    0 -0.17727410967E+02 -0.15514576880E+02  0.67570254221E+02  0.14411179879E+03  0.12509000000E+03 0.  0.
         25    1    3    3    0    0 -0.81186012954E+01  0.59936277727E+02  0.21169609424E+03  0.25322127377E+03  0.12509000000E+03 0.  0.
         25    1    4    4    0    0  0.25846012263E+02 -0.44421700846E+02  0.48325922661E+01  0.13532245159E+03  0.12509000000E+03 0.  0.
<mgrwt>
<rscale>  2 0.45056598E+03</rscale>
<asrwt>0</asrwt>
<pdfrwt beam="1">  1       21 0.60055475E-01 0.45056598E+03</pdfrwt>
<pdfrwt beam="2">  1       21 0.18276219E-01 0.45056598E+03</pdfrwt>
<totfact> 0.65288838E+04</totfact>
</mgrwt>
</event>
<event>
 7    0  0.4707675E-002  0.4544785E+03  0.7546771E-02  0.1026395E+00
         21   -1    0    0  502  501  0.00000000000E+00  0.00000000000E+00  0.51232824399E+03  0.51232824399E+03  0.00000000000E+00 0. -1.
         21   -1    0    0  501  502 -0.00000000000E+00 -0.00000000000E+00 -0.10079020405E+03  0.10079020405E+03  0.00000000000E+00 0. -1.
      99926    2    1    2    0    0  0.00000000000E+00  0.00000000000E+00  0.41153803994E+03  0.61311844804E+03  0.45447846265E+03 0.  0.
      99925    2    3    3    0    0 -0.86071957752E+02 -0.65930504260E+02  0.21766547102E+03  0.35818846867E+03  0.26299336210E+03 0.  0.
         25    1    4    4    0    0 -0.76047007234E+02 -0.48840295930E+02  0.91448593427E+02  0.17938471271E+03  0.12509000000E+03 0.  0.
         25    1    4    4    0    0 -0.10024950518E+02 -0.17090208330E+02  0.12621687759E+03  0.17880375595E+03  0.12509000000E+03 0.  0.
         25    1    3    3    0    0  0.86071957752E+02  0.65930504260E+02  0.19387256892E+03  0.25492997937E+03  0.12509000000E+03 0.  0.
<mgrwt>
<rscale>  2 0.45447846E+03</rscale>
<asrwt>0</asrwt>
<pdfrwt beam="1">  1       21 0.75342388E-01 0.45447846E+03</pdfrwt>
<pdfrwt beam="2">  1       21 0.14822089E-01 0.45447846E+03</pdfrwt>
<totfact> 0.58117000E+04</totfact>
</mgrwt>
</event>
<event>
 7    0  0.4707675E-002  0.4476953E+03  0.7546771E-02  0.1028412E+00
         21   -1    0    0  502  501  0.00000000000E+00  0.00000000000E+00  0.10636635169E+03  0.10636635169E+03  0.00000000000E+00 0.  1.
         21   -1    0    0  501  502 -0.00000000000E+00 -0.00000000000E+00 -0.47108661819E+03  0.47108661819E+03  0.00000000000E+00 0.  1.
      99926    2    1    2    0    0 -0.14210854715E-13  0.71054273576E-14 -0.36472026651E+03  0.57745296988E+03  0.44769527541E+03 0.  0.
      99925    2    3    3    0    0 -0.68841794052E+02  0.57630320426E+02 -0.30421527633E+03  0.41201776088E+03  0.26296626112E+03 0.  0.
         25    1    3    3    0    0  0.68841794052E+02 -0.57630320426E+02 -0.60504990172E+02  0.16543520900E+03  0.12509000000E+03 0.  0.
         25    1    4    4    0    0 -0.10271972409E+02  0.59419320786E+02 -0.13621955463E+03  0.19452363420E+03  0.12509000000E+03 0.  0.
         25    1    4    4    0    0 -0.58569821643E+02 -0.17890003601E+01 -0.16799572170E+03  0.21749412668E+03  0.12509000000E+03 0.  0.
<mgrwt>
<rscale>  2 0.44769528E+03</rscale>
<asrwt>0</asrwt>
<pdfrwt beam="1">  1       21 0.15642111E-01 0.44769528E+03</pdfrwt>
<pdfrwt beam="2">  1       21 0.69277443E-01 0.44769528E+03</pdfrwt>
<totfact> 0.63687129E+04</totfact>
</mgrwt>
</event>
<event>
 7    0  0.4707675E-002  0.4616901E+03  0.7546771E-02  0.1024292E+00
         21   -1    0    0  502  501  0.00000000000E+00  0.00000000000E+00  0.20038731917E+03  0.20038731917E+03  0.00000000000E+00 0.  1.
         21   -1    0    0  501  502 -0.00000000000E+00 -0.00000000000E+00 -0.26593222225E+03  0.26593222225E+03  0.00000000000E+00 0.  1.
      99926    2    1    2    0    0 -0.71054273576E-14  0.35527136788E-14 -0.65544903080E+02  0.46631954142E+03  0.46169013460E+03 0.  0.
      99925    2    3    3    0    0  0.42907506112E+02  0.27195744671E+02  0.68066402093E+02  0.27637178129E+03  0.26299745966E+03 0.  0.
         25    1    3    3    0    0 -0.42907506112E+02 -0.27195744671E+02 -0.13361130517E+03  0.18994776013E+03  0.12509000000E+03 0.  0.
         25    1    4    4    0    0  0.22456678618E+01  0.38691798754E+02  0.60123712537E+02  0.14409881063E+03  0.12509000000E+03 0.  0.
         25    1    4    4    0    0  0.40661838250E+02 -0.11496054083E+02  0.79426895554E+01  0.13227297066E+03  0.12509000000E+03 0.  0.
<mgrwt>
<rscale>  2 0.46169013E+03</rscale>
<asrwt>0</asrwt>
<pdfrwt beam="1">  1       21 0.29468723E-01 0.46169013E+03</pdfrwt>
<pdfrwt beam="2">  1       21 0.39107680E-01 0.46169013E+03</pdfrwt>
<totfact> 0.64226806E+04</totfact>
</mgrwt>
</event>
<event>
 7    0  0.4707675E-002  0.4453153E+03  0.7546771E-02  0.1029128E+00
         21   -1    0    0  502  501  0.00000000000E+00  0.00000000000E+00  0.24211827753E+03  0.24211827753E+03  0.00000000000E+00 0. -1.
         21   -1    0    0  501  502 -0.00000000000E+00 -0.00000000000E+00 -0.20476121570E+03  0.20476121570E+03  0.00000000000E+00 0. -1.
      99926    2    1    2    0    0  0.00000000000E+00  0.00000000000E+00  0.37357061830E+02  0.44687949323E+03  0.44531531683E+03 0.  0.
      99925    2    3    3    0    0  0.68939419202E+02  0.62640234218E+02 -0.21878633835E+02  0.28004778700E+03  0.26319507200E+03 0.  0.
         25    1    4    4    0    0  0.21925356232E+02  0.15993156154E+02 -0.46882028299E+02  0.13631557126E+03  0.12509000000E+03 0.  0.
         25    1    4    4    0    0  0.47014062970E+02  0.46647078064E+02  0.25003394464E+02  0.14373221575E+03  0.12509000000E+03 0.  0.
         25    1    3    3    0    0 -0.68939419202E+02 -0.62640234218E+02  0.59235695664E+02  0.16683170623E+03  0.12509000000E+03 0.  0.
<mgrwt>
<rscale>  2 0.44531532E+03</rscale>
<asrwt>0</asrwt>
<pdfrwt beam="1">  1       21 0.35605629E-01 0.44531532E+03</pdfrwt>
<pdfrwt beam="2">  1       21 0.30111943E-01 0.44531532E+03</pdfrwt>
<totfact> 0.74756509E+04</totfact>
</mgrwt>
</event>
<event>
 7    0  0.4707675E-002  0.4506254E+03  0.7546771E-02  0.1027536E+00
         21   -1    0    0  502  501  0.00000000000E+00  0.00000000000E+00  0.11572579584E+03  0.11572579584E+03  0.00000000000E+00 0.  1.
         21   -1    0    0  501  502 -0.00000000000E+00 -0.00000000000E+00 -0.43867325831E+03  0.43867325831E+03  0.00000000000E+00 0.  1.
      99926    2    1    2    0    0  0.00000000000E+00  0.00000000000E+00 -0.32294746248E+03  0.55439905415E+03  0.45062539623E+03 0.  0.
      99925    2    3    3    0    0 -0.29743145577E+02  0.95337124282E+02 -0.15022688064E+03  0.31891289858E+03  0.26298954207E+03 0.  0.
         25    1    3    3    0    0  0.29743145577E+02 -0.95337124282E+02 -0.17272058184E+03  0.23548615557E+03  0.12509000000E+03 0.  0.
         25    1    4    4    0    0 -0.27822682829E+02  0.87983936701E+01 -0.80375215114E+02  0.15152292472E+03  0.12509000000E+03 0.  0.
         25    1    4    4    0    0 -0.19204627485E+01  0.86538730612E+02 -0.69851665524E+02  0.16738997386E+03  0.12509000000E+03 0.  0.
<mgrwt>
<rscale>  2 0.45062540E+03</rscale>
<asrwt>0</asrwt>
<pdfrwt beam="1">  1       21 0.17018499E-01 0.45062540E+03</pdfrwt>
<pdfrwt beam="2">  1       21 0.64510774E-01 0.45062540E+03</pdfrwt>
<totfact> 0.63754645E+04</totfact>
</mgrwt>
</event>
<event>
 7    0  0.4707675E-002  0.4265470E+03  0.7546771E-02  0.1034956E+00
         21   -1    0    0  502  501  0.00000000000E+00  0.00000000000E+00  0.19774955381E+03  0.19774955381E+03  0.00000000000E+00 0.  1.
         21   -1    0    0  501  502 -0.00000000000E+00 -0.00000000000E+00 -0.23001616257E+03  0.23001616257E+03  0.00000000000E+00 0.  1.
      99926    2    1    2    0    0  0.00000000000E+00  0.00000000000E+00 -0.32266608766E+02  0.42776571638E+03  0.42654703617E+03 0.  0.
      99925    2    3    3    0    0 -0.25099970882E+01 -0.32863163999E+02  0.56405993887E+02  0.27093260063E+03  0.26293830133E+03 0.  0.
         25    1    4    4    0    0 -0.15567002629E+01 -0.27195972548E+01 -0.11109109223E+02  0.12562141510E+03  0.12509000000E+03 0.  0.
         25    1    3    3    0    0  0.25099970882E+01  0.32863163999E+02 -0.88672602653E+02  0.15683311575E+03  0.12509000000E+03 0.  0.
         25    1    4    4    0    0 -0.95329682526E+00 -0.30143566744E+02  0.67515103111E+02  0.14531118553E+03  0.12509000000E+03 0.  0.
<mgrwt>
<rscale>  2 0.42654704E+03</rscale>
<asrwt>0</asrwt>
<pdfrwt beam="1">  1       21 0.29080817E-01 0.42654704E+03</pdfrwt>
<pdfrwt beam="2">  1       21 0.33825906E-01 0.42654704E+03</pdfrwt>
<totfact> 0.89178715E+04</totfact>
</mgrwt>
</event>
<event>
 7    0  0.4707675E-002  0.4602012E+03  0.7546771E-02  0.1024723E+00
         21   -1    0    0  502  501  0.00000000000E+00  0.00000000000E+00  0.31713291052E+02  0.31713291052E+02  0.00000000000E+00 0. -1.
         21   -1    0    0  501  502 -0.00000000000E+00 -0.00000000000E+00 -0.16695297043E+04  0.16695297043E+04  0.00000000000E+00 0. -1.
      99926    2    1    2    0    0  0.00000000000E+00 -0.35527136788E-14 -0.16378164133E+04  0.17012429954E+04  0.46020117963E+03 0.  0.
      99925    2    3    3    0    0  0.91429371170E+02  0.28842165911E+02 -0.12795514091E+04  0.13098448327E+04  0.26315485313E+03 0.  0.
         25    1    4    4    0    0  0.24055854756E+02  0.28630415611E+02 -0.46438933889E+03  0.48239335715E+03  0.12509000000E+03 0.  0.
         25    1    3    3    0    0 -0.91429371170E+02 -0.28842165911E+02 -0.35826500418E+03  0.39139816270E+03  0.12509000000E+03 0.  0.
         25    1    4    4    0    0  0.67373516413E+02  0.21175030009E+00 -0.81516207022E+03  0.82745147554E+03  0.12509000000E+03 0.  0.
<mgrwt>
<rscale>  2 0.46020118E+03</rscale>
<asrwt>0</asrwt>
<pdfrwt beam="1">  1       21 0.46637194E-02 0.46020118E+03</pdfrwt>
<pdfrwt beam="2">  1       21 0.24551907E+00 0.46020118E+03</pdfrwt>
<totfact> 0.18478282E+04</totfact>
</mgrwt>
</event>
<event>
 7    0  0.4707675E-002  0.4410232E+03  0.7546771E-02  0.1030433E+00
         21   -1    0    0  502  501  0.00000000000E+00  0.00000000000E+00  0.42044986073E+03  0.42044986073E+03  0.00000000000E+00 0.  1.
         21   -1    0    0  501  502 -0.00000000000E+00 -0.00000000000E+00 -0.11565083276E+03  0.11565083276E+03  0.00000000000E+00 0.  1.
      99926    2    1    2    0    0  0.00000000000E+00  0.00000000000E+00  0.30479902797E+03  0.53610069349E+03  0.44102324894E+03 0.  0.
      99925    2    3    3    0    0 -0.83401815846E+02 -0.18964124213E+02  0.25581014787E+03  0.37684329377E+03  0.26316636451E+03 0.  0.
         25    1    4    4    0    0 -0.69292255458E+02 -0.17021351738E+02  0.17752310681E+03  0.22858937996E+03  0.12509000000E+03 0.  0.
         25    1    4    4    0    0 -0.14109560389E+02 -0.19427724753E+01  0.78287041064E+02  0.14825391380E+03  0.12509000000E+03 0.  0.
         25    1    3    3    0    0  0.83401815846E+02  0.18964124213E+02  0.48988880097E+02  0.15925739972E+03  0.12509000000E+03 0.  0.
<mgrwt>
<rscale>  2 0.44102325E+03</rscale>
<asrwt>0</asrwt>
<pdfrwt beam="1">  1       21 0.61830862E-01 0.44102325E+03</pdfrwt>
<pdfrwt beam="2">  1       21 0.17007475E-01 0.44102325E+03</pdfrwt>
<totfact> 0.70248791E+04</totfact>
</mgrwt>
</event>
<event>
 7    0  0.4707675E-002  0.4563925E+03  0.7546771E-02  0.1025833E+00
         21   -1    0    0  502  501  0.00000000000E+00  0.00000000000E+00  0.12753466109E+04  0.12753466109E+04  0.00000000000E+00 0. -1.
         21   -1    0    0  501  502 -0.00000000000E+00 -0.00000000000E+00 -0.40830889580E+02  0.40830889580E+02  0.00000000000E+00 0. -1.
      99926    2    1    2    0    0  0.44408920985E-15  0.00000000000E+00  0.12345157213E+04  0.13161775004E+04  0.45639253563E+03 0.  0.
      99925    2    3    3    0    0 -0.27692222713E+01  0.48320655521E+02  0.10751718906E+04  0.11078975955E+04  0.26286866180E+03 0.  0.
         25    1    4    4    0    0 -0.13741958705E+02  0.58242548517E+02  0.64073276216E+03  0.65556618010E+03  0.12509000000E+03 0.  0.
         25    1    3    3    0    0  0.27692222713E+01 -0.48320655521E+02  0.15934383070E+03  0.20827990499E+03  0.12509000000E+03 0.  0.
         25    1    4    4    0    0  0.10972736433E+02 -0.99218929959E+01  0.43443912844E+03  0.45233141536E+03  0.12509000000E+03 0.  0.
<mgrwt>
<rscale>  2 0.45639254E+03</rscale>
<asrwt>0</asrwt>
<pdfrwt beam="1">  1       21 0.18755095E+00 0.45639254E+03</pdfrwt>
<pdfrwt beam="2">  1       21 0.60045434E-02 0.45639254E+03</pdfrwt>
<totfact> 0.28340336E+04</totfact>
</mgrwt>
</event>
<event>
 7    0  0.4707675E-002  0.4830174E+03  0.7546771E-02  0.1018309E+00
         21   -1    0    0  502  501  0.00000000000E+00  0.00000000000E+00  0.49487540339E+03  0.49487540339E+03  0.00000000000E+00 0. -1.
         21   -1    0    0  501  502 -0.00000000000E+00 -0.00000000000E+00 -0.11786090203E+03  0.11786090203E+03  0.00000000000E+00 0. -1.
      99926    2    1    2    0    0  0.00000000000E+00  0.14210854715E-13  0.37701450136E+03  0.61273630541E+03  0.48301743834E+03 0.  0.
      99925    2    3    3    0    0 -0.80776423467E+02  0.10540290479E+03  0.18487518984E+03  0.34778418510E+03  0.26294562301E+03 0.  0.
         25    1    4    4    0    0 -0.19651475536E+02  0.75984820268E+02  0.12471326633E+03  0.19328936934E+03  0.12509000000E+03 0.  0.
         25    1    4    4    0    0 -0.61124947930E+02  0.29418084527E+02  0.60161923518E+02  0.15449481576E+03  0.12509000000E+03 0.  0.
         25    1    3    3    0    0  0.80776423467E+02 -0.10540290479E+03  0.19213931152E+03  0.26495212031E+03  0.12509000000E+03 0.  0.
<mgrwt>
<rscale>  2 0.48301744E+03</rscale>
<asrwt>0</asrwt>
<pdfrwt beam="1">  1       21 0.72775794E-01 0.48301744E+03</pdfrwt>
<pdfrwt beam="2">  1       21 0.17332486E-01 0.48301744E+03</pdfrwt>
<totfact> 0.46679461E+04</totfact>
</mgrwt>
</event>
<event>
 7    0  0.4707675E-002  0.5069701E+03  0.7546771E-02  0.1011975E+00
         21   -1    0    0  502  501  0.00000000000E+00  0.00000000000E+00  0.28612678858E+03  0.28612678858E+03  0.00000000000E+00 0.  1.
         21   -1    0    0  501  502 -0.00000000000E+00 -0.00000000000E+00 -0.22456710155E+03  0.22456710155E+03  0.00000000000E+00 0.  1.
      99926    2    1    2    0    0  0.35527136788E-14  0.00000000000E+00  0.61559687032E+02  0.51069389013E+03  0.50697007244E+03 0.  0.
      99925    2    3    3    0    0 -0.16623620753E+02  0.14678638544E+03  0.90608938192E+02  0.31495438259E+03  0.26298991561E+03 0.  0.
         25    1    4    4    0    0 -0.20706244251E+02  0.75635288433E+02  0.55611825971E+01  0.14774261491E+03  0.12509000000E+03 0.  0.
         25    1    4    4    0    0  0.40826234986E+01  0.71151097009E+02  0.85047755595E+02  0.16721176768E+03  0.12509000000E+03 0.  0.
         25    1    3    3    0    0  0.16623620753E+02 -0.14678638544E+03 -0.29049251160E+02  0.19573950754E+03  0.12509000000E+03 0.  0.
<mgrwt>
<rscale>  2 0.50697007E+03</rscale>
<asrwt>0</asrwt>
<pdfrwt beam="1">  1       21 0.42077469E-01 0.50697007E+03</pdfrwt>
<pdfrwt beam="2">  1       21 0.33024574E-01 0.50697007E+03</pdfrwt>
<totfact> 0.43569315E+04</totfact>
</mgrwt>
</event>
<event>
 7    0  0.4707675E-002  0.4563661E+03  0.7546771E-02  0.1025840E+00
         21   -1    0    0  502  501  0.00000000000E+00  0.00000000000E+00  0.62606246691E+03  0.62606246691E+03  0.00000000000E+00 0. -1.
         21   -1    0    0  501  502 -0.00000000000E+00 -0.00000000000E+00 -0.83166617741E+02  0.83166617741E+02  0.00000000000E+00 0. -1.
      99926    2    1    2    0    0  0.00000000000E+00  0.00000000000E+00  0.54289584917E+03  0.70922908466E+03  0.45636607178E+03 0.  0.
      99925    2    3    3    0    0  0.81732629977E+02  0.68569750377E+02  0.40513305370E+03  0.49473402787E+03  0.26314812114E+03 0.  0.
         25    1    4    4    0    0  0.66630736362E+02  0.63487262533E+02  0.25612702175E+03  0.29953104498E+03  0.12509000000E+03 0.  0.
         25    1    4    4    0    0  0.15101893615E+02  0.50824878436E+01  0.14900603195E+03  0.19520298289E+03  0.12509000000E+03 0.  0.
         25    1    3    3    0    0 -0.81732629977E+02 -0.68569750377E+02  0.13776279547E+03  0.21449505679E+03  0.12509000000E+03 0.  0.
<mgrwt>
<rscale>  2 0.45636607E+03</rscale>
<asrwt>0</asrwt>
<pdfrwt beam="1">  1       21 0.92068008E-01 0.45636607E+03</pdfrwt>
<pdfrwt beam="2">  1       21 0.12230385E-01 0.45636607E+03</pdfrwt>
<totfact> 0.51845262E+04</totfact>
</mgrwt>
</event>
<event>
 7    0  0.4707675E-002  0.4512200E+03  0.7546771E-02  0.1027359E+00
         21   -1    0    0  502  501  0.00000000000E+00  0.00000000000E+00  0.59486943012E+02  0.59486943012E+02  0.00000000000E+00 0. -1.
         21   -1    0    0  501  502 -0.00000000000E+00 -0.00000000000E+00 -0.85564762043E+03  0.85564762043E+03  0.00000000000E+00 0. -1.
      99926    2    1    2    0    0  0.71054273576E-14  0.00000000000E+00 -0.79616067742E+03  0.91513456344E+03  0.45121995184E+03 0.  0.
      99925    2    3    3    0    0  0.40415891083E+02  0.92859859152E+02 -0.41757024560E+03  0.50375320648E+03  0.26295624224E+03 0.  0.
         25    1    4    4    0    0  0.46780864860E+01  0.81181704163E+02 -0.25211315296E+03  0.29295204997E+03  0.12509000000E+03 0.  0.
         25    1    4    4    0    0  0.35737804597E+02  0.11678154989E+02 -0.16545709264E+03  0.21080115651E+03  0.12509000000E+03 0.  0.
         25    1    3    3    0    0 -0.40415891083E+02 -0.92859859152E+02 -0.37859043182E+03  0.41138135697E+03  0.12509000000E+03 0.  0.
<mgrwt>
<rscale>  2 0.45121995E+03</rscale>
<asrwt>0</asrwt>
<pdfrwt beam="1">  1       21 0.87480806E-02 0.45121995E+03</pdfrwt>
<pdfrwt beam="2">  1       21 0.12583052E+00 0.45121995E+03</pdfrwt>
<totfact> 0.43868841E+04</totfact>
</mgrwt>
</event>
<event>
 7    0  0.4707675E-002  0.4580005E+03  0.7546771E-02  0.1025363E+00
         21   -1    0    0  502  501  0.00000000000E+00  0.00000000000E+00  0.40541668518E+03  0.40541668518E+03  0.00000000000E+00 0.  1.
         21   -1    0    0  501  502 -0.00000000000E+00 -0.00000000000E+00 -0.12935114370E+03  0.12935114370E+03  0.00000000000E+00 0.  1.
      99926    2    1    2    0    0  0.00000000000E+00 -0.71054273576E-14  0.27606554148E+03  0.53476782888E+03  0.45800048866E+03 0.  0.
      99925    2    3    3    0    0  0.10678044745E+03  0.39037472093E+02  0.14647381451E+03  0.32177132190E+03  0.26297569674E+03 0.  0.
         25    1    4    4    0    0  0.19377092777E+02  0.18009654395E+02  0.95247826711E+02  0.15943486435E+03  0.12509000000E+03 0.  0.
         25    1    3    3    0    0 -0.10678044745E+03 -0.39037472093E+02  0.12959172697E+03  0.21299650698E+03  0.12509000000E+03 0.  0.
         25    1    4    4    0    0  0.87403354676E+02  0.21027817699E+02  0.51225987797E+02  0.16233645756E+03  0.12509000000E+03 0.  0.
<mgrwt>
<rscale>  2 0.45800049E+03</rscale>
<asrwt>0</asrwt>
<pdfrwt beam="1">  1       21 0.59620100E-01 0.45800049E+03</pdfrwt>
<pdfrwt beam="2">  1       21 0.19022227E-01 0.45800049E+03</pdfrwt>
<totfact> 0.61411478E+04</totfact>
</mgrwt>
</event>
<event>
 7    0  0.4707675E-002  0.4541752E+03  0.7546771E-02  0.1026484E+00
         21   -1    0    0  502  501  0.00000000000E+00  0.00000000000E+00  0.82817021715E+02  0.82817021715E+02  0.00000000000E+00 0.  1.
         21   -1    0    0  501  502 -0.00000000000E+00 -0.00000000000E+00 -0.62268319736E+03  0.62268319736E+03  0.00000000000E+00 0.  1.
      99926    2    1    2    0    0 -0.88817841970E-15  0.00000000000E+00 -0.53986617564E+03  0.70550021907E+03  0.45417515510E+03 0.  0.
      99925    2    3    3    0    0 -0.51868815978E+01  0.66468401969E+02 -0.19954234173E+03  0.33683672450E+03  0.26305299966E+03 0.  0.
         25    1    4    4    0    0  0.37303113352E+02  0.37014520167E+02 -0.10828351080E+03  0.17359269506E+03  0.12509000000E+03 0.  0.
         25    1    3    3    0    0  0.51868815978E+01 -0.66468401969E+02 -0.34032383391E+03  0.36866349457E+03  0.12509000000E+03 0.  0.
         25    1    4    4    0    0 -0.42489994949E+02  0.29453881802E+02 -0.91258830937E+02  0.16324402944E+03  0.12509000000E+03 0.  0.
<mgrwt>
<rscale>  2 0.45417516E+03</rscale>
<asrwt>0</asrwt>
<pdfrwt beam="1">  1       21 0.12178974E-01 0.45417516E+03</pdfrwt>
<pdfrwt beam="2">  1       21 0.91571054E-01 0.45417516E+03</pdfrwt>
<totfact> 0.52948165E+04</totfact>
</mgrwt>
</event>
<event>
 7    0  0.4707675E-002  0.4705335E+03  0.7546771E-02  0.1021770E+00
         21   -1    0    0  502  501  0.00000000000E+00  0.00000000000E+00  0.37999419249E+02  0.37999419249E+02  0.00000000000E+00 0. -1.
         21   -1    0    0  501  502 -0.00000000000E+00 -0.00000000000E+00 -0.14566129429E+04  0.14566129429E+04  0.00000000000E+00 0. -1.
      99926    2    1    2    0    0 -0.14210854715E-13  0.00000000000E+00 -0.14186135236E+04  0.14946123621E+04  0.47053350954E+03 0.  0.
      99925    2    3    3    0    0 -0.10544158886E+03 -0.40255368195E+02 -0.10677270788E+04  0.11053730674E+04  0.26281187167E+03 0.  0.
         25    1    4    4    0    0 -0.44790848801E+02 -0.45667871993E+02 -0.42009044838E+03  0.44296192566E+03  0.12509000000E+03 0.  0.
         25    1    4    4    0    0 -0.60650740058E+02  0.54125037985E+01 -0.64763663047E+03  0.66241114173E+03  0.12509000000E+03 0.  0.
         25    1    3    3    0    0  0.10544158886E+03  0.40255368195E+02 -0.35088644477E+03  0.38923929472E+03  0.12509000000E+03 0.  0.
<mgrwt>
<rscale>  2 0.47053351E+03</rscale>
<asrwt>0</asrwt>
<pdfrwt beam="1">  1       21 0.55881501E-02 0.47053351E+03</pdfrwt>
<pdfrwt beam="2">  1       21 0.21420778E+00 0.47053351E+03</pdfrwt>
<totfact> 0.21231908E+04</totfact>
</mgrwt>
</event>
<event>
 7    0  0.4707675E-002  0.4527136E+03  0.7546771E-02  0.1026916E+00
         21   -1    0    0  502  501  0.00000000000E+00  0.00000000000E+00  0.10381675318E+03  0.10381675318E+03  0.00000000000E+00 0.  1.
         21   -1    0    0  501  502 -0.00000000000E+00 -0.00000000000E+00 -0.49353683350E+03  0.49353683350E+03  0.00000000000E+00 0.  1.
      99926    2    1    2    0    0  0.00000000000E+00  0.00000000000E+00 -0.38972008032E+03  0.59735358668E+03  0.45271355901E+03 0.  0.
      99925    2    3    3    0    0 -0.36087984835E+02 -0.10002202797E+03 -0.20375047537E+03  0.34928313137E+03  0.26301654115E+03 0.  0.
         25    1    3    3    0    0  0.36087984835E+02  0.10002202797E+03 -0.18596960496E+03  0.24807045531E+03  0.12509000000E+03 0.  0.
         25    1    4    4    0    0 -0.91891073846E+01 -0.84055619204E+01 -0.10201352234E+03  0.16189305114E+03  0.12509000000E+03 0.  0.
         25    1    4    4    0    0 -0.26898877450E+02 -0.91616466052E+02 -0.10173695302E+03  0.18739008023E+03  0.12509000000E+03 0.  0.
<mgrwt>
<rscale>  2 0.45271356E+03</rscale>
<asrwt>0</asrwt>
<pdfrwt beam="1">  1       21 0.15267170E-01 0.45271356E+03</pdfrwt>
<pdfrwt beam="2">  1       21 0.72578946E-01 0.45271356E+03</pdfrwt>
<totfact> 0.59916653E+04</totfact>
</mgrwt>
</event>
<event>
 7    0  0.4707675E-002  0.4444869E+03  0.7546771E-02  0.1029379E+00
         21   -1    0    0  502  501  0.00000000000E+00  0.00000000000E+00  0.15445898667E+03  0.15445898667E+03  0.00000000000E+00 0. -1.
         21   -1    0    0  501  502 -0.00000000000E+00 -0.00000000000E+00 -0.31977513938E+03  0.31977513938E+03  0.00000000000E+00 0. -1.
      99926    2    1    2    0    0 -0.88817841970E-15  0.00000000000E+00 -0.16531615271E+03  0.47423412605E+03  0.44448686816E+03 0.  0.
      99925    2    3    3    0    0  0.45390913357E+01  0.97761277753E+02 -0.13910120305E+03  0.31326020747E+03  0.26306832214E+03 0.  0.
         25    1    4    4    0    0 -0.97830306503E+01  0.31887742837E+02 -0.10609129629E+03  0.16737803643E+03  0.12509000000E+03 0.  0.
         25    1    4    4    0    0  0.14322121986E+02  0.65873534917E+02 -0.33009906760E+02  0.14588217103E+03  0.12509000000E+03 0.  0.
         25    1    3    3    0    0 -0.45390913357E+01 -0.97761277753E+02 -0.26214949656E+02  0.16097391858E+03  0.12509000000E+03 0.  0.
<mgrwt>
<rscale>  2 0.44448687E+03</rscale>
<asrwt>0</asrwt>
<pdfrwt beam="1">  1       21 0.22714557E-01 0.44448687E+03</pdfrwt>
<pdfrwt beam="2">  1       21 0.47025755E-01 0.44448687E+03</pdfrwt>
<totfact> 0.73028680E+04</totfact>
</mgrwt>
</event>
<event>
 7    0  0.4707675E-002  0.4687013E+03  0.7546771E-02  0.1022287E+00
         21   -1    0    0  502  501  0.00000000000E+00  0.00000000000E+00  0.34173354051E+03  0.34173354051E+03  0.00000000000E+00 0.  1.
         21   -1    0    0  501  502 -0.00000000000E+00 -0.00000000000E+00 -0.16071069760E+03  0.16071069760E+03  0.00000000000E+00 0.  1.
      99926    2    1    2    0    0 -0.17763568394E-14  0.26645352591E-14  0.18102284291E+03  0.50244423811E+03  0.46870133642E+03 0.  0.
      99925    2    3    3    0    0  0.80109645424E+01  0.59262778299E+01 -0.21671345138E+02  0.26405015620E+03  0.26297060952E+03 0.  0.
         25    1    4    4    0    0  0.24456904466E+02 -0.31181398131E+02 -0.18384951220E+02  0.13249880866E+03  0.12509000000E+03 0.  0.
         25    1    4    4    0    0 -0.16445939923E+02  0.37107675961E+02 -0.32863939176E+01  0.13155134754E+03  0.12509000000E+03 0.  0.
         25    1    3    3    0    0 -0.80109645424E+01 -0.59262778299E+01  0.20269418804E+03  0.23839408191E+03  0.12509000000E+03 0.  0.
<mgrwt>
<rscale>  2 0.46870134E+03</rscale>
<asrwt>0</asrwt>
<pdfrwt beam="1">  1       21 0.50254932E-01 0.46870134E+03</pdfrwt>
<pdfrwt beam="2">  1       21 0.23633926E-01 0.46870134E+03</pdfrwt>
<totfact> 0.58475515E+04</totfact>
</mgrwt>
</event>
<event>
 7    0  0.4707675E-002  0.4560537E+03  0.7546771E-02  0.1025932E+00
         21   -1    0    0  502  501  0.00000000000E+00  0.00000000000E+00  0.87524054940E+03  0.87524054940E+03  0.00000000000E+00 0.  1.
         21   -1    0    0  501  502 -0.00000000000E+00 -0.00000000000E+00 -0.59407949090E+02  0.59407949090E+02  0.00000000000E+00 0.  1.
      99926    2    1    2    0    0  0.14210854715E-13  0.35527136788E-14  0.81583260031E+03  0.93464849849E+03  0.45605370736E+03 0.  0.
      99925    2    3    3    0    0  0.10091660406E+03  0.28543849171E+02  0.42060748753E+03  0.50703967003E+03  0.26302025801E+03 0.  0.
         25    1    4    4    0    0  0.11562408271E+02  0.69550355895E+01  0.15790622264E+03  0.20190082975E+03  0.12509000000E+03 0.  0.
         25    1    3    3    0    0 -0.10091660406E+03 -0.28543849171E+02  0.39522511279E+03  0.42760882846E+03  0.12509000000E+03 0.  0.
         25    1    4    4    0    0  0.89354195786E+02  0.21588813582E+02  0.26270126489E+03  0.30513884028E+03  0.12509000000E+03 0.  0.
<mgrwt>
<rscale>  2 0.45605371E+03</rscale>
<asrwt>0</asrwt>
<pdfrwt beam="1">  1       21 0.12871184E+00 0.45605371E+03</pdfrwt>
<pdfrwt beam="2">  1       21 0.87364636E-02 0.45605371E+03</pdfrwt>
<totfact> 0.41426317E+04</totfact>
</mgrwt>
</event>
<event>
 7    0  0.4707675E-002  0.4300138E+03  0.7546771E-02  0.1033856E+00
         21   -1    0    0  502  501  0.00000000000E+00  0.00000000000E+00  0.21051889345E+03  0.21051889345E+03  0.00000000000E+00 0. -1.
         21   -1    0    0  501  502 -0.00000000000E+00 -0.00000000000E+00 -0.21959054515E+03  0.21959054515E+03  0.00000000000E+00 0. -1.
      99926    2    1    2    0    0 -0.71054273576E-14  0.17763568394E-14 -0.90716516989E+01  0.43010943861E+03  0.43001376061E+03 0.  0.
      99925    2    3    3    0    0  0.62970844431E+02 -0.83194629126E+01  0.54600310757E+02  0.27604397325E+03  0.26302954306E+03 0.  0.
         25    1    4    4    0    0  0.65234104892E+02  0.38584458892E+01  0.51720198447E+02  0.15030922484E+03  0.12509000000E+03 0.  0.
         25    1    3    3    0    0 -0.62970844431E+02  0.83194629126E+01 -0.63671962456E+02  0.15406546535E+03  0.12509000000E+03 0.  0.
         25    1    4    4    0    0 -0.22632604607E+01 -0.12177908802E+02  0.28801123101E+01  0.12573474841E+03  0.12509000000E+03 0.  0.
<mgrwt>
<rscale>  2 0.43001376E+03</rscale>
<asrwt>0</asrwt>
<pdfrwt beam="1">  1       21 0.30958661E-01 0.43001376E+03</pdfrwt>
<pdfrwt beam="2">  1       21 0.32292727E-01 0.43001376E+03</pdfrwt>
<totfact> 0.86389659E+04</totfact>
</mgrwt>
</event>
<event>
 7    0  0.4707675E-002  0.4686807E+03  0.7546771E-02  0.1022293E+00
         21   -1    0    0  502  501  0.00000000000E+00  0.00000000000E+00  0.11640075354E+03  0.11640075354E+03  0.00000000000E+00 0. -1.
         21   -1    0    0  501  502 -0.00000000000E+00 -0.00000000000E+00 -0.47177882948E+03  0.47177882948E+03  0.00000000000E+00 0. -1.
      99926    2    1    2    0    0  0.00000000000E+00  0.00000000000E+00 -0.35537807594E+03  0.58817958302E+03  0.46868074958E+03 0.  0.
      99925    2    3    3    0    0  0.42357273606E+01 -0.45559899127E+02 -0.74193542885E+02  0.27704312498E+03  0.26297255655E+03 0.  0.
         25    1    4    4    0    0 -0.28534277876E+00 -0.20892692642E+02 -0.78925258095E+02  0.14937633846E+03  0.12509000000E+03 0.  0.
         25    1    3    3    0    0 -0.42357273606E+01  0.45559899127E+02 -0.28118453305E+03  0.31113645804E+03  0.12509000000E+03 0.  0.
         25    1    4    4    0    0  0.45210701393E+01 -0.24667206485E+02  0.47317152098E+01  0.12766678652E+03  0.12509000000E+03 0.  0.
<mgrwt>
<rscale>  2 0.46868075E+03</rscale>
<asrwt>0</asrwt>
<pdfrwt beam="1">  1       21 0.17117758E-01 0.46868075E+03</pdfrwt>
<pdfrwt beam="2">  1       21 0.69379241E-01 0.46868075E+03</pdfrwt>
<totfact> 0.53398825E+04</totfact>
</mgrwt>
</event>
<event>
 7    0  0.4707675E-002  0.4483533E+03  0.7546771E-02  0.1028214E+00
         21   -1    0    0  502  501  0.00000000000E+00  0.00000000000E+00  0.22475687672E+03  0.22475687672E+03  0.00000000000E+00 0.  1.
         21   -1    0    0  501  502 -0.00000000000E+00 -0.00000000000E+00 -0.22359791522E+03  0.22359791522E+03  0.00000000000E+00 0.  1.
      99926    2    1    2    0    0 -0.35527136788E-14  0.00000000000E+00  0.11589615055E+01  0.44835479194E+03  0.44835329402E+03 0.  0.
      99925    2    3    3    0    0  0.31777742283E+02 -0.82649004070E+02 -0.59222893787E+02  0.28363029671E+03  0.26286519603E+03 0.  0.
         25    1    4    4    0    0 -0.22375441522E+02 -0.47199482214E+02 -0.17156070000E+02  0.13663927086E+03  0.12509000000E+03 0.  0.
         25    1    3    3    0    0 -0.31777742283E+02  0.82649004070E+02  0.60381855293E+02  0.16472449522E+03  0.12509000000E+03 0.  0.
         25    1    4    4    0    0  0.54153183805E+02 -0.35449521856E+02 -0.42066823787E+02  0.14699102585E+03  0.12509000000E+03 0.  0.
<mgrwt>
<rscale>  2 0.44835329E+03</rscale>
<asrwt>0</asrwt>
<pdfrwt beam="1">  1       21 0.33052482E-01 0.44835329E+03</pdfrwt>
<pdfrwt beam="2">  1       21 0.32882046E-01 0.44835329E+03</pdfrwt>
<totfact> 0.72821425E+04</totfact>
</mgrwt>
</event>
<event>
 7    0  0.4707675E-002  0.4542208E+03  0.7546771E-02  0.1026471E+00
         21   -1    0    0  502  501  0.00000000000E+00  0.00000000000E+00  0.19164347124E+04  0.19164347124E+04  0.00000000000E+00 0. -1.
         21   -1    0    0  501  502 -0.00000000000E+00 -0.00000000000E+00 -0.26914104953E+02  0.26914104953E+02  0.00000000000E+00 0. -1.
      99926    2    1    2    0    0  0.00000000000E+00  0.00000000000E+00  0.18895206074E+04  0.19433488173E+04  0.45422076123E+03 0.  0.
      99925    2    3    3    0    0 -0.61999223015E+02 -0.85101485129E+02  0.10241086582E+04  0.10626266612E+04  0.26323128758E+03 0.  0.
         25    1    3    3    0    0  0.61999223015E+02  0.85101485129E+02  0.86541194919E+03  0.88072215614E+03  0.12509000000E+03 0.  0.
         25    1    4    4    0    0 -0.55945328389E+02 -0.29605388021E+02  0.62940043627E+03  0.64482460875E+03  0.12509000000E+03 0.  0.
         25    1    4    4    0    0 -0.60538946265E+01 -0.55496097108E+02  0.39470822196E+03  0.41780205243E+03  0.12509000000E+03 0.  0.
<mgrwt>
<rscale>  2 0.45422076E+03</rscale>
<asrwt>0</asrwt>
<pdfrwt beam="1">  1       21 0.28182854E+00 0.45422076E+03</pdfrwt>
<pdfrwt beam="2">  1       21 0.39579579E-02 0.45422076E+03</pdfrwt>
<totfact> 0.14745972E+04</totfact>
</mgrwt>
</event>
<event>
 7    0  0.4707675E-002  0.4480406E+03  0.7546771E-02  0.1028308E+00
         21   -1    0    0  502  501  0.00000000000E+00  0.00000000000E+00  0.57689259041E+02  0.57689259041E+02  0.00000000000E+00 0.  1.
         21   -1    0    0  501  502 -0.00000000000E+00 -0.00000000000E+00 -0.86992087069E+03  0.86992087069E+03  0.00000000000E+00 0.  1.
      99926    2    1    2    0    0 -0.88817841970E-15  0.00000000000E+00 -0.81223161165E+03  0.92761012973E+03  0.44804058055E+03 0.  0.
      99925    2    3    3    0    0  0.45482074587E+01 -0.10492363823E+03 -0.55668716824E+03  0.62432787389E+03  0.26240242907E+03 0.  0.
         25    1    4    4    0    0  0.24805910177E+01 -0.26998962927E+02 -0.32983356068E+03  0.35379765853E+03  0.12509000000E+03 0.  0.
         25    1    3    3    0    0 -0.45482074587E+01  0.10492363823E+03 -0.25554444341E+03  0.30328225584E+03  0.12509000000E+03 0.  0.
         25    1    4    4    0    0  0.20676164410E+01 -0.77924675305E+02 -0.22685360756E+03  0.27053021536E+03  0.12509000000E+03 0.  0.
<mgrwt>
<rscale>  2 0.44804058E+03</rscale>
<asrwt>0</asrwt>
<pdfrwt beam="1">  1       21 0.84837148E-02 0.44804058E+03</pdfrwt>
<pdfrwt beam="2">  1       21 0.12792954E+00 0.44804058E+03</pdfrwt>
<totfact> 0.44430706E+04</totfact>
</mgrwt>
</event>
<event>
 7    0  0.4707675E-002  0.4472140E+03  0.7546771E-02  0.1028556E+00
         21   -1    0    0  502  501  0.00000000000E+00  0.00000000000E+00  0.23332606309E+03  0.23332606309E+03  0.00000000000E+00 0. -1.
         21   -1    0    0  501  502 -0.00000000000E+00 -0.00000000000E+00 -0.21429281772E+03  0.21429281772E+03  0.00000000000E+00 0. -1.
      99926    2    1    2    0    0  0.00000000000E+00  0.00000000000E+00  0.19033245371E+02  0.44761888082E+03  0.44721404052E+03 0.  0.
      99925    2    3    3    0    0 -0.48306096970E+02 -0.92764811198E+02  0.27407333199E+02  0.28435093342E+03  0.26299335015E+03 0.  0.
         25    1    4    4    0    0 -0.29858172232E+02 -0.42707481115E+01  0.10871381529E+02  0.12913343786E+03  0.12509000000E+03 0.  0.
         25    1    4    4    0    0 -0.18447924738E+02 -0.88494063086E+02  0.16535951670E+02  0.15521749555E+03  0.12509000000E+03 0.  0.
         25    1    3    3    0    0  0.48306096970E+02  0.92764811198E+02 -0.83740878276E+01  0.16326794740E+03  0.12509000000E+03 0.  0.
<mgrwt>
<rscale>  2 0.44721404E+03</rscale>
<asrwt>0</asrwt>
<pdfrwt beam="1">  1       21 0.34312656E-01 0.44721404E+03</pdfrwt>
<pdfrwt beam="2">  1       21 0.31513650E-01 0.44721404E+03</pdfrwt>
<totfact> 0.73554292E+04</totfact>
</mgrwt>
</event>
<event>
 7    0  0.4707675E-002  0.4614387E+03  0.7546771E-02  0.1024365E+00
         21   -1    0    0  502  501  0.00000000000E+00  0.00000000000E+00  0.71574606086E+03  0.71574606086E+03  0.00000000000E+00 0.  1.
         21   -1    0    0  501  502 -0.00000000000E+00 -0.00000000000E+00 -0.74371936281E+02  0.74371936281E+02  0.00000000000E+00 0.  1.
      99926    2    1    2    0    0  0.14210854715E-13 -0.13322676296E-14  0.64137412458E+03  0.79011799714E+03  0.46143870853E+03 0.  0.
      99925    2    3    3    0    0 -0.11464012765E+03 -0.19831631480E+00  0.34558904148E+03  0.44912133781E+03  0.26293685988E+03 0.  0.
         25    1    4    4    0    0 -0.90485406176E+02 -0.13405887028E+02  0.15254698487E+03  0.21745210330E+03  0.12509000000E+03 0.  0.
         25    1    3    3    0    0  0.11464012765E+03  0.19831631480E+00  0.29578508310E+03  0.34099665934E+03  0.12509000000E+03 0.  0.
         25    1    4    4    0    0 -0.24154721473E+02  0.13207570714E+02  0.19304205661E+03  0.23166923450E+03  0.12509000000E+03 0.  0.
<mgrwt>
<rscale>  2 0.46143871E+03</rscale>
<asrwt>0</asrwt>
<pdfrwt beam="1">  1       21 0.10525677E+00 0.46143871E+03</pdfrwt>
<pdfrwt beam="2">  1       21 0.10937050E-01 0.46143871E+03</pdfrwt>
<totfact> 0.45883561E+04</totfact>
</mgrwt>
</event>
<event>
 7    0  0.4707675E-002  0.4013532E+03  0.7546771E-02  0.1043312E+00
         21   -1    0    0  502  501  0.00000000000E+00  0.00000000000E+00  0.54454708228E+03  0.54454708228E+03  0.00000000000E+00 0. -1.
         21   -1    0    0  501  502 -0.00000000000E+00 -0.00000000000E+00 -0.73953362635E+02  0.73953362635E+02  0.00000000000E+00 0. -1.
      99926    2    1    2    0    0  0.00000000000E+00  0.00000000000E+00  0.47059371964E+03  0.61850044491E+03  0.40135315047E+03 0.  0.
      99925    2    3    3    0    0 -0.46412273261E+02 -0.98569621429E+01  0.30166724682E+03  0.40301281155E+03  0.26299228060E+03 0.  0.
         25    1    3    3    0    0  0.46412273261E+02  0.98569621429E+01  0.16892647282E+03  0.21548763336E+03  0.12509000000E+03 0.  0.
         25    1    4    4    0    0 -0.22084599524E+02 -0.29778049751E+02  0.19994159511E+03  0.23874381948E+03  0.12509000000E+03 0.  0.
         25    1    4    4    0    0 -0.24327673737E+02  0.19921087608E+02  0.10172565171E+03  0.16426899207E+03  0.12509000000E+03 0.  0.
<mgrwt>
<rscale>  2 0.40135315E+03</rscale>
<asrwt>0</asrwt>
<pdfrwt beam="1">  1       21 0.80080451E-01 0.40135315E+03</pdfrwt>
<pdfrwt beam="2">  1       21 0.10875495E-01 0.40135315E+03</pdfrwt>
<totfact> 0.90036139E+04</totfact>
</mgrwt>
</event>
<event>
 7    0  0.4707675E-002  0.4475624E+03  0.7546771E-02  0.1028451E+00
         21   -1    0    0  502  501  0.00000000000E+00  0.00000000000E+00  0.29099957994E+03  0.29099957994E+03  0.00000000000E+00 0.  1.
         21   -1    0    0  501  502 -0.00000000000E+00 -0.00000000000E+00 -0.17208970359E+03  0.17208970359E+03  0.00000000000E+00 0.  1.
      99926    2    1    2    0    0  0.00000000000E+00  0.00000000000E+00  0.11890987636E+03  0.46308928353E+03  0.44756242674E+03 0.  0.
      99925    2    3    3    0    0 -0.10010183028E+03 -0.25926291043E+02  0.51819572047E+02  0.28747275235E+03  0.26317820256E+03 0.  0.
         25    1    3    3    0    0  0.10010183028E+03  0.25926291043E+02  0.67090304309E+02  0.17561653118E+03  0.12509000000E+03 0.  0.
         25    1    4    4    0    0 -0.19441457602E+02 -0.41228357029E+02  0.24950592111E+02  0.13545400638E+03  0.12509000000E+03 0.  0.
         25    1    4    4    0    0 -0.80660372677E+02  0.15302065986E+02  0.26868979936E+02  0.15201874597E+03  0.12509000000E+03 0.  0.
<mgrwt>
<rscale>  2 0.44756243E+03</rscale>
<asrwt>0</asrwt>
<pdfrwt beam="1">  1       21 0.42794056E-01 0.44756243E+03</pdfrwt>
<pdfrwt beam="2">  1       21 0.25307309E-01 0.44756243E+03</pdfrwt>
<totfact> 0.72114966E+04</totfact>
</mgrwt>
</event>
<event>
 7    0  0.4707675E-002  0.4527035E+03  0.7546771E-02  0.1026919E+00
         21   -1    0    0  502  501  0.00000000000E+00  0.00000000000E+00  0.28542720588E+03  0.28542720588E+03  0.00000000000E+00 0. -1.
         21   -1    0    0  501  502 -0.00000000000E+00 -0.00000000000E+00 -0.17950329280E+03  0.17950329280E+03  0.00000000000E+00 0. -1.
      99926    2    1    2    0    0  0.00000000000E+00  0.00000000000E+00  0.10592391308E+03  0.46493049868E+03  0.45270353791E+03 0.  0.
      99925    2    3    3    0    0 -0.56935175379E+02  0.48573421092E+02 -0.17206677424E+02  0.27411739156E+03  0.26314118487E+03 0.  0.
         25    1    4    4    0    0 -0.59100962649E+02  0.68902053942E+01 -0.29661538448E+02  0.14166055795E+03  0.12509000000E+03 0.  0.
         25    1    4    4    0    0  0.21657872704E+01  0.41683215698E+02  0.12454861024E+02  0.13245683360E+03  0.12509000000E+03 0.  0.
         25    1    3    3    0    0  0.56935175379E+02 -0.48573421092E+02  0.12313059050E+03  0.19081310712E+03  0.12509000000E+03 0.  0.
<mgrwt>
<rscale>  2 0.45270354E+03</rscale>
<asrwt>0</asrwt>
<pdfrwt beam="1">  1       21 0.41974589E-01 0.45270354E+03</pdfrwt>
<pdfrwt beam="2">  1       21 0.26397543E-01 0.45270354E+03</pdfrwt>
<totfact> 0.69064393E+04</totfact>
</mgrwt>
</event>
<event>
 7    0  0.4707675E-002  0.4498564E+03  0.7546771E-02  0.1027765E+00
         21   -1    0    0  502  501  0.00000000000E+00  0.00000000000E+00  0.86063581375E+03  0.86063581375E+03  0.00000000000E+00 0. -1.
         21   -1    0    0  501  502 -0.00000000000E+00 -0.00000000000E+00 -0.58785259629E+02  0.58785259629E+02  0.00000000000E+00 0. -1.
      99926    2    1    2    0    0  0.00000000000E+00  0.00000000000E+00  0.80185055412E+03  0.91942107338E+03  0.44985642046E+03 0.  0.
      99925    2    3    3    0    0  0.46123762519E+02 -0.76810138821E+02  0.38262998493E+03  0.47285574487E+03  0.26298222601E+03 0.  0.
         25    1    3    3    0    0 -0.46123762519E+02  0.76810138821E+02  0.41922056919E+03  0.44656532851E+03  0.12509000000E+03 0.  0.
         25    1    4    4    0    0 -0.42332113268E+01 -0.12270644172E+02  0.14316387135E+03  0.19055679192E+03  0.12509000000E+03 0.  0.
         25    1    4    4    0    0  0.50356973846E+02 -0.64539494648E+02  0.23946611358E+03  0.28229895295E+03  0.12509000000E+03 0.  0.
<mgrwt>
<rscale>  2 0.44985642E+03</rscale>
<asrwt>0</asrwt>
<pdfrwt beam="1">  1       21 0.12656408E+00 0.44985642E+03</pdfrwt>
<pdfrwt beam="2">  1       21 0.86448917E-02 0.44985642E+03</pdfrwt>
<totfact> 0.44154534E+04</totfact>
</mgrwt>
</event>
<event>
 7    0  0.4707675E-002  0.4531865E+03  0.7546771E-02  0.1026776E+00
         21   -1    0    0  502  501  0.00000000000E+00  0.00000000000E+00  0.16433839217E+03  0.16433839217E+03  0.00000000000E+00 0. -1.
         21   -1    0    0  501  502 -0.00000000000E+00 -0.00000000000E+00 -0.31243152224E+03  0.31243152224E+03  0.00000000000E+00 0. -1.
      99926    2    1    2    0    0  0.00000000000E+00  0.00000000000E+00 -0.14809313008E+03  0.47676991441E+03  0.45318646947E+03 0.  0.
      99925    2    3    3    0    0 -0.28461695310E+02  0.10732459972E+03 -0.10010561112E+03  0.30276144370E+03  0.26327688962E+03 0.  0.
         25    1    3    3    0    0  0.28461695310E+02 -0.10732459972E+03 -0.47987518958E+02  0.17400847072E+03  0.12509000000E+03 0.  0.
         25    1    4    4    0    0 -0.31214960076E+02  0.52263346249E+02 -0.89996053978E+02  0.16568834879E+03  0.12509000000E+03 0.  0.
         25    1    4    4    0    0  0.27532647662E+01  0.55061253474E+02 -0.10109557141E+02  0.13707309490E+03  0.12509000000E+03 0.  0.
<mgrwt>
<rscale>  2 0.45318647E+03</rscale>
<asrwt>0</asrwt>
<pdfrwt beam="1">  1       21 0.24167411E-01 0.45318647E+03</pdfrwt>
<pdfrwt beam="2">  1       21 0.45945812E-01 0.45318647E+03</pdfrwt>
<totfact> 0.67908180E+04</totfact>
</mgrwt>
</event>
<event>
 7    0  0.4707675E-002  0.4631950E+03  0.7546771E-02  0.1023859E+00
         21   -1    0    0  502  501  0.00000000000E+00  0.00000000000E+00  0.53600811875E+03  0.53600811875E+03  0.00000000000E+00 0.  1.
         21   -1    0    0  501  502 -0.00000000000E+00 -0.00000000000E+00 -0.10006827112E+03  0.10006827112E+03  0.00000000000E+00 0.  1.
      99926    2    1    2    0    0  0.00000000000E+00 -0.35527136788E-14  0.43593984763E+03  0.63607638988E+03  0.46319501617E+03 0.  0.
      99925    2    3    3    0    0 -0.35684222202E+02 -0.24625175520E+02  0.11783113182E+03  0.29151808399E+03  0.26309476369E+03 0.  0.
         25    1    4    4    0    0 -0.10534370321E+02  0.27912288525E+02  0.53791391873E+02  0.13939544737E+03  0.12509000000E+03 0.  0.
         25    1    4    4    0    0 -0.25149851881E+02 -0.52537464045E+02  0.64039739944E+02  0.15212263661E+03  0.12509000000E+03 0.  0.
         25    1    3    3    0    0  0.35684222202E+02  0.24625175520E+02  0.31810871581E+03  0.34455830589E+03  0.12509000000E+03 0.  0.
<mgrwt>
<rscale>  2 0.46319502E+03</rscale>
<asrwt>0</asrwt>
<pdfrwt beam="1">  1       21 0.78824722E-01 0.46319502E+03</pdfrwt>
<pdfrwt beam="2">  1       21 0.14715922E-01 0.46319502E+03</pdfrwt>
<totfact> 0.52998608E+04</totfact>
</mgrwt>
</event>
<event>
 7    0  0.4707675E-002  0.4581063E+03  0.7546771E-02  0.1025332E+00
         21   -1    0    0  502  501  0.00000000000E+00  0.00000000000E+00  0.34584255219E+02  0.34584255219E+02  0.00000000000E+00 0.  1.
         21   -1    0    0  501  502 -0.00000000000E+00 -0.00000000000E+00 -0.15170299248E+04  0.15170299248E+04  0.00000000000E+00 0.  1.
      99926    2    1    2    0    0  0.00000000000E+00  0.00000000000E+00 -0.14824456696E+04  0.15516141800E+04  0.45810631995E+03 0.  0.
      99925    2    3    3    0    0  0.19946686402E+02 -0.11261643166E+03 -0.86814524557E+03  0.91436003133E+03  0.26324469323E+03 0.  0.
         25    1    4    4    0    0  0.23531471640E+01 -0.26483881911E+02 -0.49152525414E+03  0.50788927618E+03  0.12509000000E+03 0.  0.
         25    1    4    4    0    0  0.17593539238E+02 -0.86132549746E+02 -0.37661999143E+03  0.40647075515E+03  0.12509000000E+03 0.  0.
         25    1    3    3    0    0 -0.19946686402E+02  0.11261643166E+03 -0.61430042402E+03  0.63725414870E+03  0.12509000000E+03 0.  0.
<mgrwt>
<rscale>  2 0.45810632E+03</rscale>
<asrwt>0</asrwt>
<pdfrwt beam="1">  1       21 0.50859191E-02 0.45810632E+03</pdfrwt>
<pdfrwt beam="2">  1       21 0.22309267E+00 0.45810632E+03</pdfrwt>
<totfact> 0.22006341E+04</totfact>
</mgrwt>
</event>
<event>
 7    0  0.4707675E-002  0.4529539E+03  0.7546771E-02  0.1026845E+00
         21   -1    0    0  502  501  0.00000000000E+00  0.00000000000E+00  0.26818717937E+03  0.26818717937E+03  0.00000000000E+00 0. -1.
         21   -1    0    0  501  502 -0.00000000000E+00 -0.00000000000E+00 -0.19125375962E+03  0.19125375962E+03  0.00000000000E+00 0. -1.
      99926    2    1    2    0    0  0.00000000000E+00  0.00000000000E+00  0.76933419750E+02  0.45944093900E+03  0.45295388877E+03 0.  0.
      99925    2    3    3    0    0 -0.60251737726E+02 -0.78586129015E+02  0.99533395671E+02  0.29830646539E+03  0.26319916198E+03 0.  0.
         25    1    3    3    0    0  0.60251737726E+02  0.78586129015E+02 -0.22599975922E+02  0.16113447361E+03  0.12509000000E+03 0.  0.
         25    1    4    4    0    0 -0.23759026867E+02 -0.29609621165E+02  0.90132557268E+02  0.15878478203E+03  0.12509000000E+03 0.  0.
         25    1    4    4    0    0 -0.36492710859E+02 -0.48976507850E+02  0.94008384036E+01  0.13952168337E+03  0.12509000000E+03 0.  0.
<mgrwt>
<rscale>  2 0.45295389E+03</rscale>
<asrwt>0</asrwt>
<pdfrwt beam="1">  1       21 0.39439291E-01 0.45295389E+03</pdfrwt>
<pdfrwt beam="2">  1       21 0.28125553E-01 0.45295389E+03</pdfrwt>
<totfact> 0.69345816E+04</totfact>
</mgrwt>
</event>
<event>
 7    0  0.4707675E-002  0.4530133E+03  0.7546771E-02  0.1026827E+00
         21   -1    0    0  502  501  0.00000000000E+00  0.00000000000E+00  0.13235796249E+03  0.13235796249E+03  0.00000000000E+00 0.  1.
         21   -1    0    0  501  502 -0.00000000000E+00 -0.00000000000E+00 -0.38762504008E+03  0.38762504008E+03  0.00000000000E+00 0.  1.
      99926    2    1    2    0    0  0.00000000000E+00  0.00000000000E+00 -0.25526707759E+03  0.51998300257E+03  0.45301329127E+03 0.  0.
      99925    2    3    3    0    0  0.40085237676E+02  0.10350247228E+03 -0.15025205526E+03  0.32251084995E+03  0.26290298624E+03 0.  0.
         25    1    4    4    0    0  0.25196058797E+02  0.45147508949E+02 -0.29543235512E+02  0.13854042662E+03  0.12509000000E+03 0.  0.
         25    1    4    4    0    0  0.14889178880E+02  0.58354963335E+02 -0.12070881975E+03  0.18397042333E+03  0.12509000000E+03 0.  0.
         25    1    3    3    0    0 -0.40085237676E+02 -0.10350247228E+03 -0.10501502233E+03  0.19747215263E+03  0.12509000000E+03 0.  0.
<mgrwt>
<rscale>  2 0.45301329E+03</rscale>
<asrwt>0</asrwt>
<pdfrwt beam="1">  1       21 0.19464407E-01 0.45301329E+03</pdfrwt>
<pdfrwt beam="2">  1       21 0.57003681E-01 0.45301329E+03</pdfrwt>
<totfact> 0.64905405E+04</totfact>
</mgrwt>
</event>
<event>
 7    0  0.4707675E-002  0.4388637E+03  0.7546771E-02  0.1031096E+00
         21   -1    0    0  502  501  0.00000000000E+00  0.00000000000E+00  0.48900531744E+03  0.48900531744E+03  0.00000000000E+00 0.  1.
         21   -1    0    0  501  502 -0.00000000000E+00 -0.00000000000E+00 -0.98465892046E+02  0.98465892046E+02  0.00000000000E+00 0.  1.
      99926    2    1    2    0    0  0.00000000000E+00  0.00000000000E+00  0.39053942540E+03  0.58747120949E+03  0.43886373647E+03 0.  0.
      99925    2    3    3    0    0 -0.90768237370E+02  0.18238117296E+02  0.28839471306E+03  0.40131924953E+03  0.26327576357E+03 0.  0.
         25    1    3    3    0    0  0.90768237370E+02 -0.18238117296E+02  0.10214471233E+03  0.18615195996E+03  0.12509000000E+03 0.  0.
         25    1    4    4    0    0 -0.52643284929E+02  0.86824361148E+01  0.20472840690E+03  0.24578024501E+03  0.12509000000E+03 0.  0.
         25    1    4    4    0    0 -0.38124952441E+02  0.95556811807E+01  0.83666306166E+02  0.15553900453E+03  0.12509000000E+03 0.  0.
<mgrwt>
<rscale>  2 0.43886374E+03</rscale>
<asrwt>0</asrwt>
<pdfrwt beam="1">  1       21 0.71912546E-01 0.43886374E+03</pdfrwt>
<pdfrwt beam="2">  1       21 0.14480278E-01 0.43886374E+03</pdfrwt>
<totfact> 0.67683916E+04</totfact>
</mgrwt>
</event>
<event>
 7    0  0.4707675E-002  0.4540983E+03  0.7546771E-02  0.1026507E+00
         21   -1    0    0  502  501  0.00000000000E+00  0.00000000000E+00  0.35071566879E+02  0.35071566879E+02  0.00000000000E+00 0. -1.
         21   -1    0    0  501  502 -0.00000000000E+00 -0.00000000000E+00 -0.14698891953E+04  0.14698891953E+04  0.00000000000E+00 0. -1.
      99926    2    1    2    0    0  0.14210854715E-13  0.35527136788E-14 -0.14348176284E+04  0.15049607621E+04  0.45409830309E+03 0.  0.
      99925    2    3    3    0    0  0.73709373591E+02  0.16216124259E+02 -0.62795452897E+03  0.68497807712E+03  0.26300578176E+03 0.  0.
         25    1    4    4    0    0  0.41944856650E+02  0.47137197397E+02 -0.29618965533E+03  0.32765394306E+03  0.12509000000E+03 0.  0.
         25    1    3    3    0    0 -0.73709373591E+02 -0.16216124259E+02 -0.80686309942E+03  0.81998268503E+03  0.12509000000E+03 0.  0.
         25    1    4    4    0    0  0.31764516941E+02 -0.30921073138E+02 -0.33176487364E+03  0.35732413406E+03  0.12509000000E+03 0.  0.
<mgrwt>
<rscale>  2 0.45409830E+03</rscale>
<asrwt>0</asrwt>
<pdfrwt beam="1">  1       21 0.51575825E-02 0.45409830E+03</pdfrwt>
<pdfrwt beam="2">  1       21 0.21616021E+00 0.45409830E+03</pdfrwt>
<totfact> 0.23824213E+04</totfact>
</mgrwt>
</event>
<event>
 7    0  0.4707675E-002  0.4614034E+03  0.7546771E-02  0.1024375E+00
         21   -1    0    0  502  501  0.00000000000E+00  0.00000000000E+00  0.24925233703E+03  0.24925233703E+03  0.00000000000E+00 0.  1.
         21   -1    0    0  501  502 -0.00000000000E+00 -0.00000000000E+00 -0.21353170149E+03  0.21353170149E+03  0.00000000000E+00 0.  1.
      99926    2    1    2    0    0  0.00000000000E+00  0.00000000000E+00  0.35720635542E+02  0.46278403853E+03  0.46140340540E+03 0.  0.
      99925    2    3    3    0    0  0.64648200183E+02  0.90020329796E+02 -0.21456976750E+02  0.28614928257E+03  0.26294098292E+03 0.  0.
         25    1    4    4    0    0  0.12047356121E+02  0.66126947171E+01 -0.39235266381E+01  0.12590380726E+03  0.12509000000E+03 0.  0.
         25    1    3    3    0    0 -0.64648200183E+02 -0.90020329796E+02  0.57177612292E+02  0.17663475595E+03  0.12509000000E+03 0.  0.
         25    1    4    4    0    0  0.52600844062E+02  0.83407635078E+02 -0.17533450112E+02  0.16024547531E+03  0.12509000000E+03 0.  0.
<mgrwt>
<rscale>  2 0.46140341E+03</rscale>
<asrwt>0</asrwt>
<pdfrwt beam="1">  1       21 0.36654755E-01 0.46140341E+03</pdfrwt>
<pdfrwt beam="2">  1       21 0.31401721E-01 0.46140341E+03</pdfrwt>
<totfact> 0.64614437E+04</totfact>
</mgrwt>
</event>
<event>
 7    0  0.4707675E-002  0.4477995E+03  0.7546771E-02  0.1028380E+00
         21   -1    0    0  502  501  0.00000000000E+00  0.00000000000E+00  0.13437282723E+04  0.13437282723E+04  0.00000000000E+00 0. -1.
         21   -1    0    0  501  502 -0.00000000000E+00 -0.00000000000E+00 -0.37307463695E+02  0.37307463695E+02  0.00000000000E+00 0. -1.
      99926    2    1    2    0    0  0.71054273576E-14  0.00000000000E+00  0.13064208086E+04  0.13810357360E+04  0.44779948073E+03 0.  0.
      99925    2    3    3    0    0  0.40167251169E+02 -0.80023555188E+02  0.65142120859E+03  0.70821394565E+03  0.26305935519E+03 0.  0.
         25    1    3    3    0    0 -0.40167251169E+02  0.80023555188E+02  0.65499960004E+03  0.67282179038E+03  0.12509000000E+03 0.  0.
         25    1    4    4    0    0  0.71875566721E+01 -0.62272999141E+02  0.25531825059E+03  0.29114344330E+03  0.12509000000E+03 0.  0.
         25    1    4    4    0    0  0.32979694497E+02 -0.17750556047E+02  0.39610295800E+03  0.41707050234E+03  0.12509000000E+03 0.  0.
<mgrwt>
<rscale>  2 0.44779948E+03</rscale>
<asrwt>0</asrwt>
<pdfrwt beam="1">  1       21 0.19760707E+00 0.44779948E+03</pdfrwt>
<pdfrwt beam="2">  1       21 0.54863926E-02 0.44779948E+03</pdfrwt>
<totfact> 0.28398071E+04</totfact>
</mgrwt>
</event>
<event>
 7    0  0.4707675E-002  0.4538734E+03  0.7546771E-02  0.1026573E+00
         21   -1    0    0  502  501  0.00000000000E+00  0.00000000000E+00  0.34119636427E+03  0.34119636427E+03  0.00000000000E+00 0. -1.
         21   -1    0    0  501  502 -0.00000000000E+00 -0.00000000000E+00 -0.15094027205E+03  0.15094027205E+03  0.00000000000E+00 0. -1.
      99926    2    1    2    0    0  0.00000000000E+00  0.00000000000E+00  0.19025609222E+03  0.49213663632E+03  0.45387342749E+03 0.  0.
      99925    2    3    3    0    0 -0.93450650493E+02 -0.51695070050E+02  0.15666369048E+03  0.32426358339E+03  0.26305504225E+03 0.  0.
         25    1    4    4    0    0 -0.29468893666E+02 -0.28779956658E+02  0.11779904127E+03  0.17669415334E+03  0.12509000000E+03 0.  0.
         25    1    3    3    0    0  0.93450650493E+02  0.51695070050E+02  0.33592401741E+02  0.16787305293E+03  0.12509000000E+03 0.  0.
         25    1    4    4    0    0 -0.63981756828E+02 -0.22915113392E+02  0.38864649207E+02  0.14756943005E+03  0.12509000000E+03 0.  0.
<mgrwt>
<rscale>  2 0.45387343E+03</rscale>
<asrwt>0</asrwt>
<pdfrwt beam="1">  1       21 0.50175936E-01 0.45387343E+03</pdfrwt>
<pdfrwt beam="2">  1       21 0.22197099E-01 0.45387343E+03</pdfrwt>
<totfact> 0.66418717E+04</totfact>
</mgrwt>
</event>
<event>
 7    0  0.4707675E-002  0.4502390E+03  0.7546771E-02  0.1027651E+00
         21   -1    0    0  502  501  0.00000000000E+00  0.00000000000E+00  0.13001118260E+03  0.13001118260E+03  0.00000000000E+00 0.  1.
         21   -1    0    0  501  502 -0.00000000000E+00 -0.00000000000E+00 -0.38980337778E+03  0.38980337778E+03  0.00000000000E+00 0.  1.
      99926    2    1    2    0    0  0.00000000000E+00 -0.71054273576E-14 -0.25979219518E+03  0.51981456039E+03  0.45023903930E+03 0.  0.
      99925    2    3    3    0    0 -0.74700560597E+02 -0.58463610698E+02 -0.10331786006E+03  0.29816191957E+03  0.26311173015E+03 0.  0.
         25    1    4    4    0    0 -0.31487115480E+02 -0.34546859340E+02 -0.94093034414E+02  0.16335829075E+03  0.12509000000E+03 0.  0.
         25    1    4    4    0    0 -0.43213445117E+02 -0.23916751358E+02 -0.92248256421E+01  0.13480362882E+03  0.12509000000E+03 0.  0.
         25    1    3    3    0    0  0.74700560597E+02  0.58463610698E+02 -0.15647433513E+03  0.22165264082E+03  0.12509000000E+03 0.  0.
<mgrwt>
<rscale>  2 0.45023904E+03</rscale>
<asrwt>0</asrwt>
<pdfrwt beam="1">  1       21 0.19119292E-01 0.45023904E+03</pdfrwt>
<pdfrwt beam="2">  1       21 0.57324025E-01 0.45023904E+03</pdfrwt>
<totfact> 0.66371201E+04</totfact>
</mgrwt>
</event>
<event>
 7    0  0.4707675E-002  0.4584681E+03  0.7546771E-02  0.1025226E+00
         21   -1    0    0  502  501  0.00000000000E+00  0.00000000000E+00  0.68652746660E+02  0.68652746660E+02  0.00000000000E+00 0. -1.
         21   -1    0    0  501  502 -0.00000000000E+00 -0.00000000000E+00 -0.76542089336E+03  0.76542089336E+03  0.00000000000E+00 0. -1.
      99926    2    1    2    0    0  0.00000000000E+00  0.00000000000E+00 -0.69676814670E+03  0.83407364002E+03  0.45846808691E+03 0.  0.
      99925    2    3    3    0    0 -0.96524398782E+02  0.55690867644E+02 -0.49763085896E+03  0.57383989938E+03  0.26312986533E+03 0.  0.
         25    1    3    3    0    0  0.96524398782E+02 -0.55690867644E+02 -0.19913728774E+03  0.26023374064E+03  0.12509000000E+03 0.  0.
         25    1    4    4    0    0 -0.13694151699E+02  0.41536047214E+01 -0.19417514281E+03  0.23142229021E+03  0.12509000000E+03 0.  0.
         25    1    4    4    0    0 -0.82830247083E+02  0.51537262923E+02 -0.30345571615E+03  0.34241760917E+03  0.12509000000E+03 0.  0.
<mgrwt>
<rscale>  2 0.45846809E+03</rscale>
<asrwt>0</asrwt>
<pdfrwt beam="1">  1       21 0.10095992E-01 0.45846809E+03</pdfrwt>
<pdfrwt beam="2">  1       21 0.11256190E+00 0.45846809E+03</pdfrwt>
<totfact> 0.44925483E+04</totfact>
</mgrwt>
</event>
<event>
 7    0  0.4707675E-002  0.4592533E+03  0.7546771E-02  0.1024998E+00
         21   -1    0    0  502  501  0.00000000000E+00  0.00000000000E+00  0.32636180939E+03  0.32636180939E+03  0.00000000000E+00 0.  1.
         21   -1    0    0  501  502 -0.00000000000E+00 -0.00000000000E+00 -0.16156422770E+03  0.16156422770E+03  0.00000000000E+00 0.  1.
      99926    2    1    2    0    0 -0.35527136788E-14 -0.17763568394E-14  0.16479758170E+03  0.48792603709E+03  0.45925327951E+03 0.  0.
      99925    2    3    3    0    0  0.25705388546E+02 -0.83526768062E+01  0.22439764801E+03  0.34675164064E+03  0.26296741555E+03 0.  0.
         25    1    3    3    0    0 -0.25705388546E+02  0.83526768062E+01 -0.59600066311E+02  0.14117439645E+03  0.12509000000E+03 0.  0.
         25    1    4    4    0    0  0.34228675059E+02 -0.22059430287E+02  0.75737529829E+02  0.15179559343E+03  0.12509000000E+03 0.  0.
         25    1    4    4    0    0 -0.85232865135E+01  0.13706753481E+02  0.14866011818E+03  0.19495604720E+03  0.12509000000E+03 0.  0.
<mgrwt>
<rscale>  2 0.45925328E+03</rscale>
<asrwt>0</asrwt>
<pdfrwt beam="1">  1       21 0.47994384E-01 0.45925328E+03</pdfrwt>
<pdfrwt beam="2">  1       21 0.23759445E-01 0.45925328E+03</pdfrwt>
<totfact> 0.63941166E+04</totfact>
</mgrwt>
</event>
<event>
 6    0  0.4707675E-002  0.4567159E+03  0.7546771E-02  0.1025738E+00
         21   -1    0    0  502  501  0.00000000000E+00  0.00000000000E+00  0.11353465515E+04  0.11353465515E+04  0.00000000000E+00 0.  1.
         21   -1    0    0  501  502 -0.00000000000E+00 -0.00000000000E+00 -0.45930782790E+02  0.45930782790E+02  0.00000000000E+00 0.  1.
      99926    2    1    2    0    0  0.00000000000E+00 -0.71054273576E-14  0.10894157688E+04  0.11812773343E+04  0.45671591105E+03 0.  0.
         25    1    3    3    0    0 -0.88143083317E+02  0.60158285157E+02  0.30536175243E+03  0.34681627753E+03  0.12509000000E+03 0.  0.
         25    1    3    3    0    0  0.30229535935E+02 -0.71438007995E+02  0.41698935519E+03  0.44220452764E+03  0.12509000000E+03 0.  0.
         25    1    3    3    0    0  0.57913547381E+02  0.11279722838E+02  0.36706466114E+03  0.39225652916E+03  0.12509000000E+03 0.  0.
<mgrwt>
<rscale>  2 0.45671591E+03</rscale>
<asrwt>0</asrwt>
<pdfrwt beam="1">  1       21 0.16696271E+00 0.45671591E+03</pdfrwt>
<pdfrwt beam="2">  1       21 0.67545276E-02 0.45671591E+03</pdfrwt>
<totfact> 0.32320793E+04</totfact>
</mgrwt>
</event>
<event>
 7    0  0.4707675E-002  0.4542544E+03  0.7546771E-02  0.1026461E+00
         21   -1    0    0  502  501  0.00000000000E+00  0.00000000000E+00  0.36726522859E+03  0.36726522859E+03  0.00000000000E+00 0. -1.
         21   -1    0    0  501  502 -0.00000000000E+00 -0.00000000000E+00 -0.14046186747E+03  0.14046186747E+03  0.00000000000E+00 0. -1.
      99926    2    1    2    0    0  0.71054273576E-14  0.00000000000E+00  0.22680336113E+03  0.50772709606E+03  0.45425437748E+03 0.  0.
      99925    2    3    3    0    0 -0.46624555890E+02  0.79133427827E+02  0.21535603818E+03  0.35211701311E+03  0.26300611996E+03 0.  0.
         25    1    4    4    0    0 -0.97689786959E+00  0.48824796338E+02  0.14801536815E+03  0.19985212627E+03  0.12509000000E+03 0.  0.
         25    1    4    4    0    0 -0.45647658021E+02  0.30308631488E+02  0.67340670022E+02  0.15226488684E+03  0.12509000000E+03 0.  0.
         25    1    3    3    0    0  0.46624555890E+02 -0.79133427827E+02  0.11447322950E+02  0.15561008295E+03  0.12509000000E+03 0.  0.
<mgrwt>
<rscale>  2 0.45425438E+03</rscale>
<asrwt>0</asrwt>
<pdfrwt beam="1">  1       21 0.54009593E-01 0.45425438E+03</pdfrwt>
<pdfrwt beam="2">  1       21 0.20656157E-01 0.45425438E+03</pdfrwt>
<totfact> 0.65115634E+04</totfact>
</mgrwt>
</event>
<event>
 7    0  0.4707675E-002  0.4538882E+03  0.7546771E-02  0.1026569E+00
         21   -1    0    0  502  501  0.00000000000E+00  0.00000000000E+00  0.13745536255E+03  0.13745536255E+03  0.00000000000E+00 0. -1.
         21   -1    0    0  501  502 -0.00000000000E+00 -0.00000000000E+00 -0.37469353594E+03  0.37469353594E+03  0.00000000000E+00 0. -1.
      99926    2    1    2    0    0 -0.88817841970E-15  0.00000000000E+00 -0.23723817339E+03  0.51214889849E+03  0.45388824981E+03 0.  0.
      99925    2    3    3    0    0 -0.70290139808E+01 -0.11094352797E+03 -0.13287474033E+03  0.31492540168E+03  0.26299132794E+03 0.  0.
         25    1    4    4    0    0  0.13270037185E+02 -0.23583248520E+02 -0.85361825249E+02  0.15383891838E+03  0.12509000000E+03 0.  0.
         25    1    3    3    0    0  0.70290139808E+01  0.11094352797E+03 -0.10436343306E+03  0.19722349681E+03  0.12509000000E+03 0.  0.
         25    1    4    4    0    0 -0.20299051165E+02 -0.87360279448E+02 -0.47512915083E+02  0.16108648330E+03  0.12509000000E+03 0.  0.
<mgrwt>
<rscale>  2 0.45388825E+03</rscale>
<asrwt>0</asrwt>
<pdfrwt beam="1">  1       21 0.20214024E-01 0.45388825E+03</pdfrwt>
<pdfrwt beam="2">  1       21 0.55101990E-01 0.45388825E+03</pdfrwt>
<totfact> 0.64996858E+04</totfact>
</mgrwt>
</event>
<event>
 7    0  0.4707675E-002  0.4498983E+03  0.7546771E-02  0.1027752E+00
         21   -1    0    0  502  501  0.00000000000E+00  0.00000000000E+00  0.67570290788E+03  0.67570290788E+03  0.00000000000E+00 0.  1.
         21   -1    0    0  501  502 -0.00000000000E+00 -0.00000000000E+00 -0.74888129736E+02  0.74888129736E+02  0.00000000000E+00 0.  1.
      99926    2    1    2    0    0 -0.71054273576E-14  0.00000000000E+00  0.60081477814E+03  0.75059103761E+03  0.44989833086E+03 0.  0.
      99925    2    3    3    0    0  0.29134024623E+02  0.10334121383E+03  0.35397615190E+03  0.45376615090E+03  0.26282390630E+03 0.  0.
         25    1    4    4    0    0 -0.19118229200E+02  0.29816045037E+02  0.14388284981E+03  0.19391824514E+03  0.12509000000E+03 0.  0.
         25    1    3    3    0    0 -0.29134024623E+02 -0.10334121383E+03  0.24683862625E+03  0.29682488672E+03  0.12509000000E+03 0.  0.
         25    1    4    4    0    0  0.48252253823E+02  0.73525168792E+02  0.21009330209E+03  0.25984790576E+03  0.12509000000E+03 0.  0.
<mgrwt>
<rscale>  2 0.44989833E+03</rscale>
<asrwt>0</asrwt>
<pdfrwt beam="1">  1       21 0.99368071E-01 0.44989833E+03</pdfrwt>
<pdfrwt beam="2">  1       21 0.11012961E-01 0.44989833E+03</pdfrwt>
<totfact> 0.52306703E+04</totfact>
</mgrwt>
</event>
<event>
 7    0  0.4707675E-002  0.4565527E+03  0.7546771E-02  0.1025786E+00
         21   -1    0    0  502  501  0.00000000000E+00  0.00000000000E+00  0.50514188777E+02  0.50514188777E+02  0.00000000000E+00 0. -1.
         21   -1    0    0  501  502 -0.00000000000E+00 -0.00000000000E+00 -0.10315930738E+04  0.10315930738E+04  0.00000000000E+00 0. -1.
      99926    2    1    2    0    0  0.00000000000E+00  0.00000000000E+00 -0.98107888502E+03  0.10821072626E+04  0.45655267942E+03 0.  0.
      99925    2    3    3    0    0 -0.99997485822E+02  0.50596289228E+02 -0.67358486095E+03  0.73173665223E+03  0.26298760743E+03 0.  0.
         25    1    4    4    0    0 -0.18360137958E+02  0.14013003182E+01 -0.25604364771E+03  0.28556070448E+03  0.12509000000E+03 0.  0.
         25    1    4    4    0    0 -0.81637347864E+02  0.49194988909E+02 -0.41754121324E+03  0.44617594775E+03  0.12509000000E+03 0.  0.
         25    1    3    3    0    0  0.99997485822E+02 -0.50596289228E+02 -0.30749402407E+03  0.35037061035E+03  0.12509000000E+03 0.  0.
<mgrwt>
<rscale>  2 0.45655268E+03</rscale>
<asrwt>0</asrwt>
<pdfrwt beam="1">  1       21 0.74285581E-02 0.45655268E+03</pdfrwt>
<pdfrwt beam="2">  1       21 0.15170485E+00 0.45655268E+03</pdfrwt>
<totfact> 0.35686567E+04</totfact>
</mgrwt>
</event>
<event>
 7    0  0.4707675E-002  0.4544128E+03  0.7546771E-02  0.1026414E+00
         21   -1    0    0  502  501  0.00000000000E+00  0.00000000000E+00  0.31264501710E+03  0.31264501710E+03  0.00000000000E+00 0. -1.
         21   -1    0    0  501  502 -0.00000000000E+00 -0.00000000000E+00 -0.16511617427E+03  0.16511617427E+03  0.00000000000E+00 0. -1.
      99926    2    1    2    0    0  0.00000000000E+00  0.00000000000E+00  0.14752884283E+03  0.47776119137E+03  0.45441280408E+03 0.  0.
      99925    2    3    3    0    0  0.83395548857E+02 -0.54976136118E+02  0.14952605897E+03  0.31767155996E+03  0.26187780469E+03 0.  0.
         25    1    4    4    0    0  0.46105604670E+02 -0.30671105093E+02  0.11927596810E+03  0.18149575239E+03  0.12509000000E+03 0.  0.
         25    1    3    3    0    0 -0.83395548857E+02  0.54976136118E+02 -0.19972161428E+01  0.16008963141E+03  0.12509000000E+03 0.  0.
         25    1    4    4    0    0  0.37289944187E+02 -0.24305031024E+02  0.30250090872E+02  0.13617580757E+03  0.12509000000E+03 0.  0.
<mgrwt>
<rscale>  2 0.45441280E+03</rscale>
<asrwt>0</asrwt>
<pdfrwt beam="1">  1       21 0.45977208E-01 0.45441280E+03</pdfrwt>
<pdfrwt beam="2">  1       21 0.24281790E-01 0.45441280E+03</pdfrwt>
<totfact> 0.67175957E+04</totfact>
</mgrwt>
</event>
<event>
 7    0  0.4707675E-002  0.4557149E+03  0.7546771E-02  0.1026031E+00
         21   -1    0    0  502  501  0.00000000000E+00  0.00000000000E+00  0.92955210444E+02  0.92955210444E+02  0.00000000000E+00 0.  1.
         21   -1    0    0  501  502 -0.00000000000E+00 -0.00000000000E+00 -0.55853794181E+03  0.55853794181E+03  0.00000000000E+00 0.  1.
      99926    2    1    2    0    0 -0.14210854715E-13  0.00000000000E+00 -0.46558273137E+03  0.65149315226E+03  0.45571487543E+03 0.  0.
      99925    2    3    3    0    0  0.84365238927E+02  0.75282716724E+02 -0.27511154440E+03  0.39710808559E+03  0.26310357049E+03 0.  0.
         25    1    4    4    0    0  0.75490114109E+01  0.26332216291E+02 -0.15604707129E+03  0.20186274977E+03  0.12509000000E+03 0.  0.
         25    1    4    4    0    0  0.76816227516E+02  0.48950500433E+02 -0.11906447312E+03  0.19524533582E+03  0.12509000000E+03 0.  0.
         25    1    3    3    0    0 -0.84365238927E+02 -0.75282716724E+02 -0.19047118697E+03  0.25438506666E+03  0.12509000000E+03 0.  0.
<mgrwt>
<rscale>  2 0.45571488E+03</rscale>
<asrwt>0</asrwt>
<pdfrwt beam="1">  1       21 0.13669885E-01 0.45571488E+03</pdfrwt>
<pdfrwt beam="2">  1       21 0.82137928E-01 0.45571488E+03</pdfrwt>
<totfact> 0.55303019E+04</totfact>
</mgrwt>
</event>
<event>
 7    0  0.4707675E-002  0.4573986E+03  0.7546771E-02  0.1025538E+00
         21   -1    0    0  502  501  0.00000000000E+00  0.00000000000E+00  0.11347671100E+03  0.11347671100E+03  0.00000000000E+00 0.  1.
         21   -1    0    0  501  502 -0.00000000000E+00 -0.00000000000E+00 -0.46091715312E+03  0.46091715312E+03  0.00000000000E+00 0.  1.
      99926    2    1    2    0    0  0.71054273576E-14  0.71054273576E-14 -0.34744044213E+03  0.57439386412E+03  0.45739856833E+03 0.  0.
      99925    2    3    3    0    0  0.48006198120E+02  0.47541910292E+02 -0.10063990022E+03  0.28957314177E+03  0.26298172299E+03 0.  0.
         25    1    4    4    0    0  0.13003873848E+02  0.47812203406E+02 -0.18314138698E+02  0.13578668309E+03  0.12509000000E+03 0.  0.
         25    1    4    4    0    0  0.35002324272E+02 -0.27029311355E+00 -0.82325761524E+02  0.15378645868E+03  0.12509000000E+03 0.  0.
         25    1    3    3    0    0 -0.48006198120E+02 -0.47541910292E+02 -0.24680054191E+03  0.28482072235E+03  0.12509000000E+03 0.  0.
<mgrwt>
<rscale>  2 0.45739857E+03</rscale>
<asrwt>0</asrwt>
<pdfrwt beam="1">  1       21 0.16687751E-01 0.45739857E+03</pdfrwt>
<pdfrwt beam="2">  1       21 0.67781935E-01 0.45739857E+03</pdfrwt>
<totfact> 0.59152876E+04</totfact>
</mgrwt>
</event>
<event>
 7    0  0.4707675E-002  0.4555938E+03  0.7546771E-02  0.1026067E+00
         21   -1    0    0  502  501  0.00000000000E+00  0.00000000000E+00  0.16212942713E+03  0.16212942713E+03  0.00000000000E+00 0. -1.
         21   -1    0    0  501  502 -0.00000000000E+00 -0.00000000000E+00 -0.32006180683E+03  0.32006180683E+03  0.00000000000E+00 0. -1.
      99926    2    1    2    0    0  0.00000000000E+00  0.00000000000E+00 -0.15793237970E+03  0.48219123396E+03  0.45559384274E+03 0.  0.
      99925    2    3    3    0    0  0.58275755137E+02 -0.18645258007E+02  0.20893453152E+01  0.27006351332E+03  0.26303274812E+03 0.  0.
         25    1    3    3    0    0 -0.58275755137E+02  0.18645258007E+02 -0.16002172502E+03  0.21212772063E+03  0.12509000000E+03 0.  0.
         25    1    4    4    0    0  0.85838379982E+01 -0.36719247454E+02  0.22990997924E+02  0.13265775324E+03  0.12509000000E+03 0.  0.
         25    1    4    4    0    0  0.49691917139E+02  0.18073989447E+02 -0.20901652609E+02  0.13740576009E+03  0.12509000000E+03 0.  0.
<mgrwt>
<rscale>  2 0.45559384E+03</rscale>
<asrwt>0</asrwt>
<pdfrwt beam="1">  1       21 0.23842563E-01 0.45559384E+03</pdfrwt>
<pdfrwt beam="2">  1       21 0.47067912E-01 0.45559384E+03</pdfrwt>
<totfact> 0.66228198E+04</totfact>
</mgrwt>
</event>
<event>
 6    0  0.4707675E-002  0.4565718E+03  0.7546771E-02  0.1025780E+00
         21   -1    0    0  502  501  0.00000000000E+00  0.00000000000E+00  0.98196260047E+03  0.98196260047E+03  0.00000000000E+00 0. -1.
         21   -1    0    0  501  502 -0.00000000000E+00 -0.00000000000E+00 -0.53071737386E+02  0.53071737386E+02  0.00000000000E+00 0. -1.
      99926    2    1    2    0    0  0.00000000000E+00 -0.11102230246E-15  0.92889086309E+03  0.10350343379E+04  0.45657183994E+03 0.  0.
         25    1    3    3    0    0 -0.62115428289E+02  0.60317508354E+00  0.12282458001E+03  0.18598945079E+03  0.12509000000E+03 0.  0.
         25    1    3    3    0    0  0.55441371592E+02 -0.11755815558E+02  0.35066093466E+03  0.37659334046E+03  0.12509000000E+03 0.  0.
         25    1    3    3    0    0  0.66740566970E+01  0.11152640474E+02  0.45540534842E+03  0.47245154661E+03  0.12509000000E+03 0.  0.
<mgrwt>
<rscale>  2 0.45657184E+03</rscale>
<asrwt>0</asrwt>
<pdfrwt beam="1">  1       21 0.14440625E+00 0.45657184E+03</pdfrwt>
<pdfrwt beam="2">  1       21 0.78046679E-02 0.45657184E+03</pdfrwt>
<totfact> 0.37370701E+04</totfact>
</mgrwt>
</event>
<event>
 7    0  0.4707675E-002  0.4510211E+03  0.7546771E-02  0.1027418E+00
         21   -1    0    0  502  501  0.00000000000E+00  0.00000000000E+00  0.43803403991E+03  0.43803403991E+03  0.00000000000E+00 0. -1.
         21   -1    0    0  501  502 -0.00000000000E+00 -0.00000000000E+00 -0.11609831697E+03  0.11609831697E+03  0.00000000000E+00 0. -1.
      99926    2    1    2    0    0  0.00000000000E+00 -0.71054273576E-14  0.32193572294E+03  0.55413235687E+03  0.45102112947E+03 0.  0.
      99925    2    3    3    0    0  0.89208759102E+02 -0.43836841591E+02  0.25961905272E+03  0.38263673924E+03  0.26292384886E+03 0.  0.
         25    1    3    3    0    0 -0.89208759102E+02  0.43836841591E+02  0.62316670225E+02  0.17149561764E+03  0.12509000000E+03 0.  0.
         25    1    4    4    0    0  0.35253119081E+02 -0.60538555385E+02  0.12164769879E+03  0.18802491806E+03  0.12509000000E+03 0.  0.
         25    1    4    4    0    0  0.53955640021E+02  0.16701713793E+02  0.13797135393E+03  0.19461182117E+03  0.12509000000E+03 0.  0.
<mgrwt>
<rscale>  2 0.45102113E+03</rscale>
<asrwt>0</asrwt>
<pdfrwt beam="1">  1       21 0.64416770E-01 0.45102113E+03</pdfrwt>
<pdfrwt beam="2">  1       21 0.17073282E-01 0.45102113E+03</pdfrwt>
<totfact> 0.63571802E+04</totfact>
</mgrwt>
</event>
<event>
 7    0  0.4707675E-002  0.4412942E+03  0.7546771E-02  0.1030350E+00
         21   -1    0    0  502  501  0.00000000000E+00  0.00000000000E+00  0.80263298184E+02  0.80263298184E+02  0.00000000000E+00 0. -1.
         21   -1    0    0  501  502 -0.00000000000E+00 -0.00000000000E+00 -0.60656801591E+03  0.60656801591E+03  0.00000000000E+00 0. -1.
      99926    2    1    2    0    0  0.00000000000E+00  0.14210854715E-13 -0.52630471772E+03  0.68683131409E+03  0.44129423078E+03 0.  0.
      99925    2    3    3    0    0 -0.38507958776E+02  0.71505284348E+02 -0.24512946121E+03  0.36855014664E+03  0.26295415809E+03 0.  0.
         25    1    4    4    0    0  0.25567429057E+01  0.65357598945E+02 -0.15020307075E+03  0.20612283531E+03  0.12509000000E+03 0.  0.
         25    1    4    4    0    0 -0.41064701682E+02  0.61476854026E+01 -0.94926390462E+02  0.16242731133E+03  0.12509000000E+03 0.  0.
         25    1    3    3    0    0  0.38507958776E+02 -0.71505284348E+02 -0.28117525651E+03  0.31828116745E+03  0.12509000000E+03 0.  0.
<mgrwt>
<rscale>  2 0.44129423E+03</rscale>
<asrwt>0</asrwt>
<pdfrwt beam="1">  1       21 0.11803426E-01 0.44129423E+03</pdfrwt>
<pdfrwt beam="2">  1       21 0.89201178E-01 0.44129423E+03</pdfrwt>
<totfact> 0.59821993E+04</totfact>
</mgrwt>
</event>
<event>
 7    0  0.4707675E-002  0.4524159E+03  0.7546771E-02  0.1027004E+00
         21   -1    0    0  502  501  0.00000000000E+00  0.00000000000E+00  0.16944591303E+03  0.16944591303E+03  0.00000000000E+00 0.  1.
         21   -1    0    0  501  502 -0.00000000000E+00 -0.00000000000E+00 -0.30198453921E+03  0.30198453921E+03  0.00000000000E+00 0.  1.
      99926    2    1    2    0    0  0.00000000000E+00  0.71054273576E-14 -0.13253862618E+03  0.47143045224E+03  0.45241594122E+03 0.  0.
      99925    2    3    3    0    0  0.82341128321E+02 -0.42611169013E+02 -0.14691624594E+03  0.31506550352E+03  0.26284237682E+03 0.  0.
         25    1    4    4    0    0  0.74776794597E+02 -0.25601303591E+01 -0.92890435442E+02  0.17284173215E+03  0.12509000000E+03 0.  0.
         25    1    3    3    0    0 -0.82341128321E+02  0.42611169013E+02  0.14377619756E+02  0.15636494872E+03  0.12509000000E+03 0.  0.
         25    1    4    4    0    0  0.75643337241E+01 -0.40051038654E+02 -0.54025810499E+02  0.14222377137E+03  0.12509000000E+03 0.  0.
<mgrwt>
<rscale>  2 0.45241594E+03</rscale>
<asrwt>0</asrwt>
<pdfrwt beam="1">  1       21 0.24918517E-01 0.45241594E+03</pdfrwt>
<pdfrwt beam="2">  1       21 0.44409490E-01 0.45241594E+03</pdfrwt>
<totfact> 0.68727877E+04</totfact>
</mgrwt>
</event>
<event>
 7    0  0.4707675E-002  0.4938713E+03  0.7546771E-02  0.1015391E+00
         21   -1    0    0  502  501  0.00000000000E+00  0.00000000000E+00  0.76029029961E+03  0.76029029961E+03  0.00000000000E+00 0.  1.
         21   -1    0    0  501  502 -0.00000000000E+00 -0.00000000000E+00 -0.80202535286E+02  0.80202535286E+02  0.00000000000E+00 0.  1.
      99926    2    1    2    0    0  0.00000000000E+00  0.00000000000E+00  0.68008776432E+03  0.84049283489E+03  0.49387127708E+03 0.  0.
      99925    2    3    3    0    0  0.85134833113E+02  0.10663390761E+03  0.50617082389E+03  0.58649807052E+03  0.26296835114E+03 0.  0.
         25    1    4    4    0    0  0.74275724757E+02  0.53898718933E+02  0.21582800284E+03  0.26580291590E+03  0.12509000000E+03 0.  0.
         25    1    4    4    0    0  0.10859108356E+02  0.52735188679E+02  0.29034282105E+03  0.32069515462E+03  0.12509000000E+03 0.  0.
         25    1    3    3    0    0 -0.85134833113E+02 -0.10663390761E+03  0.17391694043E+03  0.25399476438E+03  0.12509000000E+03 0.  0.
<mgrwt>
<rscale>  2 0.49387128E+03</rscale>
<asrwt>0</asrwt>
<pdfrwt beam="1">  1       21 0.11180739E+00 0.49387128E+03</pdfrwt>
<pdfrwt beam="2">  1       21 0.11794491E-01 0.49387128E+03</pdfrwt>
<totfact> 0.34186393E+04</totfact>
</mgrwt>
</event>
<event>
 7    0  0.4707675E-002  0.4589675E+03  0.7546771E-02  0.1025081E+00
         21   -1    0    0  502  501  0.00000000000E+00  0.00000000000E+00  0.12357402693E+04  0.12357402693E+04  0.00000000000E+00 0.  1.
         21   -1    0    0  501  502 -0.00000000000E+00 -0.00000000000E+00 -0.42616391911E+02  0.42616391911E+02  0.00000000000E+00 0.  1.
      99926    2    1    2    0    0  0.35527136788E-14  0.00000000000E+00  0.11931238773E+04  0.12783566612E+04  0.45896750044E+03 0.  0.
      99925    2    3    3    0    0  0.14957935456E+02  0.88938899626E+02  0.54020476430E+03  0.60747310646E+03  0.26280890395E+03 0.  0.
         25    1    3    3    0    0 -0.14957935456E+02 -0.88938899626E+02  0.65291911304E+03  0.67088355471E+03  0.12509000000E+03 0.  0.
         25    1    4    4    0    0  0.41952307801E+02  0.36280630510E+02  0.31036887744E+03  0.33919408671E+03  0.12509000000E+03 0.  0.
         25    1    4    4    0    0 -0.26994372344E+02  0.52658269116E+02  0.22983588686E+03  0.26827901974E+03  0.12509000000E+03 0.  0.
<mgrwt>
<rscale>  2 0.45896750E+03</rscale>
<asrwt>0</asrwt>
<pdfrwt beam="1">  1       21 0.18172649E+00 0.45896750E+03</pdfrwt>
<pdfrwt beam="2">  1       21 0.62671173E-02 0.45896750E+03</pdfrwt>
<totfact> 0.28848770E+04</totfact>
</mgrwt>
</event>
<event>
 7    0  0.4707675E-002  0.4659080E+03  0.7546771E-02  0.1023082E+00
         21   -1    0    0  502  501  0.00000000000E+00  0.00000000000E+00  0.32179590554E+03  0.32179590554E+03  0.00000000000E+00 0.  1.
         21   -1    0    0  501  502 -0.00000000000E+00 -0.00000000000E+00 -0.16863972339E+03  0.16863972339E+03  0.00000000000E+00 0.  1.
      99926    2    1    2    0    0  0.00000000000E+00  0.00000000000E+00  0.15315618216E+03  0.49043562893E+03  0.46590802740E+03 0.  0.
      99925    2    3    3    0    0  0.55493972839E+02  0.32155716780E+02  0.20605610563E+03  0.34023748931E+03  0.26303775265E+03 0.  0.
         25    1    4    4    0    0  0.44811829904E+02  0.50917107613E+02  0.12674525981E+03  0.19055844492E+03  0.12509000000E+03 0.  0.
         25    1    4    4    0    0  0.10682142935E+02 -0.18761390833E+02  0.79310845816E+02  0.14967904438E+03  0.12509000000E+03 0.  0.
         25    1    3    3    0    0 -0.55493972839E+02 -0.32155716780E+02 -0.52899923474E+02  0.15019813962E+03  0.12509000000E+03 0.  0.
<mgrwt>
<rscale>  2 0.46590803E+03</rscale>
<asrwt>0</asrwt>
<pdfrwt beam="1">  1       21 0.47322928E-01 0.46590803E+03</pdfrwt>
<pdfrwt beam="2">  1       21 0.24799959E-01 0.46590803E+03</pdfrwt>
<totfact> 0.60534063E+04</totfact>
</mgrwt>
</event>
<event>
 7    0  0.4707675E-002  0.4625423E+03  0.7546771E-02  0.1024046E+00
         21   -1    0    0  502  501  0.00000000000E+00  0.00000000000E+00  0.43466548678E+03  0.43466548678E+03  0.00000000000E+00 0.  1.
         21   -1    0    0  501  502 -0.00000000000E+00 -0.00000000000E+00 -0.12305172803E+03  0.12305172803E+03  0.00000000000E+00 0.  1.
      99926    2    1    2    0    0  0.00000000000E+00  0.00000000000E+00  0.31161375874E+03  0.55771721481E+03  0.46254227597E+03 0.  0.
      99925    2    3    3    0    0  0.82858178311E+02  0.54849216183E+02  0.27492335612E+03  0.39380379872E+03  0.26386486299E+03 0.  0.
         25    1    4    4    0    0  0.28063726756E+02 -0.14019351289E+02  0.12229863651E+03  0.17773176295E+03  0.12509000000E+03 0.  0.
         25    1    3    3    0    0 -0.82858178311E+02 -0.54849216183E+02  0.36690402628E+02  0.16391341609E+03  0.12509000000E+03 0.  0.
         25    1    4    4    0    0  0.54794451555E+02  0.68868567472E+02  0.15262471961E+03  0.21607203577E+03  0.12509000000E+03 0.  0.
<mgrwt>
<rscale>  2 0.46254228E+03</rscale>
<asrwt>0</asrwt>
<pdfrwt beam="1">  1       21 0.63921394E-01 0.46254228E+03</pdfrwt>
<pdfrwt beam="2">  1       21 0.18095843E-01 0.46254228E+03</pdfrwt>
<totfact> 0.57831020E+04</totfact>
</mgrwt>
</event>
<event>
 7    0  0.4707675E-002  0.4542612E+03  0.7546771E-02  0.1026459E+00
         21   -1    0    0  502  501  0.00000000000E+00  0.00000000000E+00  0.10031327534E+04  0.10031327534E+04  0.00000000000E+00 0.  1.
         21   -1    0    0  501  502 -0.00000000000E+00 -0.00000000000E+00 -0.51427206514E+02  0.51427206514E+02  0.00000000000E+00 0.  1.
      99926    2    1    2    0    0  0.00000000000E+00  0.00000000000E+00  0.95170554688E+03  0.10545599599E+04  0.45426122560E+03 0.  0.
      99925    2    3    3    0    0 -0.15052170650E+02 -0.10187026309E+03  0.49467183187E+03  0.56965641991E+03  0.26306671617E+03 0.  0.
         25    1    4    4    0    0  0.12837537326E+02 -0.53113433083E+02  0.31765155667E+03  0.34573958219E+03  0.12509000000E+03 0.  0.
         25    1    3    3    0    0  0.15052170650E+02  0.10187026309E+03  0.45703371501E+03  0.48490354000E+03  0.12509000000E+03 0.  0.
         25    1    4    4    0    0 -0.27889707976E+02 -0.48756830011E+02  0.17702027520E+03  0.22391683772E+03  0.12509000000E+03 0.  0.
<mgrwt>
<rscale>  2 0.45426123E+03</rscale>
<asrwt>0</asrwt>
<pdfrwt beam="1">  1       21 0.14751951E+00 0.45426123E+03</pdfrwt>
<pdfrwt beam="2">  1       21 0.75628251E-02 0.45426123E+03</pdfrwt>
<totfact> 0.37325268E+04</totfact>
</mgrwt>
</event>
<event>
 7    0  0.4707675E-002  0.4546558E+03  0.7546771E-02  0.1026343E+00
         21   -1    0    0  502  501  0.00000000000E+00  0.00000000000E+00  0.62118898855E+02  0.62118898855E+02  0.00000000000E+00 0.  1.
         21   -1    0    0  501  502 -0.00000000000E+00 -0.00000000000E+00 -0.83192046370E+03  0.83192046370E+03  0.00000000000E+00 0.  1.
      99926    2    1    2    0    0  0.00000000000E+00  0.00000000000E+00 -0.76980156485E+03  0.89403936256E+03  0.45465583969E+03 0.  0.
      99925    2    3    3    0    0  0.39577240735E+02 -0.10566551458E+03 -0.47003587176E+03  0.55018105190E+03  0.26274304972E+03 0.  0.
         25    1    4    4    0    0 -0.64494528040E+01 -0.30894374150E+02 -0.26202144082E+03  0.29205958527E+03  0.12509000000E+03 0.  0.
         25    1    3    3    0    0 -0.39577240735E+02  0.10566551458E+03 -0.29976569309E+03  0.34385831066E+03  0.12509000000E+03 0.  0.
         25    1    4    4    0    0  0.46026693539E+02 -0.74771140429E+02 -0.20801443093E+03  0.25812146663E+03  0.12509000000E+03 0.  0.
<mgrwt>
<rscale>  2 0.45465584E+03</rscale>
<asrwt>0</asrwt>
<pdfrwt beam="1">  1       21 0.91351334E-02 0.45465584E+03</pdfrwt>
<pdfrwt beam="2">  1       21 0.12234123E+00 0.45465584E+03</pdfrwt>
<totfact> 0.43609811E+04</totfact>
</mgrwt>
</event>
<event>
 7    0  0.4707675E-002  0.4614482E+03  0.7546771E-02  0.1024362E+00
         21   -1    0    0  502  501  0.00000000000E+00  0.00000000000E+00  0.73731068141E+03  0.73731068141E+03  0.00000000000E+00 0.  1.
         21   -1    0    0  501  502 -0.00000000000E+00 -0.00000000000E+00 -0.72199689938E+02  0.72199689938E+02  0.00000000000E+00 0.  1.
      99926    2    1    2    0    0  0.71054273576E-14  0.00000000000E+00  0.66511099147E+03  0.80951037135E+03  0.46144816647E+03 0.  0.
      99925    2    3    3    0    0  0.58884443875E+02 -0.92227288184E+02  0.33337310945E+03  0.43847023755E+03  0.26295487959E+03 0.  0.
         25    1    4    4    0    0  0.98570508655E+00 -0.74990548675E+02  0.17487151409E+03  0.22771058066E+03  0.12509000000E+03 0.  0.
         25    1    3    3    0    0 -0.58884443875E+02  0.92227288184E+02  0.33173788203E+03  0.37104013380E+03  0.12509000000E+03 0.  0.
         25    1    4    4    0    0  0.57898738788E+02 -0.17236739508E+02  0.15850159536E+03  0.21075965689E+03  0.12509000000E+03 0.  0.
<mgrwt>
<rscale>  2 0.46144817E+03</rscale>
<asrwt>0</asrwt>
<pdfrwt beam="1">  1       21 0.10842804E+00 0.46144817E+03</pdfrwt>
<pdfrwt beam="2">  1       21 0.10617602E-01 0.46144817E+03</pdfrwt>
<totfact> 0.44988256E+04</totfact>
</mgrwt>
</event>
<event>
 7    0  0.4707675E-002  0.4437160E+03  0.7546771E-02  0.1029613E+00
         21   -1    0    0  502  501  0.00000000000E+00  0.00000000000E+00  0.75135354605E+02  0.75135354605E+02  0.00000000000E+00 0.  1.
         21   -1    0    0  501  502 -0.00000000000E+00 -0.00000000000E+00 -0.65509728028E+03  0.65509728028E+03  0.00000000000E+00 0.  1.
      99926    2    1    2    0    0  0.00000000000E+00  0.17763568394E-14 -0.57996192567E+03  0.73023263488E+03  0.44371597426E+03 0.  0.
      99925    2    3    3    0    0 -0.73943454596E+02  0.10909375198E+02 -0.25406992888E+03  0.37324558944E+03  0.26300968105E+03 0.  0.
         25    1    3    3    0    0  0.73943454596E+02 -0.10909375198E+02 -0.32589199679E+03  0.35698704544E+03  0.12509000000E+03 0.  0.
         25    1    4    4    0    0 -0.64970695430E+01 -0.22881347322E+02 -0.12035737969E+03  0.17521180015E+03  0.12509000000E+03 0.  0.
         25    1    4    4    0    0 -0.67446385054E+02  0.33790722520E+02 -0.13371254920E+03  0.19803378928E+03  0.12509000000E+03 0.  0.
<mgrwt>
<rscale>  2 0.44371597E+03</rscale>
<asrwt>0</asrwt>
<pdfrwt beam="1">  1       21 0.11049317E-01 0.44371597E+03</pdfrwt>
<pdfrwt beam="2">  1       21 0.96337838E-01 0.44371597E+03</pdfrwt>
<totfact> 0.56107249E+04</totfact>
</mgrwt>
</event>
<event>
 7    0  0.4707675E-002  0.4503736E+03  0.7546771E-02  0.1027611E+00
         21   -1    0    0  502  501  0.00000000000E+00  0.00000000000E+00  0.12185083067E+03  0.12185083067E+03  0.00000000000E+00 0.  1.
         21   -1    0    0  501  502 -0.00000000000E+00 -0.00000000000E+00 -0.41615717513E+03  0.41615717513E+03  0.00000000000E+00 0.  1.
      99926    2    1    2    0    0  0.00000000000E+00  0.00000000000E+00 -0.29430634447E+03  0.53800800580E+03  0.45037361147E+03 0.  0.
      99925    2    3    3    0    0  0.52846360757E+02  0.62314775659E+02 -0.27158518299E+03  0.38688015135E+03  0.26313850114E+03 0.  0.
         25    1    4    4    0    0  0.25866446963E+02  0.72878281018E+02 -0.14076498099E+03  0.20357456839E+03  0.12509000000E+03 0.  0.
         25    1    3    3    0    0 -0.52846360757E+02 -0.62314775659E+02 -0.22721161476E+02  0.15112785445E+03  0.12509000000E+03 0.  0.
         25    1    4    4    0    0  0.26979913794E+02 -0.10563505358E+02 -0.13082020200E+03  0.18330558296E+03  0.12509000000E+03 0.  0.
<mgrwt>
<rscale>  2 0.45037361E+03</rscale>
<asrwt>0</asrwt>
<pdfrwt beam="1">  1       21 0.17919239E-01 0.45037361E+03</pdfrwt>
<pdfrwt beam="2">  1       21 0.61199586E-01 0.45037361E+03</pdfrwt>
<totfact> 0.65013922E+04</totfact>
</mgrwt>
</event>
<event>
 7    0  0.4707675E-002  0.4552704E+03  0.7546771E-02  0.1026162E+00
         21   -1    0    0  502  501  0.00000000000E+00  0.00000000000E+00  0.37237130668E+02  0.37237130668E+02  0.00000000000E+00 0.  1.
         21   -1    0    0  501  502 -0.00000000000E+00 -0.00000000000E+00 -0.13915621650E+04  0.13915621650E+04  0.00000000000E+00 0.  1.
      99926    2    1    2    0    0  0.00000000000E+00  0.00000000000E+00 -0.13543250344E+04  0.14287992957E+04  0.45527039075E+03 0.  0.
      99925    2    3    3    0    0 -0.64312506883E+02 -0.85970127704E+02 -0.96478672263E+03  0.10058163577E+04  0.26329862121E+03 0.  0.
         25    1    3    3    0    0  0.64312506883E+02  0.85970127704E+02 -0.38953831173E+03  0.42298293796E+03  0.12509000000E+03 0.  0.
         25    1    4    4    0    0 -0.37600973246E+01 -0.48359515464E+02 -0.36167083865E+03  0.38575391728E+03  0.12509000000E+03 0.  0.
         25    1    4    4    0    0 -0.60552409559E+02 -0.37610612240E+02 -0.60311588398E+03  0.62006244046E+03  0.12509000000E+03 0.  0.
<mgrwt>
<rscale>  2 0.45527039E+03</rscale>
<asrwt>0</asrwt>
<pdfrwt beam="1">  1       21 0.54760498E-02 0.45527039E+03</pdfrwt>
<pdfrwt beam="2">  1       21 0.20464145E+00 0.45527039E+03</pdfrwt>
<totfact> 0.25520924E+04</totfact>
</mgrwt>
</event>
<event>
 7    0  0.4707675E-002  0.4137826E+03  0.7546771E-02  0.1039109E+00
         21   -1    0    0  502  501  0.00000000000E+00  0.00000000000E+00  0.10252632601E+04  0.10252632601E+04  0.00000000000E+00 0.  1.
         21   -1    0    0  501  502 -0.00000000000E+00 -0.00000000000E+00 -0.41749288832E+02  0.41749288832E+02  0.00000000000E+00 0.  1.
      99926    2    1    2    0    0 -0.71054273576E-14  0.00000000000E+00  0.98351397127E+03  0.10670125489E+04  0.41378260947E+03 0.  0.
      99925    2    3    3    0    0 -0.47870094839E+02  0.43875126537E+02  0.59596507439E+03  0.65463138026E+03  0.26296635034E+03 0.  0.
         25    1    3    3    0    0  0.47870094839E+02 -0.43875126537E+02  0.38754889687E+03  0.41238116867E+03  0.12509000000E+03 0.  0.
         25    1    4    4    0    0 -0.12850034334E+01  0.11517983640E+02  0.20710642386E+03  0.24222901165E+03  0.12509000000E+03 0.  0.
         25    1    4    4    0    0 -0.46585091406E+02  0.32357142897E+02  0.38885865054E+03  0.41240236861E+03  0.12509000000E+03 0.  0.
<mgrwt>
<rscale>  2 0.41378261E+03</rscale>
<asrwt>0</asrwt>
<pdfrwt beam="1">  1       21 0.15077399E+00 0.41378261E+03</pdfrwt>
<pdfrwt beam="2">  1       21 0.61396019E-02 0.41378261E+03</pdfrwt>
<totfact> 0.51269602E+04</totfact>
</mgrwt>
</event>
<event>
 7    0  0.4707675E-002  0.4581770E+03  0.7546771E-02  0.1025311E+00
         21   -1    0    0  502  501  0.00000000000E+00  0.00000000000E+00  0.81505573033E+02  0.81505573033E+02  0.00000000000E+00 0.  1.
         21   -1    0    0  501  502 -0.00000000000E+00 -0.00000000000E+00 -0.64390123965E+03  0.64390123965E+03  0.00000000000E+00 0.  1.
      99926    2    1    2    0    0  0.00000000000E+00  0.14210854715E-13 -0.56239566662E+03  0.72540681268E+03  0.45817699425E+03 0.  0.
      99925    2    3    3    0    0  0.65378091857E+02  0.73092500317E+02 -0.25434693777E+03  0.37876818826E+03  0.26297560189E+03 0.  0.
         25    1    3    3    0    0 -0.65378091857E+02 -0.73092500317E+02 -0.30804872885E+03  0.34663862442E+03  0.12509000000E+03 0.  0.
         25    1    4    4    0    0  0.31807128720E+01  0.12767087055E+02 -0.14150339941E+03  0.18932468299E+03  0.12509000000E+03 0.  0.
         25    1    4    4    0    0  0.62197378985E+02  0.60325413262E+02 -0.11284353836E+03  0.18944350527E+03  0.12509000000E+03 0.  0.
<mgrwt>
<rscale>  2 0.45817699E+03</rscale>
<asrwt>0</asrwt>
<pdfrwt beam="1">  1       21 0.11986113E-01 0.45817699E+03</pdfrwt>
<pdfrwt beam="2">  1       21 0.94691364E-01 0.45817699E+03</pdfrwt>
<totfact> 0.50277161E+04</totfact>
</mgrwt>
</event>
<event>
 7    0  0.4707675E-002  0.4270837E+03  0.7546771E-02  0.1034785E+00
         21   -1    0    0  502  501  0.00000000000E+00  0.00000000000E+00  0.13785081898E+03  0.13785081898E+03  0.00000000000E+00 0.  1.
         21   -1    0    0  501  502 -0.00000000000E+00 -0.00000000000E+00 -0.33079330308E+03  0.33079330308E+03  0.00000000000E+00 0.  1.
      99926    2    1    2    0    0  0.00000000000E+00  0.00000000000E+00 -0.19294248410E+03  0.46864412206E+03  0.42708372829E+03 0.  0.
      99925    2    3    3    0    0  0.59015469161E+02 -0.17764389818E+02 -0.18804645626E+03  0.32910961617E+03  0.26297009449E+03 0.  0.
         25    1    4    4    0    0  0.65560348664E+01 -0.30106297334E+02 -0.12319996934E+03  0.17825574683E+03  0.12509000000E+03 0.  0.
         25    1    3    3    0    0 -0.59015469161E+02  0.17764389818E+02 -0.48960278415E+01  0.13953450589E+03  0.12509000000E+03 0.  0.
         25    1    4    4    0    0  0.52459434295E+02  0.12341907517E+02 -0.64846486927E+02  0.15085386934E+03  0.12509000000E+03 0.  0.
<mgrwt>
<rscale>  2 0.42708373E+03</rscale>
<asrwt>0</asrwt>
<pdfrwt beam="1">  1       21 0.20272179E-01 0.42708373E+03</pdfrwt>
<pdfrwt beam="2">  1       21 0.48646073E-01 0.42708373E+03</pdfrwt>
<totfact> 0.84833069E+04</totfact>
</mgrwt>
</event>
<event>
 7    0  0.4707675E-002  0.4543014E+03  0.7546771E-02  0.1026447E+00
         21   -1    0    0  502  501  0.00000000000E+00  0.00000000000E+00  0.22594290192E+03  0.22594290192E+03  0.00000000000E+00 0.  1.
         21   -1    0    0  501  502 -0.00000000000E+00 -0.00000000000E+00 -0.22836497388E+03  0.22836497388E+03  0.00000000000E+00 0.  1.
      99926    2    1    2    0    0 -0.35527136788E-14  0.00000000000E+00 -0.24220719565E+01  0.45430787580E+03  0.45430141931E+03 0.  0.
      99925    2    3    3    0    0 -0.27771418895E+02  0.87260625372E+02 -0.66929775396E+02  0.28639593355E+03  0.26297788400E+03 0.  0.
         25    1    3    3    0    0  0.27771418895E+02 -0.87260625372E+02  0.64507703440E+02  0.16791194225E+03  0.12509000000E+03 0.  0.
         25    1    4    4    0    0  0.96699959178E+01  0.95691605719E+01 -0.40432358074E+02  0.13216414542E+03  0.12509000000E+03 0.  0.
         25    1    4    4    0    0 -0.37441414813E+02  0.77691464800E+02 -0.26497417322E+02  0.15423178813E+03  0.12509000000E+03 0.  0.
<mgrwt>
<rscale>  2 0.45430142E+03</rscale>
<asrwt>0</asrwt>
<pdfrwt beam="1">  1       21 0.33226898E-01 0.45430142E+03</pdfrwt>
<pdfrwt beam="2">  1       21 0.33583084E-01 0.45430142E+03</pdfrwt>
<totfact> 0.68980215E+04</totfact>
</mgrwt>
</event>
<event>
 7    0  0.4707675E-002  0.4579536E+03  0.7546771E-02  0.1025376E+00
         21   -1    0    0  502  501  0.00000000000E+00  0.00000000000E+00  0.48939959380E+03  0.48939959380E+03  0.00000000000E+00 0.  1.
         21   -1    0    0  501  502 -0.00000000000E+00 -0.00000000000E+00 -0.10713201664E+03  0.10713201664E+03  0.00000000000E+00 0.  1.
      99926    2    1    2    0    0  0.00000000000E+00  0.00000000000E+00  0.38226757716E+03  0.59653161043E+03  0.45795355845E+03 0.  0.
      99925    2    3    3    0    0  0.53728024683E+02 -0.50651486921E+02  0.35639819458E+03  0.44898837332E+03  0.26290418884E+03 0.  0.
         25    1    4    4    0    0  0.51743568671E+02 -0.58947181639E+02  0.18848432826E+03  0.23942852215E+03  0.12509000000E+03 0.  0.
         25    1    3    3    0    0 -0.53728024683E+02  0.50651486921E+02  0.25869382581E+02  0.14754323712E+03  0.12509000000E+03 0.  0.
         25    1    4    4    0    0  0.19844560121E+01  0.82956947184E+01  0.16791386632E+03  0.20955985116E+03  0.12509000000E+03 0.  0.
<mgrwt>
<rscale>  2 0.45795356E+03</rscale>
<asrwt>0</asrwt>
<pdfrwt beam="1">  1       21 0.71970528E-01 0.45795356E+03</pdfrwt>
<pdfrwt beam="2">  1       21 0.15754709E-01 0.45795356E+03</pdfrwt>
<totfact> 0.57537562E+04</totfact>
</mgrwt>
</event>
<event>
 7    0  0.4707675E-002  0.4575656E+03  0.7546771E-02  0.1025490E+00
         21   -1    0    0  502  501  0.00000000000E+00  0.00000000000E+00  0.41751299259E+03  0.41751299259E+03  0.00000000000E+00 0. -1.
         21   -1    0    0  501  502 -0.00000000000E+00 -0.00000000000E+00 -0.12536514209E+03  0.12536514209E+03  0.00000000000E+00 0. -1.
      99926    2    1    2    0    0  0.00000000000E+00  0.71054273576E-14  0.29214785050E+03  0.54287813468E+03  0.45756562651E+03 0.  0.
      99925    2    3    3    0    0  0.92231079982E+02 -0.47807645341E+02  0.12339976586E+03  0.30853742709E+03  0.26301273473E+03 0.  0.
         25    1    4    4    0    0  0.72493705235E+02 -0.19067387460E+01  0.87997719370E+02  0.16926334413E+03  0.12509000000E+03 0.  0.
         25    1    4    4    0    0  0.19737374748E+02 -0.45900906595E+02  0.35402046489E+02  0.13927408296E+03  0.12509000000E+03 0.  0.
         25    1    3    3    0    0 -0.92231079982E+02  0.47807645341E+02  0.16874808464E+03  0.23434070760E+03  0.12509000000E+03 0.  0.
<mgrwt>
<rscale>  2 0.45756563E+03</rscale>
<asrwt>0</asrwt>
<pdfrwt beam="1">  1       21 0.61398969E-01 0.45756563E+03</pdfrwt>
<pdfrwt beam="2">  1       21 0.18436050E-01 0.45756563E+03</pdfrwt>
<totfact> 0.61089824E+04</totfact>
</mgrwt>
</event>
<event>
 7    0  0.4707675E-002  0.4408772E+03  0.7546771E-02  0.1030478E+00
         21   -1    0    0  502  501  0.00000000000E+00  0.00000000000E+00  0.19304170666E+03  0.19304170666E+03  0.00000000000E+00 0. -1.
         21   -1    0    0  501  502 -0.00000000000E+00 -0.00000000000E+00 -0.25172374837E+03  0.25172374837E+03  0.00000000000E+00 0. -1.
      99926    2    1    2    0    0  0.00000000000E+00  0.00000000000E+00 -0.58682041714E+02  0.44476545503E+03  0.44087722551E+03 0.  0.
      99925    2    3    3    0    0 -0.56276256198E+02  0.59140797462E+01 -0.11972561675E+03  0.29451293590E+03  0.26306207016E+03 0.  0.
         25    1    3    3    0    0  0.56276256198E+02 -0.59140797462E+01  0.61043575036E+02  0.15025251913E+03  0.12509000000E+03 0.  0.
         25    1    4    4    0    0  0.69294714282E+01 -0.15527551070E+02 -0.69434007011E+02  0.14407536863E+03  0.12509000000E+03 0.  0.
         25    1    4    4    0    0 -0.63205727627E+02  0.21441630816E+02 -0.50291609739E+02  0.15043756727E+03  0.12509000000E+03 0.  0.
<mgrwt>
<rscale>  2 0.44087723E+03</rscale>
<asrwt>0</asrwt>
<pdfrwt beam="1">  1       21 0.28388486E-01 0.44087723E+03</pdfrwt>
<pdfrwt beam="2">  1       21 0.37018198E-01 0.44087723E+03</pdfrwt>
<totfact> 0.77693907E+04</totfact>
</mgrwt>
</event>
<event>
 7    0  0.4707675E-002  0.4388904E+03  0.7546771E-02  0.1031088E+00
         21   -1    0    0  502  501  0.00000000000E+00  0.00000000000E+00  0.30863483780E+02  0.30863483780E+02  0.00000000000E+00 0.  1.
         21   -1    0    0  501  502 -0.00000000000E+00 -0.00000000000E+00 -0.15602970373E+04  0.15602970373E+04  0.00000000000E+00 0.  1.
      99926    2    1    2    0    0  0.14210854715E-13  0.17763568394E-14 -0.15294335535E+04  0.15911605211E+04  0.43889042962E+03 0.  0.
      99925    2    3    3    0    0  0.70591317844E+02 -0.51290757921E+01 -0.12194360714E+04  0.12494656446E+04  0.26292703038E+03 0.  0.
         25    1    3    3    0    0 -0.70591317844E+02  0.51290757921E+01 -0.30999748215E+03  0.34169487648E+03  0.12509000000E+03 0.  0.
         25    1    4    4    0    0  0.63801777719E+02 -0.16637868985E+02 -0.76393577691E+03  0.77691239202E+03  0.12509000000E+03 0.  0.
         25    1    4    4    0    0  0.67895401250E+01  0.11508793193E+02 -0.45550029448E+03  0.47255325260E+03  0.12509000000E+03 0.  0.
<mgrwt>
<rscale>  2 0.43889043E+03</rscale>
<asrwt>0</asrwt>
<pdfrwt beam="1">  1       21 0.45387467E-02 0.43889043E+03</pdfrwt>
<pdfrwt beam="2">  1       21 0.22945549E+00 0.43889043E+03</pdfrwt>
<totfact> 0.24562205E+04</totfact>
</mgrwt>
</event>
<event>
 7    0  0.4707675E-002  0.4664800E+03  0.7546771E-02  0.1022918E+00
         21   -1    0    0  502  501  0.00000000000E+00  0.00000000000E+00  0.20487292033E+03  0.20487292033E+03  0.00000000000E+00 0.  1.
         21   -1    0    0  501  502 -0.00000000000E+00 -0.00000000000E+00 -0.26553481048E+03  0.26553481048E+03  0.00000000000E+00 0.  1.
      99926    2    1    2    0    0 -0.14210854715E-13  0.14210854715E-13 -0.60661890148E+02  0.47040773081E+03  0.46647997630E+03 0.  0.
      99925    2    3    3    0    0  0.75733888981E+02 -0.94368640460E+02 -0.12130431924E+02  0.28973157638E+03  0.26297562003E+03 0.  0.
         25    1    4    4    0    0  0.38015104395E+02 -0.90052457776E+02 -0.61845900722E+01  0.15887212017E+03  0.12509000000E+03 0.  0.
         25    1    4    4    0    0  0.37718784587E+02 -0.43161826834E+01 -0.59458418522E+01  0.13085945621E+03  0.12509000000E+03 0.  0.
         25    1    3    3    0    0 -0.75733888981E+02  0.94368640460E+02 -0.48531458223E+02  0.18067615443E+03  0.12509000000E+03 0.  0.
<mgrwt>
<rscale>  2 0.46647998E+03</rscale>
<asrwt>0</asrwt>
<pdfrwt beam="1">  1       21 0.30128371E-01 0.46647998E+03</pdfrwt>
<pdfrwt beam="2">  1       21 0.39049237E-01 0.46647998E+03</pdfrwt>
<totfact> 0.61593536E+04</totfact>
</mgrwt>
</event>
<event>
 7    0  0.4707675E-002  0.4621590E+03  0.7546771E-02  0.1024157E+00
         21   -1    0    0  502  501  0.00000000000E+00  0.00000000000E+00  0.35367229857E+02  0.35367229857E+02  0.00000000000E+00 0. -1.
         21   -1    0    0  501  502 -0.00000000000E+00 -0.00000000000E+00 -0.15098080546E+04  0.15098080546E+04  0.00000000000E+00 0. -1.
      99926    2    1    2    0    0  0.00000000000E+00  0.00000000000E+00 -0.14744408248E+04  0.15451752845E+04  0.46215897052E+03 0.  0.
      99925    2    3    3    0    0 -0.47990052597E+02 -0.94599413442E+02 -0.74312124935E+03  0.79569017878E+03  0.26389690261E+03 0.  0.
         25    1    4    4    0    0 -0.47836879713E+02 -0.56164183049E+02 -0.48524142632E+03  0.50650718893E+03  0.12509000000E+03 0.  0.
         25    1    3    3    0    0  0.47990052597E+02  0.94599413442E+02 -0.73131957543E+03  0.74948510571E+03  0.12509000000E+03 0.  0.
         25    1    4    4    0    0 -0.15317288420E+00 -0.38435230393E+02 -0.25787982303E+03  0.28918298986E+03  0.12509000000E+03 0.  0.
<mgrwt>
<rscale>  2 0.46215897E+03</rscale>
<asrwt>0</asrwt>
<pdfrwt beam="1">  1       21 0.52010630E-02 0.46215897E+03</pdfrwt>
<pdfrwt beam="2">  1       21 0.22203061E+00 0.46215897E+03</pdfrwt>
<totfact> 0.21474373E+04</totfact>
</mgrwt>
</event>
<event>
 7    0  0.4707675E-002  0.4516777E+03  0.7546771E-02  0.1027223E+00
         21   -1    0    0  502  501  0.00000000000E+00  0.00000000000E+00  0.36315052924E+03  0.36315052924E+03  0.00000000000E+00 0.  1.
         21   -1    0    0  501  502 -0.00000000000E+00 -0.00000000000E+00 -0.14044637954E+03  0.14044637954E+03  0.00000000000E+00 0.  1.
      99926    2    1    2    0    0 -0.14210854715E-13  0.00000000000E+00  0.22270414970E+03  0.50359690878E+03  0.45167765967E+03 0.  0.
      99925    2    3    3    0    0 -0.83755753688E+02  0.27447663315E+02  0.67241318646E+02  0.28545796124E+03  0.26305218533E+03 0.  0.
         25    1    4    4    0    0  0.62201780077E+00  0.98495152493E+01  0.28124333060E+02  0.12859193624E+03  0.12509000000E+03 0.  0.
         25    1    4    4    0    0 -0.84377771488E+02  0.17598148066E+02  0.39116985585E+02  0.15686602500E+03  0.12509000000E+03 0.  0.
         25    1    3    3    0    0  0.83755753688E+02 -0.27447663315E+02  0.15546283105E+03  0.21813894754E+03  0.12509000000E+03 0.  0.
<mgrwt>
<rscale>  2 0.45167766E+03</rscale>
<asrwt>0</asrwt>
<pdfrwt beam="1">  1       21 0.53404489E-01 0.45167766E+03</pdfrwt>
<pdfrwt beam="2">  1       21 0.20653879E-01 0.45167766E+03</pdfrwt>
<totfact> 0.66761923E+04</totfact>
</mgrwt>
</event>
<event>
 7    0  0.4707675E-002  0.4597888E+03  0.7546771E-02  0.1024842E+00
         21   -1    0    0  502  501  0.00000000000E+00  0.00000000000E+00  0.18836237008E+03  0.18836237008E+03  0.00000000000E+00 0. -1.
         21   -1    0    0  501  502 -0.00000000000E+00 -0.00000000000E+00 -0.28058381909E+03  0.28058381909E+03  0.00000000000E+00 0. -1.
      99926    2    1    2    0    0  0.14210854715E-13  0.00000000000E+00 -0.92221449006E+02  0.46894618917E+03  0.45978879138E+03 0.  0.
      99925    2    3    3    0    0 -0.94725960147E+02 -0.66370548344E+02 -0.36530853655E+02  0.28970610514E+03  0.26309136602E+03 0.  0.
         25    1    3    3    0    0  0.94725960147E+02  0.66370548344E+02 -0.55690595351E+02  0.17924008403E+03  0.12509000000E+03 0.  0.
         25    1    4    4    0    0 -0.61045761078E+02 -0.18644097652E+02  0.17362038539E+02  0.14150313002E+03  0.12509000000E+03 0.  0.
         25    1    4    4    0    0 -0.33680199069E+02 -0.47726450693E+02 -0.53892892195E+02  0.14820297512E+03  0.12509000000E+03 0.  0.
<mgrwt>
<rscale>  2 0.45978879E+03</rscale>
<asrwt>0</asrwt>
<pdfrwt beam="1">  1       21 0.27700349E-01 0.45978879E+03</pdfrwt>
<pdfrwt beam="2">  1       21 0.41262326E-01 0.45978879E+03</pdfrwt>
<totfact> 0.65008179E+04</totfact>
</mgrwt>
</event>
<event>
 7    0  0.4707675E-002  0.4519478E+03  0.7546771E-02  0.1027143E+00
         21   -1    0    0  502  501  0.00000000000E+00  0.00000000000E+00  0.99116837240E+03  0.99116837240E+03  0.00000000000E+00 0.  1.
         21   -1    0    0  501  502 -0.00000000000E+00 -0.00000000000E+00 -0.51519201651E+02  0.51519201651E+02  0.00000000000E+00 0.  1.
      99926    2    1    2    0    0  0.00000000000E+00 -0.35527136788E-14  0.93964917074E+03  0.10426875740E+04  0.45194779897E+03 0.  0.
      99925    2    3    3    0    0 -0.74843805418E+02  0.31668080530E+02  0.76480684399E+03  0.81285761547E+03  0.26306564178E+03 0.  0.
         25    1    3    3    0    0  0.74843805418E+02 -0.31668080530E+02  0.17484232676E+03  0.22982995858E+03  0.12509000000E+03 0.  0.
         25    1    4    4    0    0 -0.13875646496E+01 -0.63175727043E+01  0.36013085743E+03  0.38129198737E+03  0.12509000000E+03 0.  0.
         25    1    4    4    0    0 -0.73456240768E+02  0.37985653234E+02  0.40467598656E+03  0.43156562810E+03  0.12509000000E+03 0.  0.
<mgrwt>
<rscale>  2 0.45194780E+03</rscale>
<asrwt>0</asrwt>
<pdfrwt beam="1">  1       21 0.14576004E+00 0.45194780E+03</pdfrwt>
<pdfrwt beam="2">  1       21 0.75763539E-02 0.45194780E+03</pdfrwt>
<totfact> 0.38454905E+04</totfact>
</mgrwt>
</event>
<event>
 7    0  0.4707675E-002  0.4566185E+03  0.7546771E-02  0.1025767E+00
         21   -1    0    0  502  501  0.00000000000E+00  0.00000000000E+00  0.92777927401E+02  0.92777927401E+02  0.00000000000E+00 0. -1.
         21   -1    0    0  501  502 -0.00000000000E+00 -0.00000000000E+00 -0.56182669805E+03  0.56182669805E+03  0.00000000000E+00 0. -1.
      99926    2    1    2    0    0  0.00000000000E+00  0.00000000000E+00 -0.46904877065E+03  0.65460462545E+03  0.45661851300E+03 0.  0.
      99925    2    3    3    0    0  0.66502827472E+02 -0.59343094878E+02 -0.19126485758E+03  0.33718433714E+03  0.26299582220E+03 0.  0.
         25    1    4    4    0    0  0.62027902073E+02 -0.35768371015E+02 -0.13659622201E+03  0.19857712096E+03  0.12509000000E+03 0.  0.
         25    1    3    3    0    0 -0.66502827472E+02  0.59343094878E+02 -0.27778391307E+03  0.31742028831E+03  0.12509000000E+03 0.  0.
         25    1    4    4    0    0  0.44749253989E+01 -0.23574723863E+02 -0.54668635570E+02  0.13860721618E+03  0.12509000000E+03 0.  0.
<mgrwt>
<rscale>  2 0.45661851E+03</rscale>
<asrwt>0</asrwt>
<pdfrwt beam="1">  1       21 0.13643812E-01 0.45661851E+03</pdfrwt>
<pdfrwt beam="2">  1       21 0.82621575E-01 0.45661851E+03</pdfrwt>
<totfact> 0.54734865E+04</totfact>
</mgrwt>
</event>
<event>
 7    0  0.4707675E-002  0.4523009E+03  0.7546771E-02  0.1027038E+00
         21   -1    0    0  502  501  0.00000000000E+00  0.00000000000E+00  0.83180513119E+03  0.83180513119E+03  0.00000000000E+00 0. -1.
         21   -1    0    0  501  502 -0.00000000000E+00 -0.00000000000E+00 -0.61485597253E+02  0.61485597253E+02  0.00000000000E+00 0. -1.
      99926    2    1    2    0    0  0.00000000000E+00 -0.14210854715E-13  0.77031953393E+03  0.89329072844E+03  0.45230094092E+03 0.  0.
      99925    2    3    3    0    0  0.35383187397E+02  0.85658875285E+02  0.60572346324E+03  0.66673215444E+03  0.26275737664E+03 0.  0.
         25    1    4    4    0    0  0.32172566482E+01  0.21472226884E+02  0.20824728022E+03  0.24389720189E+03  0.12509000000E+03 0.  0.
         25    1    4    4    0    0  0.32165930749E+02  0.64186648402E+02  0.39747618302E+03  0.42283495255E+03  0.12509000000E+03 0.  0.
         25    1    3    3    0    0 -0.35383187397E+02 -0.85658875285E+02  0.16459607069E+03  0.22655857400E+03  0.12509000000E+03 0.  0.
<mgrwt>
<rscale>  2 0.45230094E+03</rscale>
<asrwt>0</asrwt>
<pdfrwt beam="1">  1       21 0.12232428E+00 0.45230094E+03</pdfrwt>
<pdfrwt beam="2">  1       21 0.90420001E-02 0.45230094E+03</pdfrwt>
<totfact> 0.44457190E+04</totfact>
</mgrwt>
</event>
<event>
 7    0  0.4707675E-002  0.4542394E+03  0.7546771E-02  0.1026465E+00
         21   -1    0    0  502  501  0.00000000000E+00  0.00000000000E+00  0.10085965724E+03  0.10085965724E+03  0.00000000000E+00 0.  1.
         21   -1    0    0  501  502 -0.00000000000E+00 -0.00000000000E+00 -0.51143693963E+03  0.51143693963E+03  0.00000000000E+00 0.  1.
      99926    2    1    2    0    0  0.17763568394E-14  0.00000000000E+00 -0.41057728239E+03  0.61229659687E+03  0.45423938372E+03 0.  0.
      99925    2    3    3    0    0 -0.14941913570E+01  0.98610668570E+02 -0.33132073284E+03  0.43437693717E+03  0.26302775323E+03 0.  0.
         25    1    4    4    0    0  0.38576612255E+02  0.39374672656E+02 -0.16769158215E+03  0.21634808685E+03  0.12509000000E+03 0.  0.
         25    1    4    4    0    0 -0.40070803612E+02  0.59235995914E+02 -0.16362915069E+03  0.21802885031E+03  0.12509000000E+03 0.  0.
         25    1    3    3    0    0  0.14941913570E+01 -0.98610668570E+02 -0.79256549549E+02  0.17791965971E+03  0.12509000000E+03 0.  0.
<mgrwt>
<rscale>  2 0.45423938E+03</rscale>
<asrwt>0</asrwt>
<pdfrwt beam="1">  1       21 0.14832302E-01 0.45423938E+03</pdfrwt>
<pdfrwt beam="2">  1       21 0.75211316E-01 0.45423938E+03</pdfrwt>
<totfact> 0.58277012E+04</totfact>
</mgrwt>
</event>
<event>
 7    0  0.4707675E-002  0.4542123E+03  0.7546771E-02  0.1026473E+00
         21   -1    0    0  502  501  0.00000000000E+00  0.00000000000E+00  0.54088155742E+03  0.54088155742E+03  0.00000000000E+00 0. -1.
         21   -1    0    0  501  502 -0.00000000000E+00 -0.00000000000E+00 -0.95357649255E+02  0.95357649255E+02  0.00000000000E+00 0. -1.
      99926    2    1    2    0    0  0.00000000000E+00  0.00000000000E+00  0.44552390817E+03  0.63623920668E+03  0.45421225805E+03 0.  0.
      99925    2    3    3    0    0 -0.11134541321E+02 -0.66907872068E+02  0.40618245746E+03  0.48860486380E+03  0.26296365304E+03 0.  0.
         25    1    4    4    0    0 -0.27282012641E+02 -0.18047855695E+02  0.14359778101E+03  0.19323008078E+03  0.12509000000E+03 0.  0.
         25    1    4    4    0    0  0.16147471320E+02 -0.48860016373E+02  0.26258467646E+03  0.29537478301E+03  0.12509000000E+03 0.  0.
         25    1    3    3    0    0  0.11134541321E+02  0.66907872068E+02  0.39341450705E+02  0.14763434288E+03  0.12509000000E+03 0.  0.
<mgrwt>
<rscale>  2 0.45421226E+03</rscale>
<asrwt>0</asrwt>
<pdfrwt beam="1">  1       21 0.79541404E-01 0.45421226E+03</pdfrwt>
<pdfrwt beam="2">  1       21 0.14023184E-01 0.45421226E+03</pdfrwt>
<totfact> 0.56853943E+04</totfact>
</mgrwt>
</event>
<event>
 7    0  0.4707675E-002  0.4551511E+03  0.7546771E-02  0.1026197E+00
         21   -1    0    0  502  501  0.00000000000E+00  0.00000000000E+00  0.12401594804E+04  0.12401594804E+04  0.00000000000E+00 0.  1.
         21   -1    0    0  501  502 -0.00000000000E+00 -0.00000000000E+00 -0.41761258330E+02  0.41761258330E+02  0.00000000000E+00 0.  1.
      99926    2    1    2    0    0  0.00000000000E+00  0.00000000000E+00  0.11983982220E+04  0.12819207387E+04  0.45515105374E+03 0.  0.
      99925    2    3    3    0    0  0.71039752072E+02  0.17449417864E+02  0.51220357032E+03  0.58059218751E+03  0.26340778689E+03 0.  0.
         25    1    4    4    0    0  0.43934635674E+02 -0.55110221681E+01  0.17828096375E+03  0.22224363593E+03  0.12509000000E+03 0.  0.
         25    1    4    4    0    0  0.27105116398E+02  0.22960440032E+02  0.33392260657E+03  0.35834855158E+03  0.12509000000E+03 0.  0.
         25    1    3    3    0    0 -0.71039752072E+02 -0.17449417864E+02  0.68619465173E+03  0.70132855120E+03  0.12509000000E+03 0.  0.
<mgrwt>
<rscale>  2 0.45515105E+03</rscale>
<asrwt>0</asrwt>
<pdfrwt beam="1">  1       21 0.18237637E+00 0.45515105E+03</pdfrwt>
<pdfrwt beam="2">  1       21 0.61413623E-02 0.45515105E+03</pdfrwt>
<totfact> 0.29609602E+04</totfact>
</mgrwt>
</event>
<event>
 7    0  0.4707675E-002  0.4585038E+03  0.7546771E-02  0.1025216E+00
         21   -1    0    0  502  501  0.00000000000E+00  0.00000000000E+00  0.13428160701E+04  0.13428160701E+04  0.00000000000E+00 0. -1.
         21   -1    0    0  501  502 -0.00000000000E+00 -0.00000000000E+00 -0.39138964174E+02  0.39138964174E+02  0.00000000000E+00 0. -1.
      99926    2    1    2    0    0  0.00000000000E+00  0.14210854715E-13  0.13036771059E+04  0.13819550343E+04  0.45850378433E+03 0.  0.
      99925    2    3    3    0    0 -0.44423952266E+02  0.90361116039E+02  0.99389355264E+03  0.10330252751E+04  0.26301750182E+03 0.  0.
         25    1    4    4    0    0 -0.51063646101E+02  0.16252838868E+02  0.47866081081E+03  0.49762971237E+03  0.12509000000E+03 0.  0.
         25    1    4    4    0    0  0.66396938342E+01  0.74108277171E+02  0.51523274183E+03  0.53539556277E+03  0.12509000000E+03 0.  0.
         25    1    3    3    0    0  0.44423952266E+02 -0.90361116039E+02  0.30978355329E+03  0.34892975914E+03  0.12509000000E+03 0.  0.
<mgrwt>
<rscale>  2 0.45850378E+03</rscale>
<asrwt>0</asrwt>
<pdfrwt beam="1">  1       21 0.19747292E+00 0.45850378E+03</pdfrwt>
<pdfrwt beam="2">  1       21 0.57557309E-02 0.45850378E+03</pdfrwt>
<totfact> 0.26098905E+04</totfact>
</mgrwt>
</event>
<event>
 7    0  0.5788407E-002  0.4188609E+03  0.7546771E-02  0.1037438E+00
         21   -1    0    0  502  501  0.00000000000E+00  0.00000000000E+00  0.11946262025E+03  0.11946262025E+03  0.00000000000E+00 0.  1.
         21   -1    0    0  501  502 -0.00000000000E+00 -0.00000000000E+00 -0.36715350071E+03  0.36715350071E+03  0.00000000000E+00 0.  1.
      99926    2    1    2    0    0  0.00000000000E+00 -0.17763568394E-14 -0.24769088046E+03  0.48661612097E+03  0.41886092790E+03 0.  0.
      99925    2    3    3    0    0  0.26657360395E+02 -0.11134602786E+02 -0.24130311113E+03  0.35807466485E+03  0.26297467545E+03 0.  0.
         25    1    3    3    0    0 -0.26657360395E+02  0.11134602786E+02 -0.63877693256E+01  0.12854145611E+03  0.12509000000E+03 0.  0.
         25    1    4    4    0    0  0.65702314945E+01  0.24360175206E+02 -0.82973321707E+02  0.15221256943E+03  0.12509000000E+03 0.  0.
         25    1    4    4    0    0  0.20087128900E+02 -0.35494777992E+02 -0.15832978942E+03  0.20586209542E+03  0.12509000000E+03 0.  0.
<mgrwt>
<rscale>  2 0.41886093E+03</rscale>
<asrwt>0</asrwt>
<pdfrwt beam="1">  1       21 0.17568033E-01 0.41886093E+03</pdfrwt>
<pdfrwt beam="2">  1       21 0.53993161E-01 0.41886093E+03</pdfrwt>
<totfact> 0.89176834E+04</totfact>
</mgrwt>
</event>
<event>
 7    0  0.4707675E-002  0.4521638E+03  0.7546771E-02  0.1027079E+00
         21   -1    0    0  502  501  0.00000000000E+00  0.00000000000E+00  0.23786717528E+04  0.23786717528E+04  0.00000000000E+00 0. -1.
         21   -1    0    0  501  502 -0.00000000000E+00 -0.00000000000E+00 -0.21488057284E+02  0.21488057284E+02  0.00000000000E+00 0. -1.
      99926    2    1    2    0    0  0.00000000000E+00  0.71054273576E-14  0.23571836955E+04  0.24001598101E+04  0.45216384147E+03 0.  0.
      99925    2    3    3    0    0  0.53686217261E+02  0.63001707592E+02  0.18757252407E+04  0.18958769759E+04  0.26296939726E+03 0.  0.
         25    1    3    3    0    0 -0.53686217261E+02 -0.63001707592E+02  0.48145845479E+03  0.50428283420E+03  0.12509000000E+03 0.  0.
         25    1    4    4    0    0  0.91790646206E+01 -0.67384680057E+01  0.88143047150E+03  0.89033524381E+03  0.12509000000E+03 0.  0.
         25    1    4    4    0    0  0.44507152641E+02  0.69740175598E+02  0.99429476921E+03  0.10055417321E+04  0.12509000000E+03 0.  0.
<mgrwt>
<rscale>  2 0.45216384E+03</rscale>
<asrwt>0</asrwt>
<pdfrwt beam="1">  1       21 0.34980449E+00 0.45216384E+03</pdfrwt>
<pdfrwt beam="2">  1       21 0.31600101E-02 0.45216384E+03</pdfrwt>
<totfact> 0.83913861E+03</totfact>
</mgrwt>
</event>
<event>
 7    0  0.4707675E-002  0.4225616E+03  0.7546771E-02  0.1036236E+00
         21   -1    0    0  502  501  0.00000000000E+00  0.00000000000E+00  0.45290599186E+02  0.45290599186E+02  0.00000000000E+00 0.  1.
         21   -1    0    0  501  502 -0.00000000000E+00 -0.00000000000E+00 -0.98562586016E+03  0.98562586016E+03  0.00000000000E+00 0.  1.
      99926    2    1    2    0    0  0.00000000000E+00 -0.71054273576E-14 -0.94033526097E+03  0.10309164593E+04  0.42256164416E+03 0.  0.
      99925    2    3    3    0    0 -0.36678399726E+02  0.50821614918E+02 -0.49155008522E+03  0.56082733627E+03  0.26263600912E+03 0.  0.
         25    1    4    4    0    0 -0.83958027161E+01  0.62461133449E+02 -0.28203107858E+03  0.31489826941E+03  0.12509000000E+03 0.  0.
         25    1    3    3    0    0  0.36678399726E+02 -0.50821614918E+02 -0.44878517576E+03  0.47008912307E+03  0.12509000000E+03 0.  0.
         25    1    4    4    0    0 -0.28282597010E+02 -0.11639518531E+02 -0.20951900664E+03  0.24592906686E+03  0.12509000000E+03 0.  0.
<mgrwt>
<rscale>  2 0.42256164E+03</rscale>
<asrwt>0</asrwt>
<pdfrwt beam="1">  1       21 0.66603827E-02 0.42256164E+03</pdfrwt>
<pdfrwt beam="2">  1       21 0.14494497E+00 0.42256164E+03</pdfrwt>
<totfact> 0.49347150E+04</totfact>
</mgrwt>
</event>
<event>
 7    0  0.4707675E-002  0.4547009E+03  0.7546771E-02  0.1026329E+00
         21   -1    0    0  502  501  0.00000000000E+00  0.00000000000E+00  0.46210155950E+02  0.46210155950E+02  0.00000000000E+00 0.  1.
         21   -1    0    0  501  502 -0.00000000000E+00 -0.00000000000E+00 -0.11185468337E+04  0.11185468337E+04  0.00000000000E+00 0.  1.
      99926    2    1    2    0    0  0.00000000000E+00  0.17763568394E-14 -0.10723366778E+04  0.11647569897E+04  0.45470088465E+03 0.  0.
      99925    2    3    3    0    0  0.48150289037E+02 -0.17190291981E+01 -0.93632267189E+03  0.97378913037E+03  0.26314201322E+03 0.  0.
         25    1    4    4    0    0  0.16483226073E+02  0.38368166921E+02 -0.43212966754E+03  0.45180457129E+03  0.12509000000E+03 0.  0.
         25    1    4    4    0    0  0.31667062964E+02 -0.40087196119E+02 -0.50419300436E+03  0.52198455907E+03  0.12509000000E+03 0.  0.
         25    1    3    3    0    0 -0.48150289037E+02  0.17190291981E+01 -0.13601400590E+03  0.19096785933E+03  0.12509000000E+03 0.  0.
<mgrwt>
<rscale>  2 0.45470088E+03</rscale>
<asrwt>0</asrwt>
<pdfrwt beam="1">  1       21 0.67956111E-02 0.45470088E+03</pdfrwt>
<pdfrwt beam="2">  1       21 0.16449218E+00 0.45470088E+03</pdfrwt>
<totfact> 0.33371181E+04</totfact>
</mgrwt>
</event>
<event>
 7    0  0.4707675E-002  0.4559938E+03  0.7546771E-02  0.1025950E+00
         21   -1    0    0  502  501  0.00000000000E+00  0.00000000000E+00  0.58110978835E+02  0.58110978835E+02  0.00000000000E+00 0.  1.
         21   -1    0    0  501  502 -0.00000000000E+00 -0.00000000000E+00 -0.89454003662E+03  0.89454003662E+03  0.00000000000E+00 0.  1.
      99926    2    1    2    0    0  0.00000000000E+00  0.00000000000E+00 -0.83642905778E+03  0.95265101546E+03  0.45599384704E+03 0.  0.
      99925    2    3    3    0    0  0.14200537002E+02 -0.11164499734E+03 -0.56538738421E+03  0.63362537762E+03  0.26296761066E+03 0.  0.
         25    1    4    4    0    0  0.37906879342E+02 -0.53172882790E+02 -0.34163480291E+03  0.36962972503E+03  0.12509000000E+03 0.  0.
         25    1    4    4    0    0 -0.23706342340E+02 -0.58472114554E+02 -0.22375258130E+03  0.26399565258E+03  0.12509000000E+03 0.  0.
         25    1    3    3    0    0 -0.14200537002E+02  0.11164499734E+03 -0.27104167358E+03  0.31902563784E+03  0.12509000000E+03 0.  0.
<mgrwt>
<rscale>  2 0.45599385E+03</rscale>
<asrwt>0</asrwt>
<pdfrwt beam="1">  1       21 0.85457317E-02 0.45599385E+03</pdfrwt>
<pdfrwt beam="2">  1       21 0.13155001E+00 0.45599385E+03</pdfrwt>
<totfact> 0.40716303E+04</totfact>
</mgrwt>
</event>
<event>
 7    0  0.4707675E-002  0.4517344E+03  0.7546771E-02  0.1027206E+00
         21   -1    0    0  502  501  0.00000000000E+00  0.00000000000E+00  0.20539917387E+03  0.20539917387E+03  0.00000000000E+00 0.  1.
         21   -1    0    0  501  502 -0.00000000000E+00 -0.00000000000E+00 -0.24837491817E+03  0.24837491817E+03  0.00000000000E+00 0.  1.
      99926    2    1    2    0    0 -0.14210854715E-13  0.00000000000E+00 -0.42975744308E+02  0.45377409204E+03  0.45173444855E+03 0.  0.
      99925    2    3    3    0    0 -0.73972366536E+02  0.67774604368E+02 -0.70759947615E+02  0.29103264661E+03  0.26387065619E+03 0.  0.
         25    1    4    4    0    0 -0.75449577101E+02  0.18658927168E+02 -0.27245588359E+02  0.14976856958E+03  0.12509000000E+03 0.  0.
         25    1    4    4    0    0  0.14772105654E+01  0.49115677200E+02 -0.43514359256E+02  0.14126407703E+03  0.12509000000E+03 0.  0.
         25    1    3    3    0    0  0.73972366536E+02 -0.67774604368E+02  0.27784203306E+02  0.16274144543E+03  0.12509000000E+03 0.  0.
<mgrwt>
<rscale>  2 0.45173445E+03</rscale>
<asrwt>0</asrwt>
<pdfrwt beam="1">  1       21 0.30205761E-01 0.45173445E+03</pdfrwt>
<pdfrwt beam="2">  1       21 0.36525723E-01 0.45173445E+03</pdfrwt>
<totfact> 0.70453517E+04</totfact>
</mgrwt>
</event>
<event>
 7    0  0.4707675E-002  0.4614337E+03  0.7546771E-02  0.1024366E+00
         21   -1    0    0  502  501  0.00000000000E+00  0.00000000000E+00  0.18315099683E+04  0.18315099683E+04  0.00000000000E+00 0. -1.
         21   -1    0    0  501  502 -0.00000000000E+00 -0.00000000000E+00 -0.29063590259E+02  0.29063590259E+02  0.00000000000E+00 0. -1.
      99926    2    1    2    0    0  0.00000000000E+00 -0.14210854715E-13  0.18024463781E+04  0.18605735586E+04  0.46143365840E+03 0.  0.
      99925    2    3    3    0    0 -0.16767010536E+02 -0.11281040593E+03  0.12649806658E+04  0.12970806835E+04  0.26312524449E+03 0.  0.
         25    1    4    4    0    0 -0.20170463314E+02 -0.26276905888E+02  0.70622068524E+03  0.71797805519E+03  0.12509000000E+03 0.  0.
         25    1    3    3    0    0  0.16767010536E+02  0.11281040593E+03  0.53746571227E+03  0.56349287510E+03  0.12509000000E+03 0.  0.
         25    1    4    4    0    0  0.34034527777E+01 -0.86533500045E+02  0.55875998057E+03  0.57910262830E+03  0.12509000000E+03 0.  0.
<mgrwt>
<rscale>  2 0.46143366E+03</rscale>
<asrwt>0</asrwt>
<pdfrwt beam="1">  1       21 0.26933962E+00 0.46143366E+03</pdfrwt>
<pdfrwt beam="2">  1       21 0.42740586E-02 0.46143366E+03</pdfrwt>
<totfact> 0.15342254E+04</totfact>
</mgrwt>
</event>
<event>
 7    0  0.4707675E-002  0.4559129E+03  0.7546771E-02  0.1025973E+00
         21   -1    0    0  502  501  0.00000000000E+00  0.00000000000E+00  0.24968463496E+03  0.24968463496E+03  0.00000000000E+00 0.  1.
         21   -1    0    0  501  502 -0.00000000000E+00 -0.00000000000E+00 -0.20811914728E+03  0.20811914728E+03  0.00000000000E+00 0.  1.
      99926    2    1    2    0    0  0.00000000000E+00  0.71054273576E-14  0.41565487675E+02  0.45780378224E+03  0.45591294483E+03 0.  0.
      99925    2    3    3    0    0 -0.44057085708E+02  0.42412794059E+02 -0.70296998875E+02  0.27919640306E+03  0.26319021929E+03 0.  0.
         25    1    4    4    0    0 -0.59493540682E+02  0.38989363042E+02 -0.43039612768E+02  0.15019842935E+03  0.12509000000E+03 0.  0.
         25    1    3    3    0    0  0.44057085708E+02 -0.42412794059E+02  0.11186248655E+03  0.17860737918E+03  0.12509000000E+03 0.  0.
         25    1    4    4    0    0  0.15436454974E+02  0.34234310173E+01 -0.27257386107E+02  0.12899797370E+03  0.12509000000E+03 0.  0.
<mgrwt>
<rscale>  2 0.45591294E+03</rscale>
<asrwt>0</asrwt>
<pdfrwt beam="1">  1       21 0.36718328E-01 0.45591294E+03</pdfrwt>
<pdfrwt beam="2">  1       21 0.30605757E-01 0.45591294E+03</pdfrwt>
<totfact> 0.67845355E+04</totfact>
</mgrwt>
</event>
<event>
 7    0  0.4707675E-002  0.4529326E+03  0.7546771E-02  0.1026851E+00
         21   -1    0    0  502  501  0.00000000000E+00  0.00000000000E+00  0.64078784336E+02  0.64078784336E+02  0.00000000000E+00 0. -1.
         21   -1    0    0  501  502 -0.00000000000E+00 -0.00000000000E+00 -0.80037395653E+03  0.80037395653E+03  0.00000000000E+00 0. -1.
      99926    2    1    2    0    0 -0.35527136788E-14 -0.14210854715E-13 -0.73629517219E+03  0.86445274087E+03  0.45293262258E+03 0.  0.
      99925    2    3    3    0    0 -0.26926810730E+02  0.95573725530E+02 -0.56049849221E+03  0.62694196018E+03  0.26275134922E+03 0.  0.
         25    1    4    4    0    0 -0.22363090666E+02  0.85569956961E+02 -0.34582610174E+03  0.37824003768E+03  0.12509000000E+03 0.  0.
         25    1    3    3    0    0  0.26926810730E+02 -0.95573725530E+02 -0.17579667998E+03  0.23751078068E+03  0.12509000000E+03 0.  0.
         25    1    4    4    0    0 -0.45637200645E+01  0.10003768569E+02 -0.21467239047E+03  0.24870192250E+03  0.12509000000E+03 0.  0.
<mgrwt>
<rscale>  2 0.45293262E+03</rscale>
<asrwt>0</asrwt>
<pdfrwt beam="1">  1       21 0.94233504E-02 0.45293262E+03</pdfrwt>
<pdfrwt beam="2">  1       21 0.11770206E+00 0.45293262E+03</pdfrwt>
<totfact> 0.45533356E+04</totfact>
</mgrwt>
</event>
<event>
 7    0  0.4707675E-002  0.4499028E+03  0.7546771E-02  0.1027751E+00
         21   -1    0    0  502  501  0.00000000000E+00  0.00000000000E+00  0.31609118194E+03  0.31609118194E+03  0.00000000000E+00 0.  1.
         21   -1    0    0  501  502 -0.00000000000E+00 -0.00000000000E+00 -0.16009027640E+03  0.16009027640E+03  0.00000000000E+00 0.  1.
      99926    2    1    2    0    0 -0.71054273576E-14  0.00000000000E+00  0.15600090554E+03  0.47618145834E+03  0.44990276587E+03 0.  0.
      99925    2    3    3    0    0  0.54832984920E+02  0.18429480792E+02  0.19560364278E+03  0.33278624609E+03  0.26294409771E+03 0.  0.
         25    1    3    3    0    0 -0.54832984920E+02 -0.18429480792E+02 -0.39602737243E+02  0.14339521224E+03  0.12509000000E+03 0.  0.
         25    1    4    4    0    0  0.64598703234E+02  0.16558850744E+02  0.83503597269E+02  0.16452217739E+03  0.12509000000E+03 0.  0.
         25    1    4    4    0    0 -0.97657183138E+01  0.18706300484E+01  0.11210004551E+03  0.16826406870E+03  0.12509000000E+03 0.  0.
<mgrwt>
<rscale>  2 0.44990277E+03</rscale>
<asrwt>0</asrwt>
<pdfrwt beam="1">  1       21 0.46483997E-01 0.44990277E+03</pdfrwt>
<pdfrwt beam="2">  1       21 0.23542688E-01 0.44990277E+03</pdfrwt>
<totfact> 0.69758983E+04</totfact>
</mgrwt>
</event>
<event>
 7    0  0.4707675E-002  0.4577423E+03  0.7546771E-02  0.1025438E+00
         21   -1    0    0  502  501  0.00000000000E+00  0.00000000000E+00  0.27470334849E+03  0.27470334849E+03  0.00000000000E+00 0. -1.
         21   -1    0    0  501  502 -0.00000000000E+00 -0.00000000000E+00 -0.19068571489E+03  0.19068571489E+03  0.00000000000E+00 0. -1.
      99926    2    1    2    0    0 -0.71054273576E-14  0.00000000000E+00  0.84017633600E+02  0.46538906337E+03  0.45774230474E+03 0.  0.
      99925    2    3    3    0    0  0.54543966207E+02  0.89119675187E+02  0.24647618664E+01  0.28313720538E+03  0.26314110523E+03 0.  0.
         25    1    3    3    0    0 -0.54543966207E+02 -0.89119675187E+02  0.81552871734E+02  0.18225185800E+03  0.12509000000E+03 0.  0.
         25    1    4    4    0    0  0.41829235732E+02  0.55208384266E+01  0.53079576921E+01  0.13212057801E+03  0.12509000000E+03 0.  0.
         25    1    4    4    0    0  0.12714730474E+02  0.83598836760E+02 -0.28431958257E+01  0.15101662737E+03  0.12509000000E+03 0.  0.
<mgrwt>
<rscale>  2 0.45774230E+03</rscale>
<asrwt>0</asrwt>
<pdfrwt beam="1">  1       21 0.40397551E-01 0.45774230E+03</pdfrwt>
<pdfrwt beam="2">  1       21 0.28042017E-01 0.45774230E+03</pdfrwt>
<totfact> 0.66323622E+04</totfact>
</mgrwt>
</event>
<event>
 7    0  0.4707675E-002  0.4563851E+03  0.7546771E-02  0.1025835E+00
         21   -1    0    0  502  501  0.00000000000E+00  0.00000000000E+00  0.13257273973E+03  0.13257273973E+03  0.00000000000E+00 0.  1.
         21   -1    0    0  501  502 -0.00000000000E+00 -0.00000000000E+00 -0.39277941715E+03  0.39277941715E+03  0.00000000000E+00 0.  1.
      99926    2    1    2    0    0  0.00000000000E+00  0.14210854715E-13 -0.26020667743E+03  0.52535215688E+03  0.45638511562E+03 0.  0.
      99925    2    3    3    0    0  0.43258715595E+02  0.10591376366E+03 -0.16291477782E+03  0.32989816322E+03  0.26306374029E+03 0.  0.
         25    1    4    4    0    0  0.27184177505E+02  0.21086678979E+02 -0.10623703486E+03  0.16768256681E+03  0.12509000000E+03 0.  0.
         25    1    4    4    0    0  0.16074538091E+02  0.84827084686E+02 -0.56677742959E+02  0.16221559641E+03  0.12509000000E+03 0.  0.
         25    1    3    3    0    0 -0.43258715595E+02 -0.10591376366E+03 -0.97291899608E+02  0.19545399366E+03  0.12509000000E+03 0.  0.
<mgrwt>
<rscale>  2 0.45638512E+03</rscale>
<asrwt>0</asrwt>
<pdfrwt beam="1">  1       21 0.19495991E-01 0.45638512E+03</pdfrwt>
<pdfrwt beam="2">  1       21 0.57761678E-01 0.45638512E+03</pdfrwt>
<totfact> 0.62829512E+04</totfact>
</mgrwt>
</event>
<event>
 7    0  0.4707675E-002  0.4501177E+03  0.7546771E-02  0.1027687E+00
         21   -1    0    0  502  501  0.00000000000E+00  0.00000000000E+00  0.27932990094E+03  0.27932990094E+03  0.00000000000E+00 0. -1.
         21   -1    0    0  501  502 -0.00000000000E+00 -0.00000000000E+00 -0.18133210812E+03  0.18133210812E+03  0.00000000000E+00 0. -1.
      99926    2    1    2    0    0  0.00000000000E+00  0.71054273576E-14  0.97997792819E+02  0.46066200907E+03  0.45011767261E+03 0.  0.
      99925    2    3    3    0    0 -0.62387162700E+02 -0.47027242809E+02  0.13951100728E+03  0.30744786249E+03  0.26259692946E+03 0.  0.
         25    1    3    3    0    0  0.62387162700E+02  0.47027242809E+02 -0.41513214456E+02  0.15321414657E+03  0.12509000000E+03 0.  0.
         25    1    4    4    0    0 -0.65954867061E+02 -0.13675181911E+02  0.52683050343E+02  0.15152579643E+03  0.12509000000E+03 0.  0.
         25    1    4    4    0    0  0.35677043606E+01 -0.33352060899E+02  0.86827956932E+02  0.15592206606E+03  0.12509000000E+03 0.  0.
<mgrwt>
<rscale>  2 0.45011767E+03</rscale>
<asrwt>0</asrwt>
<pdfrwt beam="1">  1       21 0.41077927E-01 0.45011767E+03</pdfrwt>
<pdfrwt beam="2">  1       21 0.26666486E-01 0.45011767E+03</pdfrwt>
<totfact> 0.70841013E+04</totfact>
</mgrwt>
</event>
<event>
 7    0  0.4707675E-002  0.4553421E+03  0.7546771E-02  0.1026141E+00
         21   -1    0    0  502  501  0.00000000000E+00  0.00000000000E+00  0.26487633065E+03  0.26487633065E+03  0.00000000000E+00 0.  1.
         21   -1    0    0  501  502 -0.00000000000E+00 -0.00000000000E+00 -0.19569168757E+03  0.19569168757E+03  0.00000000000E+00 0.  1.
      99926    2    1    2    0    0  0.71054273576E-14  0.00000000000E+00  0.69184643072E+02  0.46056801822E+03  0.45534205228E+03 0.  0.
      99925    2    3    3    0    0 -0.33635125039E+02  0.69928741739E+02 -0.39956599502E+02  0.27731772630E+03  0.26322469664E+03 0.  0.
         25    1    4    4    0    0 -0.33161480291E+02  0.37678228732E+02 -0.58277189803E+02  0.14684369802E+03  0.12509000000E+03 0.  0.
         25    1    3    3    0    0  0.33635125039E+02 -0.69928741739E+02  0.10914124257E+03  0.18325029192E+03  0.12509000000E+03 0.  0.
         25    1    4    4    0    0 -0.47364474734E+00  0.32250513007E+02  0.18320590301E+02  0.13047402829E+03  0.12509000000E+03 0.  0.
<mgrwt>
<rscale>  2 0.45534205E+03</rscale>
<asrwt>0</asrwt>
<pdfrwt beam="1">  1       21 0.38952401E-01 0.45534205E+03</pdfrwt>
<pdfrwt beam="2">  1       21 0.28778189E-01 0.45534205E+03</pdfrwt>
<totfact> 0.67953639E+04</totfact>
</mgrwt>
</event>
<event>
 7    0  0.4707675E-002  0.4478497E+03  0.7546771E-02  0.1028365E+00
         21   -1    0    0  502  501  0.00000000000E+00  0.00000000000E+00  0.31006912124E+02  0.31006912124E+02  0.00000000000E+00 0.  1.
         21   -1    0    0  501  502 -0.00000000000E+00 -0.00000000000E+00 -0.16171343770E+04  0.16171343770E+04  0.00000000000E+00 0.  1.
      99926    2    1    2    0    0  0.00000000000E+00  0.39968028887E-14 -0.15861274649E+04  0.16481412892E+04  0.44784972266E+03 0.  0.
      99925    2    3    3    0    0  0.88627874991E+02  0.37038767463E+01 -0.12203645522E+04  0.12515323693E+04  0.26301142962E+03 0.  0.
         25    1    4    4    0    0  0.49039312655E+02  0.35211414343E+02 -0.51646125219E+03  0.53481251949E+03  0.12509000000E+03 0.  0.
         25    1    4    4    0    0  0.39588562336E+02 -0.31507537597E+02 -0.70390330003E+03  0.71671984980E+03  0.12509000000E+03 0.  0.
         25    1    3    3    0    0 -0.88627874991E+02 -0.37038767463E+01 -0.36576291269E+03  0.39660891988E+03  0.12509000000E+03 0.  0.
<mgrwt>
<rscale>  2 0.44784972E+03</rscale>
<asrwt>0</asrwt>
<pdfrwt beam="1">  1       21 0.45598382E-02 0.44784972E+03</pdfrwt>
<pdfrwt beam="2">  1       21 0.23781397E+00 0.44784972E+03</pdfrwt>
<totfact> 0.21534406E+04</totfact>
</mgrwt>
</event>
<event>
 7    0  0.4707675E-002  0.4562635E+03  0.7546771E-02  0.1025870E+00
         21   -1    0    0  502  501  0.00000000000E+00  0.00000000000E+00  0.86685346574E+03  0.86685346574E+03  0.00000000000E+00 0. -1.
         21   -1    0    0  501  502 -0.00000000000E+00 -0.00000000000E+00 -0.60037945296E+02  0.60037945296E+02  0.00000000000E+00 0. -1.
      99926    2    1    2    0    0  0.00000000000E+00  0.00000000000E+00  0.80681552045E+03  0.92689141104E+03  0.45626352454E+03 0.  0.
      99925    2    3    3    0    0 -0.97899430951E+02  0.50008291891E+02  0.44259284074E+03  0.52640321352E+03  0.26291974573E+03 0.  0.
         25    1    4    4    0    0 -0.86620579453E+02  0.18750891266E+02  0.27254120666E+03  0.31269943738E+03  0.12509000000E+03 0.  0.
         25    1    4    4    0    0 -0.11278851498E+02  0.31257400624E+02  0.17005163408E+03  0.21370377614E+03  0.12509000000E+03 0.  0.
         25    1    3    3    0    0  0.97899430951E+02 -0.50008291891E+02  0.36422267971E+03  0.40048819752E+03  0.12509000000E+03 0.  0.
<mgrwt>
<rscale>  2 0.45626352E+03</rscale>
<asrwt>0</asrwt>
<pdfrwt beam="1">  1       21 0.12747844E+00 0.45626352E+03</pdfrwt>
<pdfrwt beam="2">  1       21 0.88291101E-02 0.45626352E+03</pdfrwt>
<totfact> 0.41677600E+04</totfact>
</mgrwt>
</event>
<event>
 6    0  0.4707675E-002  0.4583914E+03  0.7546771E-02  0.1025249E+00
         21   -1    0    0  502  501  0.00000000000E+00  0.00000000000E+00  0.58452055569E+03  0.58452055569E+03  0.00000000000E+00 0. -1.
         21   -1    0    0  501  502 -0.00000000000E+00 -0.00000000000E+00 -0.89869671685E+02  0.89869671685E+02  0.00000000000E+00 0. -1.
      99926    2    1    2    0    0  0.00000000000E+00 -0.35527136788E-14  0.49465088400E+03  0.67439022737E+03  0.45839140669E+03 0.  0.
         25    1    3    3    0    0 -0.22968307342E+02 -0.52028009016E+02  0.20517143414E+03  0.24693578589E+03  0.12509000000E+03 0.  0.
         25    1    3    3    0    0  0.71429117509E+02  0.21981718548E+02  0.55201130098E+02  0.15582036979E+03  0.12509000000E+03 0.  0.
         25    1    3    3    0    0 -0.48460810167E+02  0.30046290468E+02  0.23427831976E+03  0.27163407169E+03  0.12509000000E+03 0.  0.
<mgrwt>
<rscale>  2 0.45839141E+03</rscale>
<asrwt>0</asrwt>
<pdfrwt beam="1">  1       21 0.85958904E-01 0.45839141E+03</pdfrwt>
<pdfrwt beam="2">  1       21 0.13216128E-01 0.45839141E+03</pdfrwt>
<totfact> 0.52887922E+04</totfact>
</mgrwt>
</event>
<event>
 7    0  0.4707675E-002  0.4552095E+03  0.7546771E-02  0.1026180E+00
         21   -1    0    0  502  501  0.00000000000E+00  0.00000000000E+00  0.28963349545E+03  0.28963349545E+03  0.00000000000E+00 0.  1.
         21   -1    0    0  501  502 -0.00000000000E+00 -0.00000000000E+00 -0.17886029515E+03  0.17886029515E+03  0.00000000000E+00 0.  1.
      99926    2    1    2    0    0  0.35527136788E-14 -0.14210854715E-13  0.11077320029E+03  0.46849379060E+03  0.45520954508E+03 0.  0.
      99925    2    3    3    0    0  0.20130311398E+02 -0.11025901647E+03  0.52502536717E+02  0.29071511223E+03  0.26305223810E+03 0.  0.
         25    1    3    3    0    0 -0.20130311398E+02  0.11025901647E+03  0.58270663578E+02  0.17777867837E+03  0.12509000000E+03 0.  0.
         25    1    4    4    0    0  0.46187281578E+02 -0.45229027165E+02  0.42106090145E+02  0.14696720997E+03  0.12509000000E+03 0.  0.
         25    1    4    4    0    0 -0.26056970180E+02 -0.65029989306E+02  0.10396446572E+02  0.14374790226E+03  0.12509000000E+03 0.  0.
<mgrwt>
<rscale>  2 0.45520955E+03</rscale>
<asrwt>0</asrwt>
<pdfrwt beam="1">  1       21 0.42593161E-01 0.45520955E+03</pdfrwt>
<pdfrwt beam="2">  1       21 0.26302985E-01 0.45520955E+03</pdfrwt>
<totfact> 0.67435830E+04</totfact>
</mgrwt>
</event>
<event>
 7    0  0.4707675E-002  0.4484580E+03  0.7546771E-02  0.1028183E+00
         21   -1    0    0  502  501  0.00000000000E+00  0.00000000000E+00  0.11123320386E+03  0.11123320386E+03  0.00000000000E+00 0. -1.
         21   -1    0    0  501  502 -0.00000000000E+00 -0.00000000000E+00 -0.45201108618E+03  0.45201108618E+03  0.00000000000E+00 0. -1.
      99926    2    1    2    0    0 -0.35527136788E-14  0.00000000000E+00 -0.34077788232E+03  0.56324429003E+03  0.44845798597E+03 0.  0.
      99925    2    3    3    0    0  0.19683990467E+02  0.10223059169E+03 -0.18505705999E+03  0.33799989839E+03  0.26298148700E+03 0.  0.
         25    1    4    4    0    0 -0.18173869464E+02  0.61427032638E+02 -0.60871784257E+02  0.15315499368E+03  0.12509000000E+03 0.  0.
         25    1    4    4    0    0  0.37857859930E+02  0.40803559055E+02 -0.12418527573E+03  0.18484490471E+03  0.12509000000E+03 0.  0.
         25    1    3    3    0    0 -0.19683990467E+02 -0.10223059169E+03 -0.15572082233E+03  0.22524439164E+03  0.12509000000E+03 0.  0.
<mgrwt>
<rscale>  2 0.44845799E+03</rscale>
<asrwt>0</asrwt>
<pdfrwt beam="1">  1       21 0.16357824E-01 0.44845799E+03</pdfrwt>
<pdfrwt beam="2">  1       21 0.66472219E-01 0.44845799E+03</pdfrwt>
<totfact> 0.64260668E+04</totfact>
</mgrwt>
</event>
<event>
 7    0  0.4707675E-002  0.4597833E+03  0.7546771E-02  0.1024844E+00
         21   -1    0    0  502  501  0.00000000000E+00  0.00000000000E+00  0.89904986333E+02  0.89904986333E+02  0.00000000000E+00 0. -1.
         21   -1    0    0  501  502 -0.00000000000E+00 -0.00000000000E+00 -0.58784464277E+03  0.58784464277E+03  0.00000000000E+00 0. -1.
      99926    2    1    2    0    0  0.00000000000E+00  0.00000000000E+00 -0.49793965644E+03  0.67774962911E+03  0.45978327318E+03 0.  0.
      99925    2    3    3    0    0 -0.48681419777E+02  0.10077436829E+03 -0.36564161132E+03  0.46403104129E+03  0.26287956447E+03 0.  0.
         25    1    4    4    0    0 -0.79030230153E+01  0.56853250295E+02 -0.24109933996E+03  0.27761691171E+03  0.12509000000E+03 0.  0.
         25    1    4    4    0    0 -0.40778396762E+02  0.43921117998E+02 -0.12454227136E+03  0.18641412957E+03  0.12509000000E+03 0.  0.
         25    1    3    3    0    0  0.48681419777E+02 -0.10077436829E+03 -0.13229804512E+03  0.21371858782E+03  0.12509000000E+03 0.  0.
<mgrwt>
<rscale>  2 0.45978327E+03</rscale>
<asrwt>0</asrwt>
<pdfrwt beam="1">  1       21 0.13221322E-01 0.45978327E+03</pdfrwt>
<pdfrwt beam="2">  1       21 0.86447739E-01 0.45978327E+03</pdfrwt>
<totfact> 0.52134948E+04</totfact>
</mgrwt>
</event>
<event>
 7    0  0.4707675E-002  0.4566668E+03  0.7546771E-02  0.1025752E+00
         21   -1    0    0  502  501  0.00000000000E+00  0.00000000000E+00  0.80583409447E+02  0.80583409447E+02  0.00000000000E+00 0.  1.
         21   -1    0    0  501  502 -0.00000000000E+00 -0.00000000000E+00 -0.64698356364E+03  0.64698356364E+03  0.00000000000E+00 0.  1.
      99926    2    1    2    0    0 -0.24980018054E-15 -0.71054273576E-14 -0.56640015419E+03  0.72756697309E+03  0.45666679938E+03 0.  0.
      99925    2    3    3    0    0  0.79781422967E-01  0.41052315914E+02 -0.52661766115E+03  0.59003350858E+03  0.26292219611E+03 0.  0.
         25    1    4    4    0    0  0.28392752915E+02 -0.82348186555E+01 -0.26518910472E+03  0.29469769259E+03  0.12509000000E+03 0.  0.
         25    1    3    3    0    0 -0.79781422967E-01 -0.41052315914E+02 -0.39782493047E+02  0.13753346451E+03  0.12509000000E+03 0.  0.
         25    1    4    4    0    0 -0.28312971492E+02  0.49287134570E+02 -0.26142855643E+03  0.29533581599E+03  0.12509000000E+03 0.  0.
<mgrwt>
<rscale>  2 0.45666680E+03</rscale>
<asrwt>0</asrwt>
<pdfrwt beam="1">  1       21 0.11850501E-01 0.45666680E+03</pdfrwt>
<pdfrwt beam="2">  1       21 0.95144641E-01 0.45666680E+03</pdfrwt>
<totfact> 0.50763045E+04</totfact>
</mgrwt>
</event>
<event>
 7    0  0.4707675E-002  0.4527463E+03  0.7546771E-02  0.1026906E+00
         21   -1    0    0  502  501  0.00000000000E+00  0.00000000000E+00  0.20917663670E+03  0.20917663670E+03  0.00000000000E+00 0. -1.
         21   -1    0    0  501  502 -0.00000000000E+00 -0.00000000000E+00 -0.24498336296E+03  0.24498336296E+03  0.00000000000E+00 0. -1.
      99926    2    1    2    0    0 -0.17763568394E-14 -0.71054273576E-14 -0.35806726258E+02  0.45415999966E+03  0.45274626850E+03 0.  0.
      99925    2    3    3    0    0  0.11769669644E+02  0.55701709141E+02  0.73116006119E+02  0.27879502239E+03  0.26294392678E+03 0.  0.
         25    1    4    4    0    0 -0.26959086178E+02  0.90296643176E+01  0.50921602677E+02  0.13801755281E+03  0.12509000000E+03 0.  0.
         25    1    4    4    0    0  0.38728755822E+02  0.46672044824E+02  0.22194403442E+02  0.14077746957E+03  0.12509000000E+03 0.  0.
         25    1    3    3    0    0 -0.11769669644E+02 -0.55701709141E+02 -0.10892273238E+03  0.17536497727E+03  0.12509000000E+03 0.  0.
<mgrwt>
<rscale>  2 0.45274627E+03</rscale>
<asrwt>0</asrwt>
<pdfrwt beam="1">  1       21 0.30761270E-01 0.45274627E+03</pdfrwt>
<pdfrwt beam="2">  1       21 0.36026965E-01 0.45274627E+03</pdfrwt>
<totfact> 0.69855106E+04</totfact>
</mgrwt>
</event>
<event>
 7    0  0.4707675E-002  0.4568945E+03  0.7546771E-02  0.1025686E+00
         21   -1    0    0  502  501  0.00000000000E+00  0.00000000000E+00  0.20489298647E+03  0.20489298647E+03  0.00000000000E+00 0. -1.
         21   -1    0    0  501  502 -0.00000000000E+00 -0.00000000000E+00 -0.25470933639E+03  0.25470933639E+03  0.00000000000E+00 0. -1.
      99926    2    1    2    0    0  0.00000000000E+00  0.00000000000E+00 -0.49816349923E+02  0.45960232286E+03  0.45689454632E+03 0.  0.
      99925    2    3    3    0    0  0.69330566718E+02 -0.89192610286E+02 -0.53372425973E+02  0.29101346502E+03  0.26282726601E+03 0.  0.
         25    1    4    4    0    0  0.10510641079E+02 -0.44435810194E+02 -0.58913122973E+02  0.14561345735E+03  0.12509000000E+03 0.  0.
         25    1    4    4    0    0  0.58819925639E+02 -0.44756800092E+02  0.55406970000E+01  0.14540000767E+03  0.12509000000E+03 0.  0.
         25    1    3    3    0    0 -0.69330566718E+02  0.89192610286E+02  0.35560760505E+01  0.16858885784E+03  0.12509000000E+03 0.  0.
<mgrwt>
<rscale>  2 0.45689455E+03</rscale>
<asrwt>0</asrwt>
<pdfrwt beam="1">  1       21 0.30131322E-01 0.45689455E+03</pdfrwt>
<pdfrwt beam="2">  1       21 0.37457255E-01 0.45689455E+03</pdfrwt>
<totfact> 0.67188534E+04</totfact>
</mgrwt>
</event>
<event>
 7    0  0.4707675E-002  0.4535789E+03  0.7546771E-02  0.1026660E+00
         21   -1    0    0  502  501  0.00000000000E+00  0.00000000000E+00  0.90144967797E+02  0.90144967797E+02  0.00000000000E+00 0.  1.
         21   -1    0    0  501  502 -0.00000000000E+00 -0.00000000000E+00 -0.57056369792E+03  0.57056369792E+03  0.00000000000E+00 0.  1.
      99926    2    1    2    0    0  0.00000000000E+00  0.00000000000E+00 -0.48041873012E+03  0.66070866572E+03  0.45357886271E+03 0.  0.
      99925    2    3    3    0    0  0.30573725459E+02  0.10710607405E+03 -0.31829456166E+03  0.42760307186E+03  0.26291918016E+03 0.  0.
         25    1    4    4    0    0 -0.19799669008E+02  0.47517055596E+02 -0.12237792423E+03  0.18241096981E+03  0.12509000000E+03 0.  0.
         25    1    3    3    0    0 -0.30573725459E+02 -0.10710607405E+03 -0.16212416847E+03  0.23310559386E+03  0.12509000000E+03 0.  0.
         25    1    4    4    0    0  0.50373394467E+02  0.59589018456E+02 -0.19591663742E+03  0.24519210205E+03  0.12509000000E+03 0.  0.
<mgrwt>
<rscale>  2 0.45357886E+03</rscale>
<asrwt>0</asrwt>
<pdfrwt beam="1">  1       21 0.13256612E-01 0.45357886E+03</pdfrwt>
<pdfrwt beam="2">  1       21 0.83906429E-01 0.45357886E+03</pdfrwt>
<totfact> 0.55709910E+04</totfact>
</mgrwt>
</event>
<event>
 7    0  0.4707675E-002  0.4511657E+03  0.7546771E-02  0.1027375E+00
         21   -1    0    0  502  501  0.00000000000E+00  0.00000000000E+00  0.78022918729E+02  0.78022918729E+02  0.00000000000E+00 0. -1.
         21   -1    0    0  501  502 -0.00000000000E+00 -0.00000000000E+00 -0.65221365242E+03  0.65221365242E+03  0.00000000000E+00 0. -1.
      99926    2    1    2    0    0  0.00000000000E+00  0.00000000000E+00 -0.57419073369E+03  0.73023657115E+03  0.45116565825E+03 0.  0.
      99925    2    3    3    0    0  0.37135798819E+02  0.94210974468E+02 -0.29494731123E+03  0.40793365098E+03  0.26298511732E+03 0.  0.
         25    1    4    4    0    0  0.46436450447E+02  0.41420335133E+02 -0.10745021657E+03  0.17625278787E+03  0.12509000000E+03 0.  0.
         25    1    4    4    0    0 -0.93006516285E+01  0.52790639335E+02 -0.18749709466E+03  0.23168086311E+03  0.12509000000E+03 0.  0.
         25    1    3    3    0    0 -0.37135798819E+02 -0.94210974468E+02 -0.27924342246E+03  0.32230292017E+03  0.12509000000E+03 0.  0.
<mgrwt>
<rscale>  2 0.45116566E+03</rscale>
<asrwt>0</asrwt>
<pdfrwt beam="1">  1       21 0.11473958E-01 0.45116566E+03</pdfrwt>
<pdfrwt beam="2">  1       21 0.95913775E-01 0.45116566E+03</pdfrwt>
<totfact> 0.52867982E+04</totfact>
</mgrwt>
</event>
<event>
 7    0  0.4707675E-002  0.4261924E+03  0.7546771E-02  0.1035070E+00
         21   -1    0    0  502  501  0.00000000000E+00  0.00000000000E+00  0.58223572067E+02  0.58223572067E+02  0.00000000000E+00 0.  1.
         21   -1    0    0  501  502 -0.00000000000E+00 -0.00000000000E+00 -0.77992444955E+03  0.77992444955E+03  0.00000000000E+00 0.  1.
      99926    2    1    2    0    0  0.71054273576E-14 -0.35527136788E-14 -0.72170087748E+03  0.83814802161E+03  0.42619238564E+03 0.  0.
      99925    2    3    3    0    0  0.47091589222E+02 -0.23182267464E+02 -0.33986518911E+03  0.43293075111E+03  0.26299363716E+03 0.  0.
         25    1    4    4    0    0 -0.69732748079E+00 -0.24157245821E+02 -0.11726106012E+03  0.17315231189E+03  0.12509000000E+03 0.  0.
         25    1    4    4    0    0  0.47788916703E+02  0.97497835685E+00 -0.22260412900E+03  0.25977843923E+03  0.12509000000E+03 0.  0.
         25    1    3    3    0    0 -0.47091589222E+02  0.23182267464E+02 -0.38183568837E+03  0.40521727050E+03  0.12509000000E+03 0.  0.
<mgrwt>
<rscale>  2 0.42619239E+03</rscale>
<asrwt>0</asrwt>
<pdfrwt beam="1">  1       21 0.85622900E-02 0.42619239E+03</pdfrwt>
<pdfrwt beam="2">  1       21 0.11469477E+00 0.42619239E+03</pdfrwt>
<totfact> 0.58013894E+04</totfact>
</mgrwt>
</event>
<event>
 7    0  0.4707675E-002  0.4562149E+03  0.7546771E-02  0.1025885E+00
         21   -1    0    0  502  501  0.00000000000E+00  0.00000000000E+00  0.58748578160E+03  0.58748578160E+03  0.00000000000E+00 0. -1.
         21   -1    0    0  501  502 -0.00000000000E+00 -0.00000000000E+00 -0.88568949151E+02  0.88568949151E+02  0.00000000000E+00 0. -1.
      99926    2    1    2    0    0 -0.35527136788E-14 -0.99920072216E-15  0.49891683245E+03  0.67605473075E+03  0.45621485429E+03 0.  0.
      99925    2    3    3    0    0 -0.17572070193E+02  0.65081196144E+00  0.14624261276E+03  0.30144050980E+03  0.26300242956E+03 0.  0.
         25    1    3    3    0    0  0.17572070193E+02 -0.65081196144E+00  0.35267421969E+03  0.37461422095E+03  0.12509000000E+03 0.  0.
         25    1    4    4    0    0 -0.42355118985E+02  0.22650065204E+02  0.80116658327E+02  0.15611908467E+03  0.12509000000E+03 0.  0.
         25    1    4    4    0    0  0.24783048792E+02 -0.21999253242E+02  0.66125954435E+02  0.14532142513E+03  0.12509000000E+03 0.  0.
<mgrwt>
<rscale>  2 0.45621485E+03</rscale>
<asrwt>0</asrwt>
<pdfrwt beam="1">  1       21 0.86394965E-01 0.45621485E+03</pdfrwt>
<pdfrwt beam="2">  1       21 0.13024846E-01 0.45621485E+03</pdfrwt>
<totfact> 0.53706806E+04</totfact>
</mgrwt>
</event>
<event>
 7    0  0.4707675E-002  0.4526986E+03  0.7546771E-02  0.1026920E+00
         21   -1    0    0  502  501  0.00000000000E+00  0.00000000000E+00  0.41912205277E+03  0.41912205277E+03  0.00000000000E+00 0. -1.
         21   -1    0    0  501  502 -0.00000000000E+00 -0.00000000000E+00 -0.12224127505E+03  0.12224127505E+03  0.00000000000E+00 0. -1.
      99926    2    1    2    0    0  0.00000000000E+00  0.00000000000E+00  0.29688077771E+03  0.54136332782E+03  0.45269863765E+03 0.  0.
      99925    2    3    3    0    0 -0.23003295863E+02  0.57246307123E+02  0.76718224826E+02  0.28073840750E+03  0.26291077597E+03 0.  0.
         25    1    3    3    0    0  0.23003295863E+02 -0.57246307123E+02  0.22016255289E+03  0.26062492032E+03  0.12509000000E+03 0.  0.
         25    1    4    4    0    0 -0.87851325986E+01 -0.12306150241E+02  0.41500676131E+02  0.13265908980E+03  0.12509000000E+03 0.  0.
         25    1    4    4    0    0 -0.14218163264E+02  0.69552457364E+02  0.35217548695E+02  0.14807931769E+03  0.12509000000E+03 0.  0.
<mgrwt>
<rscale>  2 0.45269864E+03</rscale>
<asrwt>0</asrwt>
<pdfrwt beam="1">  1       21 0.61635596E-01 0.45269864E+03</pdfrwt>
<pdfrwt beam="2">  1       21 0.17976658E-01 0.45269864E+03</pdfrwt>
<totfact> 0.63591101E+04</totfact>
</mgrwt>
</event>
<event>
 7    0  0.4707675E-002  0.4553071E+03  0.7546771E-02  0.1026151E+00
         21   -1    0    0  502  501  0.00000000000E+00  0.00000000000E+00  0.55188192594E+03  0.55188192594E+03  0.00000000000E+00 0. -1.
         21   -1    0    0  501  502 -0.00000000000E+00 -0.00000000000E+00 -0.93908013133E+02  0.93908013133E+02  0.00000000000E+00 0. -1.
      99926    2    1    2    0    0 -0.71054273576E-14  0.00000000000E+00  0.45797391280E+03  0.64578993907E+03  0.45530708384E+03 0.  0.
      99925    2    3    3    0    0 -0.54952041959E+02  0.98915663072E+02  0.29734782726E+03  0.41286874473E+03  0.26313653240E+03 0.  0.
         25    1    3    3    0    0  0.54952041959E+02 -0.98915663072E+02  0.16062608554E+03  0.23292119434E+03  0.12509000000E+03 0.  0.
         25    1    4    4    0    0 -0.59495594801E+01  0.63892528115E+02  0.19495276338E+03  0.24035752632E+03  0.12509000000E+03 0.  0.
         25    1    4    4    0    0 -0.49002482479E+02  0.35023134957E+02  0.10239506388E+03  0.17251121841E+03  0.12509000000E+03 0.  0.
<mgrwt>
<rscale>  2 0.45530708E+03</rscale>
<asrwt>0</asrwt>
<pdfrwt beam="1">  1       21 0.81159105E-01 0.45530708E+03</pdfrwt>
<pdfrwt beam="2">  1       21 0.13810002E-01 0.45530708E+03</pdfrwt>
<totfact> 0.55809339E+04</totfact>
</mgrwt>
</event>
<event>
 7    0  0.4707675E-002  0.4111362E+03  0.7546771E-02  0.1039990E+00
         21   -1    0    0  502  501  0.00000000000E+00  0.00000000000E+00  0.30382394320E+02  0.30382394320E+02  0.00000000000E+00 0.  1.
         21   -1    0    0  501  502 -0.00000000000E+00 -0.00000000000E+00 -0.13908791970E+04  0.13908791970E+04  0.00000000000E+00 0.  1.
      99926    2    1    2    0    0  0.00000000000E+00 -0.17763568394E-14 -0.13604968026E+04  0.14212615913E+04  0.41113618286E+03 0.  0.
      99925    2    3    3    0    0  0.41284004866E+02 -0.64938881709E+01 -0.10624065227E+04  0.10952986137E+04  0.26310624112E+03 0.  0.
         25    1    4    4    0    0  0.56962646833E+02  0.94584231844E+01 -0.61147995117E+03  0.62680893715E+03  0.12509000000E+03 0.  0.
         25    1    4    4    0    0 -0.15678641967E+02 -0.15952311355E+02 -0.45092657148E+03  0.46848967654E+03  0.12509000000E+03 0.  0.
         25    1    3    3    0    0 -0.41284004866E+02  0.64938881709E+01 -0.29809027998E+03  0.32596297759E+03  0.12509000000E+03 0.  0.
<mgrwt>
<rscale>  2 0.41113618E+03</rscale>
<asrwt>0</asrwt>
<pdfrwt beam="1">  1       21 0.44679994E-02 0.41113618E+03</pdfrwt>
<pdfrwt beam="2">  1       21 0.20454105E+00 0.41113618E+03</pdfrwt>
<totfact> 0.36808446E+04</totfact>
</mgrwt>
</event>
<event>
 7    0  0.4707675E-002  0.4577035E+03  0.7546771E-02  0.1025449E+00
         21   -1    0    0  502  501  0.00000000000E+00  0.00000000000E+00  0.43162033540E+03  0.43162033540E+03  0.00000000000E+00 0.  1.
         21   -1    0    0  501  502 -0.00000000000E+00 -0.00000000000E+00 -0.12134072080E+03  0.12134072080E+03  0.00000000000E+00 0.  1.
      99926    2    1    2    0    0  0.00000000000E+00  0.00000000000E+00  0.31027961460E+03  0.55296105619E+03  0.45770349620E+03 0.  0.
      99925    2    3    3    0    0  0.16466486388E+02  0.83607331610E+02  0.10061464618E+03  0.29437211954E+03  0.26319252776E+03 0.  0.
         25    1    3    3    0    0 -0.16466486388E+02 -0.83607331610E+02  0.20966496843E+03  0.25858893665E+03  0.12509000000E+03 0.  0.
         25    1    4    4    0    0 -0.66441567780E+01  0.59539416910E+01  0.27587001725E+02  0.12840617199E+03  0.12509000000E+03 0.  0.
         25    1    4    4    0    0  0.23110643166E+02  0.77653389919E+02  0.73027644450E+02  0.16596594755E+03  0.12509000000E+03 0.  0.
<mgrwt>
<rscale>  2 0.45770350E+03</rscale>
<asrwt>0</asrwt>
<pdfrwt beam="1">  1       21 0.63473578E-01 0.45770350E+03</pdfrwt>
<pdfrwt beam="2">  1       21 0.17844224E-01 0.45770350E+03</pdfrwt>
<totfact> 0.60369662E+04</totfact>
</mgrwt>
</event>
<event>
 7    0  0.4707675E-002  0.4263064E+03  0.7546771E-02  0.1035033E+00
         21   -1    0    0  502  501  0.00000000000E+00  0.00000000000E+00  0.16557701542E+03  0.16557701542E+03  0.00000000000E+00 0. -1.
         21   -1    0    0  501  502 -0.00000000000E+00 -0.00000000000E+00 -0.27439976163E+03  0.27439976163E+03  0.00000000000E+00 0. -1.
      99926    2    1    2    0    0 -0.71054273576E-14  0.00000000000E+00 -0.10882274622E+03  0.43997677705E+03  0.42630643233E+03 0.  0.
      99925    2    3    3    0    0  0.37100773668E+02  0.12048093917E+02  0.58467743211E+01  0.26585546585E+03  0.26291314151E+03 0.  0.
         25    1    4    4    0    0  0.48984878154E+01 -0.32145303297E+02  0.46514132376E+01  0.12933081401E+03  0.12509000000E+03 0.  0.
         25    1    4    4    0    0  0.32202285853E+02  0.44193397214E+02  0.11953610835E+01  0.13652465184E+03  0.12509000000E+03 0.  0.
         25    1    3    3    0    0 -0.37100773668E+02 -0.12048093917E+02 -0.11466952054E+03  0.17412131120E+03  0.12509000000E+03 0.  0.
<mgrwt>
<rscale>  2 0.42630643E+03</rscale>
<asrwt>0</asrwt>
<pdfrwt beam="1">  1       21 0.24349561E-01 0.42630643E+03</pdfrwt>
<pdfrwt beam="2">  1       21 0.40352906E-01 0.42630643E+03</pdfrwt>
<totfact> 0.88153768E+04</totfact>
</mgrwt>
</event>
<event>
 7    0  0.4707675E-002  0.4517800E+03  0.7546771E-02  0.1027193E+00
         21   -1    0    0  502  501  0.00000000000E+00  0.00000000000E+00  0.21969228388E+03  0.21969228388E+03  0.00000000000E+00 0. -1.
         21   -1    0    0  501  502 -0.00000000000E+00 -0.00000000000E+00 -0.23226252312E+03  0.23226252312E+03  0.00000000000E+00 0. -1.
      99926    2    1    2    0    0 -0.71054273576E-14  0.71054273576E-14 -0.12570239248E+02  0.45195480700E+03  0.45177996487E+03 0.  0.
      99925    2    3    3    0    0  0.45855901047E+02 -0.56993671625E+02 -0.90278045993E+02  0.28752532791E+03  0.26300122877E+03 0.  0.
         25    1    4    4    0    0 -0.15374314360E+02 -0.13022375010E+02 -0.47881267746E+02  0.13544768619E+03  0.12509000000E+03 0.  0.
         25    1    4    4    0    0  0.61230215408E+02 -0.43971296615E+02 -0.42396778247E+02  0.15207764172E+03  0.12509000000E+03 0.  0.
         25    1    3    3    0    0 -0.45855901047E+02  0.56993671625E+02  0.77707806745E+02  0.16442947909E+03  0.12509000000E+03 0.  0.
<mgrwt>
<rscale>  2 0.45177996E+03</rscale>
<asrwt>0</asrwt>
<pdfrwt beam="1">  1       21 0.32307689E-01 0.45177996E+03</pdfrwt>
<pdfrwt beam="2">  1       21 0.34156253E-01 0.45177996E+03</pdfrwt>
<totfact> 0.70565104E+04</totfact>
</mgrwt>
</event>
<event>
 7    0  0.4707675E-002  0.4469567E+03  0.7546771E-02  0.1028633E+00
         21   -1    0    0  502  501  0.00000000000E+00  0.00000000000E+00  0.66245518730E+02  0.66245518730E+02  0.00000000000E+00 0.  1.
         21   -1    0    0  501  502 -0.00000000000E+00 -0.00000000000E+00 -0.75390115452E+03  0.75390115452E+03  0.00000000000E+00 0.  1.
      99926    2    1    2    0    0  0.14210854715E-13 -0.26645352591E-14 -0.68765563579E+03  0.82014667325E+03  0.44695670060E+03 0.  0.
      99925    2    3    3    0    0 -0.97516471420E+02  0.28196371104E+01 -0.50938162258E+03  0.58151192214E+03  0.26300012474E+03 0.  0.
         25    1    3    3    0    0  0.97516471420E+02 -0.28196371104E+01 -0.17827401321E+03  0.23863475111E+03  0.12509000000E+03 0.  0.
         25    1    4    4    0    0 -0.75014721259E+02 -0.27967970628E+02 -0.24367565505E+03  0.28536774301E+03  0.12509000000E+03 0.  0.
         25    1    4    4    0    0 -0.22501750162E+02  0.30787607739E+02 -0.26570596753E+03  0.29614417913E+03  0.12509000000E+03 0.  0.
<mgrwt>
<rscale>  2 0.44695670E+03</rscale>
<asrwt>0</asrwt>
<pdfrwt beam="1">  1       21 0.97419876E-02 0.44695670E+03</pdfrwt>
<pdfrwt beam="2">  1       21 0.11086782E+00 0.44695670E+03</pdfrwt>
<totfact> 0.49880084E+04</totfact>
</mgrwt>
</event>
<event>
 7    0  0.4707675E-002  0.4536710E+03  0.7546771E-02  0.1026633E+00
         21   -1    0    0  502  501  0.00000000000E+00  0.00000000000E+00  0.14390627385E+03  0.14390627385E+03  0.00000000000E+00 0. -1.
         21   -1    0    0  501  502 -0.00000000000E+00 -0.00000000000E+00 -0.35755461450E+03  0.35755461450E+03  0.00000000000E+00 0. -1.
      99926    2    1    2    0    0 -0.35527136788E-14  0.00000000000E+00 -0.21364834065E+03  0.50146088836E+03  0.45367103620E+03 0.  0.
      99925    2    3    3    0    0  0.13908934249E+02 -0.10996186918E+03 -0.15019129525E+03  0.32268903421E+03  0.26322180097E+03 0.  0.
         25    1    4    4    0    0 -0.27473071466E+02 -0.75410784397E+02 -0.90178197454E+02  0.17384237532E+03  0.12509000000E+03 0.  0.
         25    1    4    4    0    0  0.41382005715E+02 -0.34551084781E+02 -0.60013097800E+02  0.14884665889E+03  0.12509000000E+03 0.  0.
         25    1    3    3    0    0 -0.13908934249E+02  0.10996186918E+03 -0.63457045394E+02  0.17877185415E+03  0.12509000000E+03 0.  0.
<mgrwt>
<rscale>  2 0.45367104E+03</rscale>
<asrwt>0</asrwt>
<pdfrwt beam="1">  1       21 0.21162688E-01 0.45367104E+03</pdfrwt>
<pdfrwt beam="2">  1       21 0.52581560E-01 0.45367104E+03</pdfrwt>
<totfact> 0.65860172E+04</totfact>
</mgrwt>
</event>
<event>
 7    0  0.4707675E-002  0.4549292E+03  0.7546771E-02  0.1026262E+00
         21   -1    0    0  502  501  0.00000000000E+00  0.00000000000E+00  0.52390602175E+03  0.52390602175E+03  0.00000000000E+00 0.  1.
         21   -1    0    0  501  502 -0.00000000000E+00 -0.00000000000E+00 -0.98758430952E+02  0.98758430952E+02  0.00000000000E+00 0.  1.
      99926    2    1    2    0    0  0.00000000000E+00  0.00000000000E+00  0.42514759079E+03  0.62266445270E+03  0.45492916668E+03 0.  0.
      99925    2    3    3    0    0  0.96657931122E+02 -0.30656024785E+02  0.19861364531E+03  0.34472977681E+03  0.26288531989E+03 0.  0.
         25    1    4    4    0    0  0.64348080124E+02 -0.33872266647E+02  0.14491409297E+03  0.20478185541E+03  0.12509000000E+03 0.  0.
         25    1    4    4    0    0  0.32309850997E+02  0.32162418621E+01  0.53699552343E+02  0.13994792140E+03  0.12509000000E+03 0.  0.
         25    1    3    3    0    0 -0.96657931122E+02  0.30656024785E+02  0.22653394548E+03  0.27793467589E+03  0.12509000000E+03 0.  0.
<mgrwt>
<rscale>  2 0.45492917E+03</rscale>
<asrwt>0</asrwt>
<pdfrwt beam="1">  1       21 0.77045002E-01 0.45492917E+03</pdfrwt>
<pdfrwt beam="2">  1       21 0.14523299E-01 0.45492917E+03</pdfrwt>
<totfact> 0.57336519E+04</totfact>
</mgrwt>
</event>
<event>
 7    0  0.4707675E-002  0.4548872E+03  0.7546771E-02  0.1026275E+00
         21   -1    0    0  502  501  0.00000000000E+00  0.00000000000E+00  0.27631749136E+03  0.27631749136E+03  0.00000000000E+00 0. -1.
         21   -1    0    0  501  502 -0.00000000000E+00 -0.00000000000E+00 -0.18721430261E+03  0.18721430261E+03  0.00000000000E+00 0. -1.
      99926    2    1    2    0    0  0.00000000000E+00  0.00000000000E+00  0.89103188746E+02  0.46353179397E+03  0.45488717917E+03 0.  0.
      99925    2    3    3    0    0  0.26356884462E+02 -0.79451135870E+02 -0.21020360045E+02  0.27703280618E+03  0.26324542126E+03 0.  0.
         25    1    4    4    0    0  0.26081806215E+02 -0.57764644319E+02  0.24121640785E+02  0.14228976212E+03  0.12509000000E+03 0.  0.
         25    1    4    4    0    0  0.27507824706E+00 -0.21686491551E+02 -0.45142000830E+02  0.13474304406E+03  0.12509000000E+03 0.  0.
         25    1    3    3    0    0 -0.26356884462E+02  0.79451135870E+02  0.11012354879E+03  0.18649898779E+03  0.12509000000E+03 0.  0.
<mgrwt>
<rscale>  2 0.45488718E+03</rscale>
<asrwt>0</asrwt>
<pdfrwt beam="1">  1       21 0.40634925E-01 0.45488718E+03</pdfrwt>
<pdfrwt beam="2">  1       21 0.27531515E-01 0.45488718E+03</pdfrwt>
<totfact> 0.67980281E+04</totfact>
</mgrwt>
</event>
<event>
 7    0  0.4707675E-002  0.4455991E+03  0.7546771E-02  0.1029043E+00
         21   -1    0    0  502  501  0.00000000000E+00  0.00000000000E+00  0.77336550609E+03  0.77336550609E+03  0.00000000000E+00 0.  1.
         21   -1    0    0  501  502 -0.00000000000E+00 -0.00000000000E+00 -0.64186507625E+02  0.64186507625E+02  0.00000000000E+00 0.  1.
      99926    2    1    2    0    0  0.00000000000E+00  0.00000000000E+00  0.70917899847E+03  0.83755201372E+03  0.44559906173E+03 0.  0.
      99925    2    3    3    0    0 -0.62176896488E+02 -0.74320107638E+02  0.52200846503E+03  0.59246068065E+03  0.26292085444E+03 0.  0.
         25    1    3    3    0    0  0.62176896488E+02  0.74320107638E+02  0.18717053344E+03  0.24509133307E+03  0.12509000000E+03 0.  0.
         25    1    4    4    0    0 -0.59276584640E+02 -0.39214671657E+02  0.21088634676E+03  0.25528819657E+03  0.12509000000E+03 0.  0.
         25    1    4    4    0    0 -0.29003118483E+01 -0.35105435980E+02  0.31112211827E+03  0.33717248408E+03  0.12509000000E+03 0.  0.
<mgrwt>
<rscale>  2 0.44559906E+03</rscale>
<asrwt>0</asrwt>
<pdfrwt beam="1">  1       21 0.11373022E+00 0.44559906E+03</pdfrwt>
<pdfrwt beam="2">  1       21 0.94391928E-02 0.44559906E+03</pdfrwt>
<totfact> 0.49556622E+04</totfact>
</mgrwt>
</event>
<event>
 7    0  0.4707675E-002  0.4468188E+03  0.7546771E-02  0.1028675E+00
         21   -1    0    0  502  501  0.00000000000E+00  0.00000000000E+00  0.81654314005E+02  0.81654314005E+02  0.00000000000E+00 0.  1.
         21   -1    0    0  501  502 -0.00000000000E+00 -0.00000000000E+00 -0.61125691180E+03  0.61125691180E+03  0.00000000000E+00 0.  1.
      99926    2    1    2    0    0  0.35527136788E-14  0.00000000000E+00 -0.52960259780E+03  0.69291122581E+03  0.44681881704E+03 0.  0.
      99925    2    3    3    0    0  0.29245569738E+02 -0.94955827947E+02 -0.38982331248E+03  0.48064330710E+03  0.26302825151E+03 0.  0.
         25    1    3    3    0    0 -0.29245569738E+02  0.94955827947E+02 -0.13977928532E+03  0.21226791871E+03  0.12509000000E+03 0.  0.
         25    1    4    4    0    0 -0.81531520675E+01 -0.82021183286E+02 -0.19961934240E+03  0.24957832108E+03  0.12509000000E+03 0.  0.
         25    1    4    4    0    0  0.37398721805E+02 -0.12934644661E+02 -0.19020397009E+03  0.23106498601E+03  0.12509000000E+03 0.  0.
<mgrwt>
<rscale>  2 0.44681882E+03</rscale>
<asrwt>0</asrwt>
<pdfrwt beam="1">  1       21 0.12007988E-01 0.44681882E+03</pdfrwt>
<pdfrwt beam="2">  1       21 0.89890720E-01 0.44681882E+03</pdfrwt>
<totfact> 0.56863832E+04</totfact>
</mgrwt>
</event>
<event>
 7    0  0.4707675E-002  0.4543200E+03  0.7546771E-02  0.1026442E+00
         21   -1    0    0  502  501  0.00000000000E+00  0.00000000000E+00  0.61378848816E+02  0.61378848816E+02  0.00000000000E+00 0.  1.
         21   -1    0    0  501  502 -0.00000000000E+00 -0.00000000000E+00 -0.84070766771E+03  0.84070766771E+03  0.00000000000E+00 0.  1.
      99926    2    1    2    0    0  0.00000000000E+00  0.00000000000E+00 -0.77932881889E+03  0.90208651652E+03  0.45432001424E+03 0.  0.
      99925    2    3    3    0    0  0.81887634775E+02 -0.51065425040E+02 -0.60562821924E+03  0.66728304810E+03  0.26299784026E+03 0.  0.
         25    1    4    4    0    0  0.33583334827E+02 -0.51957178283E+02 -0.37999904972E+03  0.40481375303E+03  0.12509000000E+03 0.  0.
         25    1    3    3    0    0 -0.81887634775E+02  0.51065425040E+02 -0.17370059965E+03  0.23480346842E+03  0.12509000000E+03 0.  0.
         25    1    4    4    0    0  0.48304299948E+02  0.89175324289E+00 -0.22562916952E+03  0.26246929507E+03  0.12509000000E+03 0.  0.
<mgrwt>
<rscale>  2 0.45432001E+03</rscale>
<asrwt>0</asrwt>
<pdfrwt beam="1">  1       21 0.90263016E-02 0.45432001E+03</pdfrwt>
<pdfrwt beam="2">  1       21 0.12363348E+00 0.45432001E+03</pdfrwt>
<totfact> 0.43374056E+04</totfact>
</mgrwt>
</event>
<event>
 7    0  0.4707675E-002  0.4496279E+03  0.7546771E-02  0.1027833E+00
         21   -1    0    0  502  501  0.00000000000E+00  0.00000000000E+00  0.26608147137E+03  0.26608147137E+03  0.00000000000E+00 0. -1.
         21   -1    0    0  501  502 -0.00000000000E+00 -0.00000000000E+00 -0.18994672985E+03  0.18994672985E+03  0.00000000000E+00 0. -1.
      99926    2    1    2    0    0  0.00000000000E+00  0.00000000000E+00  0.76134741521E+02  0.45602820122E+03  0.44962786996E+03 0.  0.
      99925    2    3    3    0    0  0.54203475259E+02 -0.90972438931E+02  0.26627303830E+02  0.28481927663E+03  0.26305703878E+03 0.  0.
         25    1    4    4    0    0 -0.81289164088E+01 -0.63533930035E+02  0.38988690828E+01  0.14058929130E+03  0.12509000000E+03 0.  0.
         25    1    3    3    0    0 -0.54203475259E+02  0.90972438931E+02  0.49507437691E+02  0.17120892460E+03  0.12509000000E+03 0.  0.
         25    1    4    4    0    0  0.62332391668E+02 -0.27438508896E+02  0.22728434747E+02  0.14422998533E+03  0.12509000000E+03 0.  0.
<mgrwt>
<rscale>  2 0.44962787E+03</rscale>
<asrwt>0</asrwt>
<pdfrwt beam="1">  1       21 0.39129628E-01 0.44962787E+03</pdfrwt>
<pdfrwt beam="2">  1       21 0.27933343E-01 0.44962787E+03</pdfrwt>
<totfact> 0.71484527E+04</totfact>
</mgrwt>
</event>
<event>
 7    0  0.4707675E-002  0.4536362E+03  0.7546771E-02  0.1026643E+00
         21   -1    0    0  502  501  0.00000000000E+00  0.00000000000E+00  0.48459930219E+03  0.48459930219E+03  0.00000000000E+00 0.  1.
         21   -1    0    0  501  502 -0.00000000000E+00 -0.00000000000E+00 -0.10616288691E+03  0.10616288691E+03  0.00000000000E+00 0.  1.
      99926    2    1    2    0    0  0.00000000000E+00  0.00000000000E+00  0.37843641528E+03  0.59076218911E+03  0.45363624598E+03 0.  0.
      99925    2    3    3    0    0 -0.89867970260E+02 -0.38786092390E+02  0.30946403549E+03  0.41759951901E+03  0.26275607695E+03 0.  0.
         25    1    4    4    0    0 -0.26599642382E+01 -0.20170205545E+02  0.13635416021E+03  0.18615552022E+03  0.12509000000E+03 0.  0.
         25    1    3    3    0    0  0.89867970260E+02  0.38786092390E+02  0.68972379791E+02  0.17316267010E+03  0.12509000000E+03 0.  0.
         25    1    4    4    0    0 -0.87208006021E+02 -0.18615886845E+02  0.17310987527E+03  0.23144399879E+03  0.12509000000E+03 0.  0.
<mgrwt>
<rscale>  2 0.45363625E+03</rscale>
<asrwt>0</asrwt>
<pdfrwt beam="1">  1       21 0.71264603E-01 0.45363625E+03</pdfrwt>
<pdfrwt beam="2">  1       21 0.15612189E-01 0.45363625E+03</pdfrwt>
<totfact> 0.59893446E+04</totfact>
</mgrwt>
</event>
<event>
 7    0  0.4707675E-002  0.4588865E+03  0.7546771E-02  0.1025105E+00
         21   -1    0    0  502  501  0.00000000000E+00  0.00000000000E+00  0.14293388579E+03  0.14293388579E+03  0.00000000000E+00 0. -1.
         21   -1    0    0  501  502 -0.00000000000E+00 -0.00000000000E+00 -0.36831154865E+03  0.36831154865E+03  0.00000000000E+00 0. -1.
      99926    2    1    2    0    0  0.00000000000E+00  0.00000000000E+00 -0.22537766286E+03  0.51124543444E+03  0.45888648196E+03 0.  0.
      99925    2    3    3    0    0 -0.39477275862E+02  0.68437235071E+02 -0.23657240168E+03  0.36287110806E+03  0.26356560734E+03 0.  0.
         25    1    3    3    0    0  0.39477275862E+02 -0.68437235071E+02  0.11194738816E+02  0.14837432639E+03  0.12509000000E+03 0.  0.
         25    1    4    4    0    0 -0.43315762746E+02  0.11544390480E+01 -0.10137059069E+03  0.16673659703E+03  0.12509000000E+03 0.  0.
         25    1    4    4    0    0  0.38384868843E+01  0.67282796023E+02 -0.13520181099E+03  0.19613451103E+03  0.12509000000E+03 0.  0.
<mgrwt>
<rscale>  2 0.45888648E+03</rscale>
<asrwt>0</asrwt>
<pdfrwt beam="1">  1       21 0.21019689E-01 0.45888648E+03</pdfrwt>
<pdfrwt beam="2">  1       21 0.54163463E-01 0.45888648E+03</pdfrwt>
<totfact> 0.62536324E+04</totfact>
</mgrwt>
</event>
<event>
 7    0  0.4707675E-002  0.4568808E+03  0.7546771E-02  0.1025690E+00
         21   -1    0    0  502  501  0.00000000000E+00  0.00000000000E+00  0.10259612339E+04  0.10259612339E+04  0.00000000000E+00 0. -1.
         21   -1    0    0  501  502 -0.00000000000E+00 -0.00000000000E+00 -0.50864500482E+02  0.50864500482E+02  0.00000000000E+00 0. -1.
      99926    2    1    2    0    0  0.88817841970E-15 -0.14210854715E-13  0.97509673337E+03  0.10768257343E+04  0.45688075326E+03 0.  0.
      99925    2    3    3    0    0  0.36761312683E+01  0.93738768354E+02  0.76844954350E+03  0.81769055761E+03  0.26325401511E+03 0.  0.
         25    1    4    4    0    0  0.23625470749E+02  0.21844133825E+02  0.28774354678E+03  0.31540321157E+03  0.12509000000E+03 0.  0.
         25    1    3    3    0    0 -0.36761312683E+01 -0.93738768354E+02  0.20664718987E+03  0.25913517672E+03  0.12509000000E+03 0.  0.
         25    1    4    4    0    0 -0.19949339480E+02  0.71894634529E+02  0.48070599671E+03  0.50228734604E+03  0.12509000000E+03 0.  0.
<mgrwt>
<rscale>  2 0.45688075E+03</rscale>
<asrwt>0</asrwt>
<pdfrwt beam="1">  1       21 0.15087664E+00 0.45688075E+03</pdfrwt>
<pdfrwt beam="2">  1       21 0.74800743E-02 0.45688075E+03</pdfrwt>
<totfact> 0.35780225E+04</totfact>
</mgrwt>
</event>
<event>
 7    0  0.4707675E-002  0.4208967E+03  0.7546771E-02  0.1036775E+00
         21   -1    0    0  502  501  0.00000000000E+00  0.00000000000E+00  0.15852915363E+04  0.15852915363E+04  0.00000000000E+00 0.  1.
         21   -1    0    0  501  502 -0.00000000000E+00 -0.00000000000E+00 -0.27937136927E+02  0.27937136927E+02  0.00000000000E+00 0.  1.
      99926    2    1    2    0    0  0.00000000000E+00  0.00000000000E+00  0.15573543994E+04  0.16132286733E+04  0.42089669383E+03 0.  0.
      99925    2    3    3    0    0 -0.38495166869E+02  0.49983602929E+02  0.84550957815E+03  0.88772829691E+03  0.26304912841E+03 0.  0.
         25    1    3    3    0    0  0.38495166869E+02 -0.49983602929E+02  0.71184482126E+03  0.72550037635E+03  0.12509000000E+03 0.  0.
         25    1    4    4    0    0 -0.56519669635E+02  0.24923485873E+02  0.38340960099E+03  0.40800255322E+03  0.12509000000E+03 0.  0.
         25    1    4    4    0    0  0.18024502766E+02  0.25060117056E+02  0.46209997716E+03  0.47972574369E+03  0.12509000000E+03 0.  0.
<mgrwt>
<rscale>  2 0.42089669E+03</rscale>
<asrwt>0</asrwt>
<pdfrwt beam="1">  1       21 0.23313105E+00 0.42089669E+03</pdfrwt>
<pdfrwt beam="2">  1       21 0.41084036E-02 0.42089669E+03</pdfrwt>
<totfact> 0.27796234E+04</totfact>
</mgrwt>
</event>
<event>
 7    0  0.4707675E-002  0.4607517E+03  0.7546771E-02  0.1024563E+00
         21   -1    0    0  502  501  0.00000000000E+00  0.00000000000E+00  0.16022630140E+03  0.16022630140E+03  0.00000000000E+00 0.  1.
         21   -1    0    0  501  502 -0.00000000000E+00 -0.00000000000E+00 -0.33123801316E+03  0.33123801316E+03  0.00000000000E+00 0.  1.
      99926    2    1    2    0    0  0.00000000000E+00  0.00000000000E+00 -0.17101171175E+03  0.49146431456E+03  0.46075174110E+03 0.  0.
      99925    2    3    3    0    0  0.11668289151E+03 -0.97951173018E+01 -0.12493180783E+03  0.31403346285E+03  0.26324554638E+03 0.  0.
         25    1    4    4    0    0  0.92490886621E+02  0.20877899337E+02 -0.72203417950E+02  0.17277526574E+03  0.12509000000E+03 0.  0.
         25    1    3    3    0    0 -0.11668289151E+03  0.97951173018E+01 -0.46079903916E+02  0.17743085171E+03  0.12509000000E+03 0.  0.
         25    1    4    4    0    0  0.24192004886E+02 -0.30673016639E+02 -0.52728389885E+02  0.14125819711E+03  0.12509000000E+03 0.  0.
<mgrwt>
<rscale>  2 0.46075174E+03</rscale>
<asrwt>0</asrwt>
<pdfrwt beam="1">  1       21 0.23562691E-01 0.46075174E+03</pdfrwt>
<pdfrwt beam="2">  1       21 0.48711472E-01 0.46075174E+03</pdfrwt>
<totfact> 0.62950725E+04</totfact>
</mgrwt>
</event>
<event>
 7    0  0.4707675E-002  0.4465418E+03  0.7546771E-02  0.1028758E+00
         21   -1    0    0  502  501  0.00000000000E+00  0.00000000000E+00  0.20687174792E+03  0.20687174792E+03  0.00000000000E+00 0. -1.
         21   -1    0    0  501  502 -0.00000000000E+00 -0.00000000000E+00 -0.24097009537E+03  0.24097009537E+03  0.00000000000E+00 0. -1.
      99926    2    1    2    0    0  0.00000000000E+00  0.00000000000E+00 -0.34098347444E+02  0.44784184329E+03  0.44654184496E+03 0.  0.
      99925    2    3    3    0    0 -0.46071249689E+02 -0.63322563966E+02 -0.91573918643E+02  0.28946489882E+03  0.26319543673E+03 0.  0.
         25    1    3    3    0    0  0.46071249689E+02  0.63322563966E+02  0.57475571199E+02  0.15837694447E+03  0.12509000000E+03 0.  0.
         25    1    4    4    0    0 -0.20163664919E+02 -0.17521324352E+01 -0.13101707623E+02  0.12739233177E+03  0.12509000000E+03 0.  0.
         25    1    4    4    0    0 -0.25907584770E+02 -0.61570431531E+02 -0.78472211020E+02  0.16207256705E+03  0.12509000000E+03 0.  0.
<mgrwt>
<rscale>  2 0.44654184E+03</rscale>
<asrwt>0</asrwt>
<pdfrwt beam="1">  1       21 0.30422316E-01 0.44654184E+03</pdfrwt>
<pdfrwt beam="2">  1       21 0.35436778E-01 0.44654184E+03</pdfrwt>
<totfact> 0.73938636E+04</totfact>
</mgrwt>
</event>
<event>
 7    0  0.4707675E-002  0.4539270E+03  0.7546771E-02  0.1026557E+00
         21   -1    0    0  502  501  0.00000000000E+00  0.00000000000E+00  0.21467397454E+03  0.21467397454E+03  0.00000000000E+00 0. -1.
         21   -1    0    0  501  502 -0.00000000000E+00 -0.00000000000E+00 -0.23995653446E+03  0.23995653446E+03  0.00000000000E+00 0. -1.
      99926    2    1    2    0    0  0.00000000000E+00  0.00000000000E+00 -0.25282559922E+02  0.45463050900E+03  0.45392696756E+03 0.  0.
      99925    2    3    3    0    0 -0.88731698525E+02 -0.65350187530E+02  0.50640116149E+01  0.28518321974E+03  0.26298262922E+03 0.  0.
         25    1    4    4    0    0 -0.54182075564E+02 -0.92117316892E+01 -0.29152275824E+02  0.13970653742E+03  0.12509000000E+03 0.  0.
         25    1    4    4    0    0 -0.34549622961E+02 -0.56138455840E+02  0.34216287439E+02  0.14547668231E+03  0.12509000000E+03 0.  0.
         25    1    3    3    0    0  0.88731698525E+02  0.65350187530E+02 -0.30346571537E+02  0.16944728926E+03  0.12509000000E+03 0.  0.
<mgrwt>
<rscale>  2 0.45392697E+03</rscale>
<asrwt>0</asrwt>
<pdfrwt beam="1">  1       21 0.31569702E-01 0.45392697E+03</pdfrwt>
<pdfrwt beam="2">  1       21 0.35287726E-01 0.45392697E+03</pdfrwt>
<totfact> 0.69163151E+04</totfact>
</mgrwt>
</event>
<event>
 7    0  0.4707675E-002  0.4469778E+03  0.7546771E-02  0.1028627E+00
         21   -1    0    0  502  501  0.00000000000E+00  0.00000000000E+00  0.41067410388E+03  0.41067410388E+03  0.00000000000E+00 0.  1.
         21   -1    0    0  501  502 -0.00000000000E+00 -0.00000000000E+00 -0.12162270745E+03  0.12162270745E+03  0.00000000000E+00 0.  1.
      99926    2    1    2    0    0 -0.71054273576E-14  0.71054273576E-14  0.28905139643E+03  0.53229681134E+03  0.44697783567E+03 0.  0.
      99925    2    3    3    0    0 -0.38173034786E+02 -0.50524758341E+02  0.28382905668E+03  0.39199459210E+03  0.26285146952E+03 0.  0.
         25    1    4    4    0    0 -0.52900984064E+02 -0.81116821475E+01  0.16355240767E+03  0.21274682525E+03  0.12509000000E+03 0.  0.
         25    1    4    4    0    0  0.14727949277E+02 -0.42413076193E+02  0.12027664901E+03  0.17924776685E+03  0.12509000000E+03 0.  0.
         25    1    3    3    0    0  0.38173034786E+02  0.50524758341E+02  0.52223397493E+01  0.14030221924E+03  0.12509000000E+03 0.  0.
<mgrwt>
<rscale>  2 0.44697784E+03</rscale>
<asrwt>0</asrwt>
<pdfrwt beam="1">  1       21 0.60393250E-01 0.44697784E+03</pdfrwt>
<pdfrwt beam="2">  1       21 0.17885692E-01 0.44697784E+03</pdfrwt>
<totfact> 0.67219449E+04</totfact>
</mgrwt>
</event>
<event>
 7    0  0.4707675E-002  0.4583502E+03  0.7546771E-02  0.1025261E+00
         21   -1    0    0  502  501  0.00000000000E+00  0.00000000000E+00  0.75128345959E+02  0.75128345959E+02  0.00000000000E+00 0. -1.
         21   -1    0    0  501  502 -0.00000000000E+00 -0.00000000000E+00 -0.69908668633E+03  0.69908668633E+03  0.00000000000E+00 0. -1.
      99926    2    1    2    0    0  0.00000000000E+00  0.00000000000E+00 -0.62395834037E+03  0.77421503229E+03  0.45835019985E+03 0.  0.
      99925    2    3    3    0    0  0.89098756186E+02  0.53703915054E+02 -0.47911321350E+03  0.55638409389E+03  0.26304199235E+03 0.  0.
         25    1    4    4    0    0  0.57925133024E+02 -0.11594369193E+02 -0.23106321774E+03  0.26930924441E+03  0.12509000000E+03 0.  0.
         25    1    4    4    0    0  0.31173623162E+02  0.65298284247E+02 -0.24804999576E+03  0.28707484948E+03  0.12509000000E+03 0.  0.
         25    1    3    3    0    0 -0.89098756186E+02 -0.53703915054E+02 -0.14484512687E+03  0.21783093840E+03  0.12509000000E+03 0.  0.
<mgrwt>
<rscale>  2 0.45835020E+03</rscale>
<asrwt>0</asrwt>
<pdfrwt beam="1">  1       21 0.11048287E-01 0.45835020E+03</pdfrwt>
<pdfrwt beam="2">  1       21 0.10280686E+00 0.45835020E+03</pdfrwt>
<totfact> 0.47768635E+04</totfact>
</mgrwt>
</event>
<event>
 7    0  0.4707675E-002  0.4540551E+03  0.7546771E-02  0.1026520E+00
         21   -1    0    0  502  501  0.00000000000E+00  0.00000000000E+00  0.92200295423E+02  0.92200295423E+02  0.00000000000E+00 0. -1.
         21   -1    0    0  501  502 -0.00000000000E+00 -0.00000000000E+00 -0.55901665541E+03  0.55901665541E+03  0.00000000000E+00 0. -1.
      99926    2    1    2    0    0 -0.35527136788E-14  0.00000000000E+00 -0.46681635998E+03  0.65121695083E+03  0.45405506615E+03 0.  0.
      99925    2    3    3    0    0  0.19443414505E+02  0.11041264150E+03 -0.28871651452E+03  0.40639852664E+03  0.26312266896E+03 0.  0.
         25    1    4    4    0    0  0.38713943908E+02  0.37336125849E+02 -0.17194945237E+03  0.21933280196E+03  0.12509000000E+03 0.  0.
         25    1    4    4    0    0 -0.19270529403E+02  0.73076515655E+02 -0.11676706216E+03  0.18706572468E+03  0.12509000000E+03 0.  0.
         25    1    3    3    0    0 -0.19443414505E+02 -0.11041264150E+03 -0.17809984546E+03  0.24481842419E+03  0.12509000000E+03 0.  0.
<mgrwt>
<rscale>  2 0.45405507E+03</rscale>
<asrwt>0</asrwt>
<pdfrwt beam="1">  1       21 0.13558867E-01 0.45405507E+03</pdfrwt>
<pdfrwt beam="2">  1       21 0.82208331E-01 0.45405507E+03</pdfrwt>
<totfact> 0.56048063E+04</totfact>
</mgrwt>
</event>
<event>
 7    0  0.4707675E-002  0.4779239E+03  0.7546771E-02  0.1019707E+00
         21   -1    0    0  502  501  0.00000000000E+00  0.00000000000E+00  0.23827985435E+03  0.23827985435E+03  0.00000000000E+00 0. -1.
         21   -1    0    0  501  502 -0.00000000000E+00 -0.00000000000E+00 -0.23964598294E+03  0.23964598294E+03  0.00000000000E+00 0. -1.
      99926    2    1    2    0    0  0.00000000000E+00  0.00000000000E+00 -0.13661285932E+01  0.47792583729E+03  0.47792388478E+03 0.  0.
      99925    2    3    3    0    0  0.11928266389E+03 -0.32358094247E+02  0.49696049920E+02  0.29481315520E+03  0.26300132877E+03 0.  0.
         25    1    4    4    0    0  0.57670330590E+02 -0.39057276793E+02 -0.88166364083E+01  0.14344538709E+03  0.12509000000E+03 0.  0.
         25    1    4    4    0    0  0.61612333299E+02  0.66991825462E+01  0.58512686329E+02  0.15136776811E+03  0.12509000000E+03 0.  0.
         25    1    3    3    0    0 -0.11928266389E+03  0.32358094247E+02 -0.51062178514E+02  0.18311268209E+03  0.12509000000E+03 0.  0.
<mgrwt>
<rscale>  2 0.47792388E+03</rscale>
<asrwt>0</asrwt>
<pdfrwt beam="1">  1       21 0.35041155E-01 0.47792388E+03</pdfrwt>
<pdfrwt beam="2">  1       21 0.35242056E-01 0.47792388E+03</pdfrwt>
<totfact> 0.55943482E+04</totfact>
</mgrwt>
</event>
<event>
 7    0  0.4707675E-002  0.4479767E+03  0.7546771E-02  0.1028327E+00
         21   -1    0    0  502  501  0.00000000000E+00  0.00000000000E+00  0.91061404398E+02  0.91061404398E+02  0.00000000000E+00 0. -1.
         21   -1    0    0  501  502 -0.00000000000E+00 -0.00000000000E+00 -0.55095547877E+03  0.55095547877E+03  0.00000000000E+00 0. -1.
      99926    2    1    2    0    0  0.17763568394E-14 -0.88817841970E-15 -0.45989407437E+03  0.64201688316E+03  0.44797669429E+03 0.  0.
      99925    2    3    3    0    0  0.83272776665E+01 -0.46100060922E+01 -0.13971356857E+03  0.29813658407E+03  0.26320134082E+03 0.  0.
         25    1    3    3    0    0 -0.83272776665E+01  0.46100060922E+01 -0.32018050580E+03  0.34388029909E+03  0.12509000000E+03 0.  0.
         25    1    4    4    0    0 -0.11261713351E+02  0.72647697419E+00 -0.26847306734E+02  0.12843535314E+03  0.12509000000E+03 0.  0.
         25    1    4    4    0    0  0.19588991018E+02 -0.53364830663E+01 -0.11286626183E+03  0.16970123093E+03  0.12509000000E+03 0.  0.
<mgrwt>
<rscale>  2 0.44797669E+03</rscale>
<asrwt>0</asrwt>
<pdfrwt beam="1">  1       21 0.13391383E-01 0.44797669E+03</pdfrwt>
<pdfrwt beam="2">  1       21 0.81022862E-01 0.44797669E+03</pdfrwt>
<totfact> 0.59387064E+04</totfact>
</mgrwt>
</event>
<event>
 7    0  0.4707675E-002  0.4547814E+03  0.7546771E-02  0.1026306E+00
         21   -1    0    0  502  501  0.00000000000E+00  0.00000000000E+00  0.17724154813E+03  0.17724154813E+03  0.00000000000E+00 0. -1.
         21   -1    0    0  501  502 -0.00000000000E+00 -0.00000000000E+00 -0.29172916179E+03  0.29172916179E+03  0.00000000000E+00 0. -1.
      99926    2    1    2    0    0  0.71054273576E-14  0.00000000000E+00 -0.11448761367E+03  0.46897070992E+03  0.45478139043E+03 0.  0.
      99925    2    3    3    0    0 -0.35509425007E+02 -0.65479931299E+02  0.15432320054E+02  0.27384193719E+03  0.26306407850E+03 0.  0.
         25    1    3    3    0    0  0.35509425007E+02  0.65479931299E+02 -0.12991993372E+03  0.19512877272E+03  0.12509000000E+03 0.  0.
         25    1    4    4    0    0 -0.53394363419E+02 -0.13216074864E+02  0.90589334935E+01  0.13694960772E+03  0.12509000000E+03 0.  0.
         25    1    4    4    0    0  0.17884938412E+02 -0.52263856435E+02  0.63733865606E+01  0.13689232947E+03  0.12509000000E+03 0.  0.
<mgrwt>
<rscale>  2 0.45478139E+03</rscale>
<asrwt>0</asrwt>
<pdfrwt beam="1">  1       21 0.26064934E-01 0.45478139E+03</pdfrwt>
<pdfrwt beam="2">  1       21 0.42901347E-01 0.45478139E+03</pdfrwt>
<totfact> 0.67629581E+04</totfact>
</mgrwt>
</event>
<event>
 7    0  0.4707675E-002  0.4495436E+03  0.7546771E-02  0.1027858E+00
         21   -1    0    0  502  501  0.00000000000E+00  0.00000000000E+00  0.52763561737E+03  0.52763561737E+03  0.00000000000E+00 0. -1.
         21   -1    0    0  501  502 -0.00000000000E+00 -0.00000000000E+00 -0.95752382732E+02  0.95752382732E+02  0.00000000000E+00 0. -1.
      99926    2    1    2    0    0 -0.71054273576E-14  0.00000000000E+00  0.43188323464E+03  0.62338800010E+03  0.44954362448E+03 0.  0.
      99925    2    3    3    0    0 -0.46852371909E+02  0.60186770111E+02  0.16758030323E+03  0.32119412244E+03  0.26318228323E+03 0.  0.
         25    1    4    4    0    0 -0.47429258452E+02 -0.25677130401E+01  0.74953279406E+02  0.15336762990E+03  0.12509000000E+03 0.  0.
         25    1    3    3    0    0  0.46852371909E+02 -0.60186770111E+02  0.26430293140E+03  0.30219387766E+03  0.12509000000E+03 0.  0.
         25    1    4    4    0    0  0.57688654330E+00  0.62754483151E+02  0.92627023829E+02  0.16782649254E+03  0.12509000000E+03 0.  0.
<mgrwt>
<rscale>  2 0.44954362E+03</rscale>
<asrwt>0</asrwt>
<pdfrwt beam="1">  1       21 0.77593472E-01 0.44954362E+03</pdfrwt>
<pdfrwt beam="2">  1       21 0.14081233E-01 0.44954362E+03</pdfrwt>
<totfact> 0.59795977E+04</totfact>
</mgrwt>
</event>
<event>
 7    0  0.4707675E-002  0.4544230E+03  0.7546771E-02  0.1026411E+00
         21   -1    0    0  502  501  0.00000000000E+00  0.00000000000E+00  0.38776988052E+02  0.38776988052E+02  0.00000000000E+00 0. -1.
         21   -1    0    0  501  502 -0.00000000000E+00 -0.00000000000E+00 -0.13313324613E+04  0.13313324613E+04  0.00000000000E+00 0. -1.
      99926    2    1    2    0    0  0.00000000000E+00 -0.14210854715E-13 -0.12925554732E+04  0.13701094494E+04  0.45442298773E+03 0.  0.
      99925    2    3    3    0    0  0.39174381200E+02 -0.10020535918E+03 -0.91083536353E+03  0.95425671530E+03  0.26345601739E+03 0.  0.
         25    1    4    4    0    0  0.44969307543E+02 -0.19017848690E+02 -0.47260456961E+03  0.49131100589E+03  0.12509000000E+03 0.  0.
         25    1    3    3    0    0 -0.39174381200E+02  0.10020535918E+03 -0.38172010972E+03  0.41585273405E+03  0.12509000000E+03 0.  0.
         25    1    4    4    0    0 -0.57949263433E+01 -0.81187510486E+02 -0.43823079392E+03  0.46294570942E+03  0.12509000000E+03 0.  0.
<mgrwt>
<rscale>  2 0.45442299E+03</rscale>
<asrwt>0</asrwt>
<pdfrwt beam="1">  1       21 0.57024980E-02 0.45442299E+03</pdfrwt>
<pdfrwt beam="2">  1       21 0.19578419E+00 0.45442299E+03</pdfrwt>
<totfact> 0.27261600E+04</totfact>
</mgrwt>
</event>
<event>
 7    0  0.4707675E-002  0.4567450E+03  0.7546771E-02  0.1025729E+00
         21   -1    0    0  502  501  0.00000000000E+00  0.00000000000E+00  0.36245031293E+03  0.36245031293E+03  0.00000000000E+00 0. -1.
         21   -1    0    0  501  502 -0.00000000000E+00 -0.00000000000E+00 -0.14389284814E+03  0.14389284814E+03  0.00000000000E+00 0. -1.
      99926    2    1    2    0    0  0.00000000000E+00  0.00000000000E+00  0.21855746479E+03  0.50634316108E+03  0.45674503977E+03 0.  0.
      99925    2    3    3    0    0  0.27093296160E+02 -0.19670525197E+02  0.25894457093E+03  0.37069802589E+03  0.26314208960E+03 0.  0.
         25    1    3    3    0    0 -0.27093296160E+02  0.19670525197E+02 -0.40387106144E+02  0.13564513519E+03  0.12509000000E+03 0.  0.
         25    1    4    4    0    0 -0.12245417886E+01 -0.27162183567E+02  0.17654268341E+03  0.21806905072E+03  0.12509000000E+03 0.  0.
         25    1    4    4    0    0  0.28317837949E+02  0.74916583702E+01  0.82401887527E+02  0.15262897516E+03  0.12509000000E+03 0.  0.
<mgrwt>
<rscale>  2 0.45674504E+03</rscale>
<asrwt>0</asrwt>
<pdfrwt beam="1">  1       21 0.53301516E-01 0.45674504E+03</pdfrwt>
<pdfrwt beam="2">  1       21 0.21160713E-01 0.45674504E+03</pdfrwt>
<totfact> 0.63937115E+04</totfact>
</mgrwt>
</event>
<event>
 7    0  0.4707675E-002  0.4539411E+03  0.7546771E-02  0.1026553E+00
         21   -1    0    0  502  501  0.00000000000E+00  0.00000000000E+00  0.31855497681E+03  0.31855497681E+03  0.00000000000E+00 0.  1.
         21   -1    0    0  501  502 -0.00000000000E+00 -0.00000000000E+00 -0.16171663228E+03  0.16171663228E+03  0.00000000000E+00 0.  1.
      99926    2    1    2    0    0  0.00000000000E+00  0.00000000000E+00  0.15683834453E+03  0.48027160910E+03  0.45394113296E+03 0.  0.
      99925    2    3    3    0    0  0.10042416489E+03  0.43131436436E+02  0.12532934001E+03  0.31119866872E+03  0.26304340753E+03 0.  0.
         25    1    4    4    0    0  0.87864624044E+02  0.42918736357E+02  0.62257276856E+02  0.17054526294E+03  0.12509000000E+03 0.  0.
         25    1    3    3    0    0 -0.10042416489E+03 -0.43131436436E+02  0.31509004516E+02  0.16907294038E+03  0.12509000000E+03 0.  0.
         25    1    4    4    0    0  0.12559540845E+02  0.21270007884E+00  0.63072063157E+02  0.14065340578E+03  0.12509000000E+03 0.  0.
<mgrwt>
<rscale>  2 0.45394113E+03</rscale>
<asrwt>0</asrwt>
<pdfrwt beam="1">  1       21 0.46846320E-01 0.45394113E+03</pdfrwt>
<pdfrwt beam="2">  1       21 0.23781858E-01 0.45394113E+03</pdfrwt>
<totfact> 0.67243736E+04</totfact>
</mgrwt>
</event>
<event>
 7    0  0.4707675E-002  0.4589975E+03  0.7546771E-02  0.1025072E+00
         21   -1    0    0  502  501  0.00000000000E+00  0.00000000000E+00  0.61019503496E+02  0.61019503496E+02  0.00000000000E+00 0. -1.
         21   -1    0    0  501  502 -0.00000000000E+00 -0.00000000000E+00 -0.86316139649E+03  0.86316139649E+03  0.00000000000E+00 0. -1.
      99926    2    1    2    0    0 -0.22204460493E-14  0.00000000000E+00 -0.80214189300E+03  0.92418089999E+03  0.45899751568E+03 0.  0.
      99925    2    3    3    0    0  0.21540764299E+01  0.48114370322E+02 -0.71731296692E+03  0.76555212745E+03  0.26308275250E+03 0.  0.
         25    1    4    4    0    0  0.24419470230E+02  0.44090332359E+02 -0.29181836686E+03  0.32147431510E+03  0.12509000000E+03 0.  0.
         25    1    3    3    0    0 -0.21540764299E+01 -0.48114370322E+02 -0.84828926079E+02  0.15862877254E+03  0.12509000000E+03 0.  0.
         25    1    4    4    0    0 -0.22265393800E+02  0.40240379629E+01 -0.42549460006E+03  0.44407781235E+03  0.12509000000E+03 0.  0.
<mgrwt>
<rscale>  2 0.45899752E+03</rscale>
<asrwt>0</asrwt>
<pdfrwt beam="1">  1       21 0.89734558E-02 0.45899752E+03</pdfrwt>
<pdfrwt beam="2">  1       21 0.12693551E+00 0.45899752E+03</pdfrwt>
<totfact> 0.40909798E+04</totfact>
</mgrwt>
</event>
<event>
 7    0  0.4707675E-002  0.4474459E+03  0.7546771E-02  0.1028486E+00
         21   -1    0    0  502  501  0.00000000000E+00  0.00000000000E+00  0.24282619206E+03  0.24282619206E+03  0.00000000000E+00 0.  1.
         21   -1    0    0  501  502 -0.00000000000E+00 -0.00000000000E+00 -0.20612254106E+03  0.20612254106E+03  0.00000000000E+00 0.  1.
      99926    2    1    2    0    0  0.00000000000E+00  0.00000000000E+00  0.36703651005E+02  0.44894873312E+03  0.44744587044E+03 0.  0.
      99925    2    3    3    0    0  0.50280212933E+02 -0.80342632266E+02 -0.23825616765E+02  0.28073952193E+03  0.26318050989E+03 0.  0.
         25    1    4    4    0    0  0.61281376532E+02 -0.25519506691E+02 -0.24515923409E+02  0.14371913906E+03  0.12509000000E+03 0.  0.
         25    1    4    4    0    0 -0.11001163598E+02 -0.54823125575E+02  0.69030664426E+00  0.13702038287E+03  0.12509000000E+03 0.  0.
         25    1    3    3    0    0 -0.50280212933E+02  0.80342632266E+02  0.60529267769E+02  0.16820921119E+03  0.12509000000E+03 0.  0.
<mgrwt>
<rscale>  2 0.44744587E+03</rscale>
<asrwt>0</asrwt>
<pdfrwt beam="1">  1       21 0.35709734E-01 0.44744587E+03</pdfrwt>
<pdfrwt beam="2">  1       21 0.30312138E-01 0.44744587E+03</pdfrwt>
<totfact> 0.73311410E+04</totfact>
</mgrwt>
</event>
<event>
 6    0  0.4707675E-002  0.4555983E+03  0.7546771E-02  0.1026066E+00
         21   -1    0    0  502  501  0.00000000000E+00  0.00000000000E+00  0.46417948303E+03  0.46417948303E+03  0.00000000000E+00 0. -1.
         21   -1    0    0  501  502 -0.00000000000E+00 -0.00000000000E+00 -0.11179394800E+03  0.11179394800E+03  0.00000000000E+00 0. -1.
      99926    2    1    2    0    0 -0.17763568394E-14  0.00000000000E+00  0.35238553503E+03  0.57597343103E+03  0.45559831864E+03 0.  0.
         25    1    3    3    0    0  0.29046487528E+02 -0.58159000185E+01  0.12843356874E+03  0.18171464666E+03  0.12509000000E+03 0.  0.
         25    1    3    3    0    0 -0.44930924644E+02 -0.72508819550E+02  0.18825582007E+03  0.24158658653E+03  0.12509000000E+03 0.  0.
         25    1    3    3    0    0  0.15884437117E+02  0.78324719568E+02  0.35696146223E+02  0.15267219784E+03  0.12509000000E+03 0.  0.
<mgrwt>
<rscale>  2 0.45559832E+03</rscale>
<asrwt>0</asrwt>
<pdfrwt beam="1">  1       21 0.68261688E-01 0.45559832E+03</pdfrwt>
<pdfrwt beam="2">  1       21 0.16440287E-01 0.45559832E+03</pdfrwt>
<totfact> 0.59898226E+04</totfact>
</mgrwt>
</event>
<event>
 7    0  0.4707675E-002  0.4549639E+03  0.7546771E-02  0.1026252E+00
         21   -1    0    0  502  501  0.00000000000E+00  0.00000000000E+00  0.38298371452E+03  0.38298371452E+03  0.00000000000E+00 0. -1.
         21   -1    0    0  501  502 -0.00000000000E+00 -0.00000000000E+00 -0.13511810340E+03  0.13511810340E+03  0.00000000000E+00 0. -1.
      99926    2    1    2    0    0  0.00000000000E+00 -0.14210854715E-13  0.24786561112E+03  0.51810181792E+03  0.45496388050E+03 0.  0.
      99925    2    3    3    0    0 -0.26666165044E+02 -0.94064684977E+02  0.22081356857E+03  0.35704726063E+03  0.26299213856E+03 0.  0.
         25    1    4    4    0    0 -0.19590492839E+02 -0.87636947625E+02  0.13756704535E+03  0.20648540400E+03  0.12509000000E+03 0.  0.
         25    1    4    4    0    0 -0.70756722048E+01 -0.64277373519E+01  0.83246523214E+02  0.15056185663E+03  0.12509000000E+03 0.  0.
         25    1    3    3    0    0  0.26666165044E+02  0.94064684977E+02  0.27052042555E+02  0.16105455729E+03  0.12509000000E+03 0.  0.
<mgrwt>
<rscale>  2 0.45496388E+03</rscale>
<asrwt>0</asrwt>
<pdfrwt beam="1">  1       21 0.56321134E-01 0.45496388E+03</pdfrwt>
<pdfrwt beam="2">  1       21 0.19870309E-01 0.45496388E+03</pdfrwt>
<totfact> 0.64035132E+04</totfact>
</mgrwt>
</event>
<event>
 7    0  0.4707675E-002  0.4573675E+03  0.7546771E-02  0.1025547E+00
         21   -1    0    0  502  501  0.00000000000E+00  0.00000000000E+00  0.13922932019E+03  0.13922932019E+03  0.00000000000E+00 0. -1.
         21   -1    0    0  501  502 -0.00000000000E+00 -0.00000000000E+00 -0.37561239228E+03  0.37561239228E+03  0.00000000000E+00 0. -1.
      99926    2    1    2    0    0  0.00000000000E+00  0.00000000000E+00 -0.23638307209E+03  0.51484171247E+03  0.45736750227E+03 0.  0.
      99925    2    3    3    0    0  0.12730207396E+02 -0.11375342659E+03 -0.16503779596E+03  0.33088640060E+03  0.26295709872E+03 0.  0.
         25    1    4    4    0    0  0.12878600275E+02 -0.75647292743E+02 -0.45303845579E+02  0.15358488783E+03  0.12509000000E+03 0.  0.
         25    1    3    3    0    0 -0.12730207396E+02  0.11375342659E+03 -0.71345276124E+02  0.18395531187E+03  0.12509000000E+03 0.  0.
         25    1    4    4    0    0 -0.14839287934E+00 -0.38106133845E+02 -0.11973395039E+03  0.17730151277E+03  0.12509000000E+03 0.  0.
<mgrwt>
<rscale>  2 0.45736750E+03</rscale>
<asrwt>0</asrwt>
<pdfrwt beam="1">  1       21 0.20474901E-01 0.45736750E+03</pdfrwt>
<pdfrwt beam="2">  1       21 0.55237115E-01 0.45736750E+03</pdfrwt>
<totfact> 0.63047232E+04</totfact>
</mgrwt>
</event>
<event>
 7    0  0.4707675E-002  0.4512888E+03  0.7546771E-02  0.1027338E+00
         21   -1    0    0  502  501  0.00000000000E+00  0.00000000000E+00  0.32966337664E+03  0.32966337664E+03  0.00000000000E+00 0. -1.
         21   -1    0    0  501  502 -0.00000000000E+00 -0.00000000000E+00 -0.15444664487E+03  0.15444664487E+03  0.00000000000E+00 0. -1.
      99926    2    1    2    0    0  0.00000000000E+00  0.14210854715E-13  0.17521673177E+03  0.48411002151E+03  0.45128883194E+03 0.  0.
      99925    2    3    3    0    0 -0.60003897912E+02 -0.91590426648E+02  0.11143227974E+03  0.30605037296E+03  0.26317371412E+03 0.  0.
         25    1    4    4    0    0 -0.45740548339E+02 -0.12052563926E+02  0.33032764815E+02  0.13775388819E+03  0.12509000000E+03 0.  0.
         25    1    4    4    0    0 -0.14263349573E+02 -0.79537862722E+02  0.78399514924E+02  0.16829648478E+03  0.12509000000E+03 0.  0.
         25    1    3    3    0    0  0.60003897912E+02  0.91590426648E+02  0.63784452032E+02  0.17805964854E+03  0.12509000000E+03 0.  0.
<mgrwt>
<rscale>  2 0.45128883E+03</rscale>
<asrwt>0</asrwt>
<pdfrwt beam="1">  1       21 0.48479909E-01 0.45128883E+03</pdfrwt>
<pdfrwt beam="2">  1       21 0.22712742E-01 0.45128883E+03</pdfrwt>
<totfact> 0.68395007E+04</totfact>
</mgrwt>
</event>
<event>
 7    0  0.4707675E-002  0.4527439E+03  0.7546771E-02  0.1026907E+00
         21   -1    0    0  502  501  0.00000000000E+00  0.00000000000E+00  0.11880906502E+03  0.11880906502E+03  0.00000000000E+00 0. -1.
         21   -1    0    0  501  502 -0.00000000000E+00 -0.00000000000E+00 -0.43131605641E+03  0.43131605641E+03  0.00000000000E+00 0. -1.
      99926    2    1    2    0    0  0.00000000000E+00  0.14210854715E-13 -0.31250699138E+03  0.55012512143E+03  0.45274388959E+03 0.  0.
      99925    2    3    3    0    0 -0.70161068153E+01 -0.10500083470E+03 -0.24014940091E+03  0.37135842979E+03  0.26298469076E+03 0.  0.
         25    1    3    3    0    0  0.70161068153E+01  0.10500083470E+03 -0.72357590470E+02  0.17876669164E+03  0.12509000000E+03 0.  0.
         25    1    4    4    0    0  0.95404305381E+01 -0.13360597526E+02 -0.12411056582E+03  0.17697589110E+03  0.12509000000E+03 0.  0.
         25    1    4    4    0    0 -0.16556537353E+02 -0.91640237171E+02 -0.11603883509E+03  0.19438253869E+03  0.12509000000E+03 0.  0.
<mgrwt>
<rscale>  2 0.45274389E+03</rscale>
<asrwt>0</asrwt>
<pdfrwt beam="1">  1       21 0.17471921E-01 0.45274389E+03</pdfrwt>
<pdfrwt beam="2">  1       21 0.63428832E-01 0.45274389E+03</pdfrwt>
<totfact> 0.62974839E+04</totfact>
</mgrwt>
</event>
<event>
 7    0  0.4707675E-002  0.4534235E+03  0.7546771E-02  0.1026706E+00
         21   -1    0    0  502  501  0.00000000000E+00  0.00000000000E+00  0.96565666457E+02  0.96565666457E+02  0.00000000000E+00 0.  1.
         21   -1    0    0  501  502 -0.00000000000E+00 -0.00000000000E+00 -0.53226179650E+03  0.53226179650E+03  0.00000000000E+00 0.  1.
      99926    2    1    2    0    0  0.00000000000E+00  0.00000000000E+00 -0.43569613004E+03  0.62882746295E+03  0.45342348906E+03 0.  0.
      99925    2    3    3    0    0  0.90751321327E+02  0.59320468277E+02 -0.23750246866E+03  0.37059703138E+03  0.26302094360E+03 0.  0.
         25    1    4    4    0    0  0.10023929779E+02  0.32360282575E+02 -0.80525577916E+02  0.15257635418E+03  0.12509000000E+03 0.  0.
         25    1    3    3    0    0 -0.90751321327E+02 -0.59320468277E+02 -0.19819366138E+03  0.25823043157E+03  0.12509000000E+03 0.  0.
         25    1    4    4    0    0  0.80727391548E+02  0.26960185702E+02 -0.15697689075E+03  0.21802067720E+03  0.12509000000E+03 0.  0.
<mgrwt>
<rscale>  2 0.45342349E+03</rscale>
<asrwt>0</asrwt>
<pdfrwt beam="1">  1       21 0.14200833E-01 0.45342349E+03</pdfrwt>
<pdfrwt beam="2">  1       21 0.78273794E-01 0.45342349E+03</pdfrwt>
<totfact> 0.57652199E+04</totfact>
</mgrwt>
</event>
<event>
 7    0  0.4707675E-002  0.4528044E+03  0.7546771E-02  0.1026889E+00
         21   -1    0    0  502  501  0.00000000000E+00  0.00000000000E+00  0.18027408714E+04  0.18027408714E+04  0.00000000000E+00 0.  1.
         21   -1    0    0  501  502 -0.00000000000E+00 -0.00000000000E+00 -0.28433341048E+02  0.28433341048E+02  0.00000000000E+00 0.  1.
      99926    2    1    2    0    0  0.00000000000E+00  0.00000000000E+00  0.17743075303E+04  0.18311742124E+04  0.45280435518E+03 0.  0.
      99925    2    3    3    0    0 -0.48940103573E+01 -0.55087893923E+02  0.73574793328E+03  0.78364751963E+03  0.26404504597E+03 0.  0.
         25    1    4    4    0    0 -0.22911429548E+02  0.10054400596E+02  0.34259744971E+03  0.36557700313E+03  0.12509000000E+03 0.  0.
         25    1    4    4    0    0  0.18017419191E+02 -0.65142294520E+02  0.39315048357E+03  0.41807051650E+03  0.12509000000E+03 0.  0.
         25    1    3    3    0    0  0.48940103573E+01  0.55087893923E+02  0.10385595970E+04  0.10475266928E+04  0.12509000000E+03 0.  0.
<mgrwt>
<rscale>  2 0.45280436E+03</rscale>
<asrwt>0</asrwt>
<pdfrwt beam="1">  1       21 0.26510888E+00 0.45280436E+03</pdfrwt>
<pdfrwt beam="2">  1       21 0.41813749E-02 0.45280436E+03</pdfrwt>
<totfact> 0.16955172E+04</totfact>
</mgrwt>
</event>
<event>
 7    0  0.4707675E-002  0.4576552E+03  0.7546771E-02  0.1025463E+00
         21   -1    0    0  502  501  0.00000000000E+00  0.00000000000E+00  0.37420004796E+03  0.37420004796E+03  0.00000000000E+00 0.  1.
         21   -1    0    0  501  502 -0.00000000000E+00 -0.00000000000E+00 -0.13993065947E+03  0.13993065947E+03  0.00000000000E+00 0.  1.
      99926    2    1    2    0    0  0.00000000000E+00 -0.71054273576E-14  0.23426938849E+03  0.51413070743E+03  0.45765515177E+03 0.  0.
      99925    2    3    3    0    0  0.11051448945E+03  0.34641514721E+02  0.14507803162E+03  0.32173503919E+03  0.26277806845E+03 0.  0.
         25    1    3    3    0    0 -0.11051448945E+03 -0.34641514721E+02  0.89191356870E+02  0.19239566825E+03  0.12509000000E+03 0.  0.
         25    1    4    4    0    0  0.23060766203E+02 -0.10399103290E+02  0.56047273059E+02  0.13938703385E+03  0.12509000000E+03 0.  0.
         25    1    4    4    0    0  0.87453723246E+02  0.45040618011E+02  0.89030758564E+02  0.18234800534E+03  0.12509000000E+03 0.  0.
<mgrwt>
<rscale>  2 0.45765515E+03</rscale>
<asrwt>0</asrwt>
<pdfrwt beam="1">  1       21 0.55029419E-01 0.45765515E+03</pdfrwt>
<pdfrwt beam="2">  1       21 0.20578038E-01 0.45765515E+03</pdfrwt>
<totfact> 0.62951988E+04</totfact>
</mgrwt>
</event>
<event>
 7    0  0.4707675E-002  0.4543484E+03  0.7546771E-02  0.1026433E+00
         21   -1    0    0  502  501  0.00000000000E+00  0.00000000000E+00  0.12348494024E+04  0.12348494024E+04  0.00000000000E+00 0. -1.
         21   -1    0    0  501  502 -0.00000000000E+00 -0.00000000000E+00 -0.41793038205E+02  0.41793038205E+02  0.00000000000E+00 0. -1.
      99926    2    1    2    0    0  0.00000000000E+00  0.00000000000E+00  0.11930563642E+04  0.12766424406E+04  0.45434836085E+03 0.  0.
      99925    2    3    3    0    0 -0.10517947993E+03 -0.39964155764E+02  0.74937460996E+03  0.80213125645E+03  0.26304446351E+03 0.  0.
         25    1    3    3    0    0  0.10517947993E+03  0.39964155764E+02  0.44368175422E+03  0.47451118414E+03  0.12509000000E+03 0.  0.
         25    1    4    4    0    0 -0.14457020926E+02  0.21270997232E+01  0.32827469858E+03  0.35160391897E+03  0.12509000000E+03 0.  0.
         25    1    4    4    0    0 -0.90722459000E+02 -0.42091255487E+02  0.42109991137E+03  0.45052733748E+03  0.12509000000E+03 0.  0.
<mgrwt>
<rscale>  2 0.45434836E+03</rscale>
<asrwt>0</asrwt>
<pdfrwt beam="1">  1       21 0.18159548E+00 0.45434836E+03</pdfrwt>
<pdfrwt beam="2">  1       21 0.61460359E-02 0.45434836E+03</pdfrwt>
<totfact> 0.29952343E+04</totfact>
</mgrwt>
</event>
<event>
 7    0  0.4707675E-002  0.4527302E+03  0.7546771E-02  0.1026911E+00
         21   -1    0    0  502  501  0.00000000000E+00  0.00000000000E+00  0.33049196603E+04  0.33049196603E+04  0.00000000000E+00 0.  1.
         21   -1    0    0  501  502 -0.00000000000E+00 -0.00000000000E+00 -0.15504511120E+02  0.15504511120E+02  0.00000000000E+00 0.  1.
      99926    2    1    2    0    0  0.14210854715E-13  0.71054273576E-14  0.32894151492E+04  0.33204241714E+04  0.45273022265E+03 0.  0.
      99925    2    3    3    0    0  0.63247845181E+02  0.56247705201E+02  0.25973554192E+04  0.26120751952E+04  0.26366182331E+03 0.  0.
         25    1    4    4    0    0  0.69428293956E+02  0.40646604798E+02  0.15587643449E+04  0.15658436146E+04  0.12509000000E+03 0.  0.
         25    1    3    3    0    0 -0.63247845181E+02 -0.56247705201E+02  0.69205972993E+03  0.70834897625E+03  0.12509000000E+03 0.  0.
         25    1    4    4    0    0 -0.61804487741E+01  0.15601100402E+02  0.10385910744E+04  0.10462315806E+04  0.12509000000E+03 0.  0.
<mgrwt>
<rscale>  2 0.45273022E+03</rscale>
<asrwt>0</asrwt>
<pdfrwt beam="1">  1       21 0.48601711E+00 0.45273022E+03</pdfrwt>
<pdfrwt beam="2">  1       21 0.22800775E-02 0.45273022E+03</pdfrwt>
<totfact> 0.18556830E+03</totfact>
</mgrwt>
</event>
<event>
 7    0  0.4707675E-002  0.4547166E+03  0.7546771E-02  0.1026325E+00
         21   -1    0    0  502  501  0.00000000000E+00  0.00000000000E+00  0.18892124524E+04  0.18892124524E+04  0.00000000000E+00 0.  1.
         21   -1    0    0  501  502 -0.00000000000E+00 -0.00000000000E+00 -0.27361558502E+02  0.27361558502E+02  0.00000000000E+00 0.  1.
      99926    2    1    2    0    0 -0.71054273576E-14  0.71054273576E-14  0.18618508939E+04  0.19165740109E+04  0.45471660202E+03 0.  0.
      99925    2    3    3    0    0 -0.35956941523E+02  0.60212098102E+02  0.15466413691E+04  0.15702750779E+04  0.26219438806E+03 0.  0.
         25    1    3    3    0    0  0.35956941523E+02 -0.60212098102E+02  0.31520952476E+03  0.34629893301E+03  0.12509000000E+03 0.  0.
         25    1    4    4    0    0 -0.37500724407E+02  0.40013788868E+02  0.99094446969E+03  0.10003128799E+04  0.12509000000E+03 0.  0.
         25    1    4    4    0    0  0.15437828844E+01  0.20198309234E+02  0.55569689945E+03  0.56996219798E+03  0.12509000000E+03 0.  0.
<mgrwt>
<rscale>  2 0.45471660E+03</rscale>
<asrwt>0</asrwt>
<pdfrwt beam="1">  1       21 0.27782527E+00 0.45471660E+03</pdfrwt>
<pdfrwt beam="2">  1       21 0.40237599E-02 0.45471660E+03</pdfrwt>
<totfact> 0.15153300E+04</totfact>
</mgrwt>
</event>
<event>
 7    0  0.4707675E-002  0.4565412E+03  0.7546771E-02  0.1025789E+00
         21   -1    0    0  502  501  0.00000000000E+00  0.00000000000E+00  0.80439790735E+02  0.80439790735E+02  0.00000000000E+00 0.  1.
         21   -1    0    0  501  502 -0.00000000000E+00 -0.00000000000E+00 -0.64778233270E+03  0.64778233270E+03  0.00000000000E+00 0.  1.
      99926    2    1    2    0    0  0.14210854715E-13 -0.55511151231E-14 -0.56734254197E+03  0.72822212344E+03  0.45654123706E+03 0.  0.
      99925    2    3    3    0    0  0.11015349904E+03 -0.11697533575E+01 -0.40816001646E+03  0.49774057059E+03  0.26270880249E+03 0.  0.
         25    1    4    4    0    0  0.33711036653E+02  0.33998651151E+02 -0.20070158334E+03  0.24129023173E+03  0.12509000000E+03 0.  0.
         25    1    3    3    0    0 -0.11015349904E+03  0.11697533575E+01 -0.15918252551E+03  0.23048155285E+03  0.12509000000E+03 0.  0.
         25    1    4    4    0    0  0.76442462390E+02 -0.35168404509E+02 -0.20745843312E+03  0.25645033886E+03  0.12509000000E+03 0.  0.
<mgrwt>
<rscale>  2 0.45654124E+03</rscale>
<asrwt>0</asrwt>
<pdfrwt beam="1">  1       21 0.11829381E-01 0.45654124E+03</pdfrwt>
<pdfrwt beam="2">  1       21 0.95262111E-01 0.45654124E+03</pdfrwt>
<totfact> 0.50779105E+04</totfact>
</mgrwt>
</event>
<event>
 7    0  0.4707675E-002  0.4545080E+03  0.7546771E-02  0.1026386E+00
         21   -1    0    0  502  501  0.00000000000E+00  0.00000000000E+00  0.38549357639E+02  0.38549357639E+02  0.00000000000E+00 0. -1.
         21   -1    0    0  501  502 -0.00000000000E+00 -0.00000000000E+00 -0.13396947654E+04  0.13396947654E+04  0.00000000000E+00 0. -1.
      99926    2    1    2    0    0 -0.35527136788E-14  0.14210854715E-13 -0.13011454077E+04  0.13782441230E+04  0.45450796533E+03 0.  0.
      99925    2    3    3    0    0  0.22560425671E+02 -0.70431700214E+02 -0.10771224980E+04  0.11112172154E+04  0.26294719415E+03 0.  0.
         25    1    3    3    0    0 -0.22560425671E+02  0.70431700214E+02 -0.22402290974E+03  0.26702690762E+03  0.12509000000E+03 0.  0.
         25    1    4    4    0    0 -0.48692707873E+01 -0.48485192036E+02 -0.68802823287E+03  0.70100276816E+03  0.12509000000E+03 0.  0.
         25    1    4    4    0    0  0.27429696458E+02 -0.21946508178E+02 -0.38909426513E+03  0.41021444724E+03  0.12509000000E+03 0.  0.
<mgrwt>
<rscale>  2 0.45450797E+03</rscale>
<asrwt>0</asrwt>
<pdfrwt beam="1">  1       21 0.56690234E-02 0.45450797E+03</pdfrwt>
<pdfrwt beam="2">  1       21 0.19701393E+00 0.45450797E+03</pdfrwt>
<totfact> 0.27020759E+04</totfact>
</mgrwt>
</event>
<event>
 7    0  0.4707675E-002  0.4559937E+03  0.7546771E-02  0.1025950E+00
         21   -1    0    0  502  501  0.00000000000E+00  0.00000000000E+00  0.84958110868E+03  0.84958110868E+03  0.00000000000E+00 0. -1.
         21   -1    0    0  501  502 -0.00000000000E+00 -0.00000000000E+00 -0.61186112032E+02  0.61186112032E+02  0.00000000000E+00 0. -1.
      99926    2    1    2    0    0  0.14210854715E-13  0.00000000000E+00  0.78839499665E+03  0.91076722071E+03  0.45599370564E+03 0.  0.
      99925    2    3    3    0    0  0.10990087030E+03 -0.22061895027E+02  0.45356554263E+03  0.53616983700E+03  0.26304270403E+03 0.  0.
         25    1    4    4    0    0  0.69460906238E+02  0.24760407688E+02  0.25546082979E+03  0.29384628455E+03  0.12509000000E+03 0.  0.
         25    1    3    3    0    0 -0.10990087030E+03  0.22061895027E+02  0.33482945402E+03  0.37459738371E+03  0.12509000000E+03 0.  0.
         25    1    4    4    0    0  0.40439964066E+02 -0.46822302716E+02  0.19810471284E+03  0.24232355246E+03  0.12509000000E+03 0.  0.
<mgrwt>
<rscale>  2 0.45599371E+03</rscale>
<asrwt>0</asrwt>
<pdfrwt beam="1">  1       21 0.12493839E+00 0.45599371E+03</pdfrwt>
<pdfrwt beam="2">  1       21 0.89979581E-02 0.45599371E+03</pdfrwt>
<totfact> 0.42440375E+04</totfact>
</mgrwt>
</event>
<event>
 7    0  0.4707675E-002  0.4205778E+03  0.7546771E-02  0.1036878E+00
         21   -1    0    0  502  501  0.00000000000E+00  0.00000000000E+00  0.75513418768E+02  0.75513418768E+02  0.00000000000E+00 0. -1.
         21   -1    0    0  501  502 -0.00000000000E+00 -0.00000000000E+00 -0.58561004553E+03  0.58561004553E+03  0.00000000000E+00 0. -1.
      99926    2    1    2    0    0  0.00000000000E+00  0.00000000000E+00 -0.51009662677E+03  0.66112346430E+03  0.42057777689E+03 0.  0.
      99925    2    3    3    0    0  0.57473146415E+02  0.39821158134E+02 -0.28321375471E+03  0.39277251325E+03  0.26300442795E+03 0.  0.
         25    1    3    3    0    0 -0.57473146415E+02 -0.39821158134E+02 -0.22688287206E+03  0.26835095105E+03  0.12509000000E+03 0.  0.
         25    1    4    4    0    0  0.54886726998E+02  0.34316012115E+02 -0.10841582265E+03  0.17774037299E+03  0.12509000000E+03 0.  0.
         25    1    4    4    0    0  0.25864194162E+01  0.55051460190E+01 -0.17479793205E+03  0.21503214027E+03  0.12509000000E+03 0.  0.
<mgrwt>
<rscale>  2 0.42057778E+03</rscale>
<asrwt>0</asrwt>
<pdfrwt beam="1">  1       21 0.11104914E-01 0.42057778E+03</pdfrwt>
<pdfrwt beam="2">  1       21 0.86119125E-01 0.42057778E+03</pdfrwt>
<totfact> 0.72919010E+04</totfact>
</mgrwt>
</event>
<event>
 7    0  0.4707675E-002  0.4462213E+03  0.7546771E-02  0.1028855E+00
         21   -1    0    0  502  501  0.00000000000E+00  0.00000000000E+00  0.12086631418E+03  0.12086631418E+03  0.00000000000E+00 0.  1.
         21   -1    0    0  501  502 -0.00000000000E+00 -0.00000000000E+00 -0.41184644402E+03  0.41184644402E+03  0.00000000000E+00 0.  1.
      99926    2    1    2    0    0 -0.35527136788E-14  0.71054273576E-14 -0.29098012984E+03  0.53271275820E+03  0.44622129800E+03 0.  0.
      99925    2    3    3    0    0 -0.29545355301E+02  0.41444853265E+02 -0.29398229740E+03  0.39763083864E+03  0.26285754463E+03 0.  0.
         25    1    3    3    0    0  0.29545355301E+02 -0.41444853265E+02  0.30021675655E+01  0.13508191956E+03  0.12509000000E+03 0.  0.
         25    1    4    4    0    0 -0.11900126072E+02 -0.44204496976E+01 -0.18941156690E+03  0.22734423932E+03  0.12509000000E+03 0.  0.
         25    1    4    4    0    0 -0.17645229228E+02  0.45865302963E+02 -0.10457073050E+03  0.17028659932E+03  0.12509000000E+03 0.  0.
<mgrwt>
<rscale>  2 0.44622130E+03</rscale>
<asrwt>0</asrwt>
<pdfrwt beam="1">  1       21 0.17774459E-01 0.44622130E+03</pdfrwt>
<pdfrwt beam="2">  1       21 0.60565652E-01 0.44622130E+03</pdfrwt>
<totfact> 0.67599715E+04</totfact>
</mgrwt>
</event>
<event>
 7    0  0.4707675E-002  0.4640888E+03  0.7546771E-02  0.1023602E+00
         21   -1    0    0  502  501  0.00000000000E+00  0.00000000000E+00  0.10137335520E+03  0.10137335520E+03  0.00000000000E+00 0. -1.
         21   -1    0    0  501  502 -0.00000000000E+00 -0.00000000000E+00 -0.53115152053E+03  0.53115152053E+03  0.00000000000E+00 0. -1.
      99926    2    1    2    0    0  0.00000000000E+00  0.00000000000E+00 -0.42977816534E+03  0.63252487573E+03  0.46408883526E+03 0.  0.
      99925    2    3    3    0    0  0.33977613710E+02 -0.10133253394E+03 -0.18962803133E+03  0.34141947277E+03  0.26303175750E+03 0.  0.
         25    1    3    3    0    0 -0.33977613710E+02  0.10133253394E+03 -0.24015013401E+03  0.29110540296E+03  0.12509000000E+03 0.  0.
         25    1    4    4    0    0 -0.16520058331E+02 -0.56731303744E+02 -0.12027378277E+03  0.18331569511E+03  0.12509000000E+03 0.  0.
         25    1    4    4    0    0  0.50497672041E+02 -0.44601230200E+02 -0.69354248559E+02  0.15810377766E+03  0.12509000000E+03 0.  0.
<mgrwt>
<rscale>  2 0.46408884E+03</rscale>
<asrwt>0</asrwt>
<pdfrwt beam="1">  1       21 0.14907846E-01 0.46408884E+03</pdfrwt>
<pdfrwt beam="2">  1       21 0.78110520E-01 0.46408884E+03</pdfrwt>
<totfact> 0.52826259E+04</totfact>
</mgrwt>
</event>
<event>
 7    0  0.4707675E-002  0.4593178E+03  0.7546771E-02  0.1024979E+00
         21   -1    0    0  502  501  0.00000000000E+00  0.00000000000E+00  0.17519472302E+03  0.17519472302E+03  0.00000000000E+00 0. -1.
         21   -1    0    0  501  502 -0.00000000000E+00 -0.00000000000E+00 -0.30105482492E+03  0.30105482492E+03  0.00000000000E+00 0. -1.
      99926    2    1    2    0    0  0.00000000000E+00  0.00000000000E+00 -0.12586010190E+03  0.47624954794E+03  0.45931782751E+03 0.  0.
      99925    2    3    3    0    0  0.82917034404E+02  0.82536855330E+02 -0.84185977216E+02  0.29997757669E+03  0.26308116746E+03 0.  0.
         25    1    3    3    0    0 -0.82917034404E+02 -0.82536855330E+02 -0.41674124684E+02  0.17627197126E+03  0.12509000000E+03 0.  0.
         25    1    4    4    0    0  0.19184501445E+02  0.41998539576E+02 -0.42284602806E+01  0.13340656055E+03  0.12509000000E+03 0.  0.
         25    1    4    4    0    0  0.63732532958E+02  0.40538315755E+02 -0.79957516936E+02  0.16657101613E+03  0.12509000000E+03 0.  0.
<mgrwt>
<rscale>  2 0.45931783E+03</rscale>
<asrwt>0</asrwt>
<pdfrwt beam="1">  1       21 0.25763930E-01 0.45931783E+03</pdfrwt>
<pdfrwt beam="2">  1       21 0.44272768E-01 0.45931783E+03</pdfrwt>
<totfact> 0.64727798E+04</totfact>
</mgrwt>
</event>
<event>
 7    0  0.4707675E-002  0.4121472E+03  0.7546771E-02  0.1039653E+00
         21   -1    0    0  502  501  0.00000000000E+00  0.00000000000E+00  0.45680757880E+02  0.45680757880E+02  0.00000000000E+00 0.  1.
         21   -1    0    0  501  502 -0.00000000000E+00 -0.00000000000E+00 -0.92963277801E+03  0.92963277801E+03  0.00000000000E+00 0.  1.
      99926    2    1    2    0    0 -0.35527136788E-14  0.71054273576E-14 -0.88395202013E+03  0.97531353589E+03  0.41214720598E+03 0.  0.
      99925    2    3    3    0    0 -0.10852949471E+02 -0.54507202547E+02 -0.66266009104E+03  0.71510890945E+03  0.26300862052E+03 0.  0.
         25    1    4    4    0    0 -0.41290090350E+02 -0.37626376090E+02 -0.29680405800E+03  0.32689566024E+03  0.12509000000E+03 0.  0.
         25    1    3    3    0    0  0.10852949471E+02  0.54507202547E+02 -0.22129192908E+03  0.26020462644E+03  0.12509000000E+03 0.  0.
         25    1    4    4    0    0  0.30437140879E+02 -0.16880826457E+02 -0.36585603304E+03  0.38821324921E+03  0.12509000000E+03 0.  0.
<mgrwt>
<rscale>  2 0.41214721E+03</rscale>
<asrwt>0</asrwt>
<pdfrwt beam="1">  1       21 0.67177584E-02 0.41214721E+03</pdfrwt>
<pdfrwt beam="2">  1       21 0.13671070E+00 0.41214721E+03</pdfrwt>
<totfact> 0.56947773E+04</totfact>
</mgrwt>
</event>
<event>
 7    0  0.4707675E-002  0.4370046E+03  0.7546771E-02  0.1031670E+00
         21   -1    0    0  502  501  0.00000000000E+00  0.00000000000E+00  0.16880030839E+04  0.16880030839E+04  0.00000000000E+00 0. -1.
         21   -1    0    0  501  502 -0.00000000000E+00 -0.00000000000E+00 -0.28283870133E+02  0.28283870133E+02  0.00000000000E+00 0. -1.
      99926    2    1    2    0    0  0.71054273576E-14  0.00000000000E+00  0.16597192138E+04  0.17162869540E+04  0.43700462244E+03 0.  0.
      99925    2    3    3    0    0 -0.57176617859E+02  0.73131219893E+02  0.11416096668E+04  0.11752672208E+04  0.26336869229E+03 0.  0.
         25    1    4    4    0    0 -0.61735770513E+02  0.55843947298E+02  0.69936902575E+03  0.71532817230E+03  0.12509000000E+03 0.  0.
         25    1    4    4    0    0  0.45591526549E+01  0.17287272595E+02  0.44224064104E+03  0.45993904852E+03  0.12509000000E+03 0.  0.
         25    1    3    3    0    0  0.57176617859E+02 -0.73131219893E+02  0.51810954697E+03  0.54101973320E+03  0.12509000000E+03 0.  0.
<mgrwt>
<rscale>  2 0.43700462E+03</rscale>
<asrwt>0</asrwt>
<pdfrwt beam="1">  1       21 0.24823568E+00 0.43700462E+03</pdfrwt>
<pdfrwt beam="2">  1       21 0.41593938E-02 0.43700462E+03</pdfrwt>
<totfact> 0.21817226E+04</totfact>
</mgrwt>
</event>
<event>
 7    0  0.4707675E-002  0.4509443E+03  0.7546771E-02  0.1027441E+00
         21   -1    0    0  502  501  0.00000000000E+00  0.00000000000E+00  0.18745498151E+03  0.18745498151E+03  0.00000000000E+00 0. -1.
         21   -1    0    0  501  502 -0.00000000000E+00 -0.00000000000E+00 -0.27119946112E+03  0.27119946112E+03  0.00000000000E+00 0. -1.
      99926    2    1    2    0    0  0.00000000000E+00  0.00000000000E+00 -0.83744479602E+02  0.45865444263E+03  0.45094429798E+03 0.  0.
      99925    2    3    3    0    0 -0.10189064993E+03 -0.26020494659E+02 -0.22487064728E+02  0.28413009000E+03  0.26299328751E+03 0.  0.
         25    1    3    3    0    0  0.10189064993E+03  0.26020494659E+02 -0.61257414873E+02  0.17452435263E+03  0.12509000000E+03 0.  0.
         25    1    4    4    0    0 -0.33422859007E+02 -0.86041689904E+01  0.26316017659E+02  0.13240528733E+03  0.12509000000E+03 0.  0.
         25    1    4    4    0    0 -0.68467790920E+02 -0.17416325669E+02 -0.48803082388E+02  0.15172480267E+03  0.12509000000E+03 0.  0.
<mgrwt>
<rscale>  2 0.45094430E+03</rscale>
<asrwt>0</asrwt>
<pdfrwt beam="1">  1       21 0.27566909E-01 0.45094430E+03</pdfrwt>
<pdfrwt beam="2">  1       21 0.39882273E-01 0.45094430E+03</pdfrwt>
<totfact> 0.70530427E+04</totfact>
</mgrwt>
</event>
<event>
 6    0  0.4707675E-002  0.4613036E+03  0.7546771E-02  0.1024404E+00
         21   -1    0    0  502  501  0.00000000000E+00  0.00000000000E+00  0.99164546601E+03  0.99164546601E+03  0.00000000000E+00 0.  1.
         21   -1    0    0  501  502 -0.00000000000E+00 -0.00000000000E+00 -0.53648451102E+02  0.53648451102E+02  0.00000000000E+00 0.  1.
      99926    2    1    2    0    0  0.00000000000E+00  0.00000000000E+00  0.93799701490E+03  0.10452939171E+04  0.46130355860E+03 0.  0.
         25    1    3    3    0    0 -0.10950862325E+02  0.75062798194E+02  0.25182001873E+03  0.29123044997E+03  0.12509000000E+03 0.  0.
         25    1    3    3    0    0 -0.31271802041E+02 -0.11346847452E+01  0.15431708548E+03  0.20109819513E+03  0.12509000000E+03 0.  0.
         25    1    3    3    0    0  0.42222664366E+02 -0.73928113448E+02  0.53185991069E+03  0.55296527201E+03  0.12509000000E+03 0.  0.
<mgrwt>
<rscale>  2 0.46130356E+03</rscale>
<asrwt>0</asrwt>
<pdfrwt beam="1">  1       21 0.14583020E+00 0.46130356E+03</pdfrwt>
<pdfrwt beam="2">  1       21 0.78894787E-02 0.46130356E+03</pdfrwt>
<totfact> 0.35663204E+04</totfact>
</mgrwt>
</event>
<event>
 7    0  0.4707675E-002  0.4469224E+03  0.7546771E-02  0.1028644E+00
         21   -1    0    0  502  501  0.00000000000E+00  0.00000000000E+00  0.12951554048E+03  0.12951554048E+03  0.00000000000E+00 0. -1.
         21   -1    0    0  501  502 -0.00000000000E+00 -0.00000000000E+00 -0.38555153508E+03  0.38555153508E+03  0.00000000000E+00 0. -1.
      99926    2    1    2    0    0  0.00000000000E+00 -0.22204460493E-14 -0.25603599460E+03  0.51506707556E+03  0.44692243376E+03 0.  0.
      99925    2    3    3    0    0  0.98796317655E+02  0.28259328276E+01 -0.12041838328E+03  0.30576264924E+03  0.26309981444E+03 0.  0.
         25    1    4    4    0    0  0.55163746634E+02  0.39845688029E+02 -0.47769694712E+02  0.15020043152E+03  0.12509000000E+03 0.  0.
         25    1    4    4    0    0  0.43632571020E+02 -0.37019755202E+02 -0.72648688563E+02  0.15556221771E+03  0.12509000000E+03 0.  0.
         25    1    3    3    0    0 -0.98796317655E+02 -0.28259328276E+01 -0.13561761132E+03  0.20930442632E+03  0.12509000000E+03 0.  0.
<mgrwt>
<rscale>  2 0.44692243E+03</rscale>
<asrwt>0</asrwt>
<pdfrwt beam="1">  1       21 0.19046403E-01 0.44692243E+03</pdfrwt>
<pdfrwt beam="2">  1       21 0.56698754E-01 0.44692243E+03</pdfrwt>
<totfact> 0.68511007E+04</totfact>
</mgrwt>
</event>
<event>
 7    0  0.4707675E-002  0.4588168E+03  0.7546771E-02  0.1025125E+00
         21   -1    0    0  502  501  0.00000000000E+00  0.00000000000E+00  0.99220045217E+02  0.99220045217E+02  0.00000000000E+00 0. -1.
         21   -1    0    0  501  502 -0.00000000000E+00 -0.00000000000E+00 -0.53041928496E+03  0.53041928496E+03  0.00000000000E+00 0. -1.
      99926    2    1    2    0    0 -0.71054273576E-14 -0.17763568394E-14 -0.43119923975E+03  0.62963933018E+03  0.45881684990E+03 0.  0.
      99925    2    3    3    0    0  0.35492409639E+02  0.11346181842E+02 -0.11858156985E+03  0.29086837125E+03  0.26297219188E+03 0.  0.
         25    1    4    4    0    0  0.53235488287E+02 -0.92768303708E+01 -0.46638254404E+02  0.14402330252E+03  0.12509000000E+03 0.  0.
         25    1    4    4    0    0 -0.17743078648E+02  0.20623012212E+02 -0.71943315445E+02  0.14684506873E+03  0.12509000000E+03 0.  0.
         25    1    3    3    0    0 -0.35492409639E+02 -0.11346181842E+02 -0.31261766990E+03  0.33877095893E+03  0.12509000000E+03 0.  0.
<mgrwt>
<rscale>  2 0.45881685E+03</rscale>
<asrwt>0</asrwt>
<pdfrwt beam="1">  1       21 0.14591183E-01 0.45881685E+03</pdfrwt>
<pdfrwt beam="2">  1       21 0.78002835E-01 0.45881685E+03</pdfrwt>
<totfact> 0.55207596E+04</totfact>
</mgrwt>
</event>
<event>
 7    0  0.4707675E-002  0.4527128E+03  0.7546771E-02  0.1026916E+00
         21   -1    0    0  502  501  0.00000000000E+00  0.00000000000E+00  0.20768882387E+03  0.20768882387E+03  0.00000000000E+00 0.  1.
         21   -1    0    0  501  502 -0.00000000000E+00 -0.00000000000E+00 -0.24670186352E+03  0.24670186352E+03  0.00000000000E+00 0.  1.
      99926    2    1    2    0    0  0.00000000000E+00  0.00000000000E+00 -0.39013039650E+02  0.45439068738E+03  0.45271280026E+03 0.  0.
      99925    2    3    3    0    0 -0.73663150500E+02 -0.72046839876E+02 -0.66116102328E+02  0.29007668620E+03  0.26297554641E+03 0.  0.
         25    1    4    4    0    0 -0.70223824222E+02 -0.17087790301E+02 -0.20073681549E+02  0.14585554106E+03  0.12509000000E+03 0.  0.
         25    1    4    4    0    0 -0.34393262785E+01 -0.54959049575E+02 -0.46042420779E+02  0.14422114514E+03  0.12509000000E+03 0.  0.
         25    1    3    3    0    0  0.73663150500E+02  0.72046839876E+02  0.27103062679E+02  0.16431400118E+03  0.12509000000E+03 0.  0.
<mgrwt>
<rscale>  2 0.45271280E+03</rscale>
<asrwt>0</asrwt>
<pdfrwt beam="1">  1       21 0.30542474E-01 0.45271280E+03</pdfrwt>
<pdfrwt beam="2">  1       21 0.36279686E-01 0.45271280E+03</pdfrwt>
<totfact> 0.69856599E+04</totfact>
</mgrwt>
</event>
<event>
 7    0  0.4707675E-002  0.4392287E+03  0.7546771E-02  0.1030984E+00
         21   -1    0    0  502  501  0.00000000000E+00  0.00000000000E+00  0.49070785658E+03  0.49070785658E+03  0.00000000000E+00 0.  1.
         21   -1    0    0  501  502 -0.00000000000E+00 -0.00000000000E+00 -0.98287515370E+02  0.98287515370E+02  0.00000000000E+00 0.  1.
      99926    2    1    2    0    0  0.00000000000E+00 -0.17763568394E-14  0.39242034121E+03  0.58899537195E+03  0.43922866935E+03 0.  0.
      99925    2    3    3    0    0  0.26186311480E+02  0.86190839404E+01  0.37621204036E+03  0.45988213237E+03  0.26305144905E+03 0.  0.
         25    1    4    4    0    0  0.26820013731E+02 -0.31413960306E+02  0.16460951576E+03  0.21083156979E+03  0.12509000000E+03 0.  0.
         25    1    3    3    0    0 -0.26186311480E+02 -0.86190839404E+01  0.16208300849E+02  0.12911323957E+03  0.12509000000E+03 0.  0.
         25    1    4    4    0    0 -0.63370225118E+00  0.40033044246E+02  0.21160252459E+03  0.24905056259E+03  0.12509000000E+03 0.  0.
<mgrwt>
<rscale>  2 0.43922867E+03</rscale>
<asrwt>0</asrwt>
<pdfrwt beam="1">  1       21 0.72162919E-01 0.43922867E+03</pdfrwt>
<pdfrwt beam="2">  1       21 0.14454047E-01 0.43922867E+03</pdfrwt>
<totfact> 0.67374045E+04</totfact>
</mgrwt>
</event>
<event>
 7    0  0.4707675E-002  0.4597548E+03  0.7546771E-02  0.1024852E+00
         21   -1    0    0  502  501  0.00000000000E+00  0.00000000000E+00  0.13889191122E+03  0.13889191122E+03  0.00000000000E+00 0. -1.
         21   -1    0    0  501  502 -0.00000000000E+00 -0.00000000000E+00 -0.38046584912E+03  0.38046584912E+03  0.00000000000E+00 0. -1.
      99926    2    1    2    0    0  0.00000000000E+00  0.00000000000E+00 -0.24157393790E+03  0.51935776034E+03  0.45975484310E+03 0.  0.
      99925    2    3    3    0    0  0.45322846029E+02  0.38060795155E+02 -0.37489235055E+02  0.27277945932E+03  0.26362929689E+03 0.  0.
         25    1    3    3    0    0 -0.45322846029E+02 -0.38060795155E+02 -0.20408470285E+03  0.24657830103E+03  0.12509000000E+03 0.  0.
         25    1    4    4    0    0  0.49515715321E+02  0.53166043622E+01 -0.48099432739E+02  0.14297250042E+03  0.12509000000E+03 0.  0.
         25    1    4    4    0    0 -0.41928692923E+01  0.32744190793E+02  0.10610197684E+02  0.12980695890E+03  0.12509000000E+03 0.  0.
<mgrwt>
<rscale>  2 0.45975484E+03</rscale>
<asrwt>0</asrwt>
<pdfrwt beam="1">  1       21 0.20425281E-01 0.45975484E+03</pdfrwt>
<pdfrwt beam="2">  1       21 0.55950859E-01 0.45975484E+03</pdfrwt>
<totfact> 0.61574940E+04</totfact>
</mgrwt>
</event>
<event>
 7    0  0.4707675E-002  0.4572355E+03  0.7546771E-02  0.1025586E+00
         21   -1    0    0  502  501  0.00000000000E+00  0.00000000000E+00  0.60813135669E+02  0.60813135669E+02  0.00000000000E+00 0. -1.
         21   -1    0    0  501  502 -0.00000000000E+00 -0.00000000000E+00 -0.85945381113E+03  0.85945381113E+03  0.00000000000E+00 0. -1.
      99926    2    1    2    0    0  0.00000000000E+00 -0.35527136788E-14 -0.79864067546E+03  0.92026694680E+03  0.45723552451E+03 0.  0.
      99925    2    3    3    0    0  0.11117428821E+03  0.27018248849E+02 -0.47420126484E+03  0.55420937292E+03  0.26304273669E+03 0.  0.
         25    1    4    4    0    0  0.34065788429E+02  0.43375160143E+02 -0.26283430248E+03  0.29626214932E+03  0.12509000000E+03 0.  0.
         25    1    3    3    0    0 -0.11117428821E+03 -0.27018248849E+02 -0.32443941063E+03  0.36605757389E+03  0.12509000000E+03 0.  0.
         25    1    4    4    0    0  0.77108499785E+02 -0.16356911294E+02 -0.21136696235E+03  0.25794722359E+03  0.12509000000E+03 0.  0.
<mgrwt>
<rscale>  2 0.45723552E+03</rscale>
<asrwt>0</asrwt>
<pdfrwt beam="1">  1       21 0.89431080E-02 0.45723552E+03</pdfrwt>
<pdfrwt beam="2">  1       21 0.12639027E+00 0.45723552E+03</pdfrwt>
<totfact> 0.41635824E+04</totfact>
</mgrwt>
</event>
<event>
 7    0  0.4707675E-002  0.4521386E+03  0.7546771E-02  0.1027086E+00
         21   -1    0    0  502  501  0.00000000000E+00  0.00000000000E+00  0.29679058343E+03  0.29679058343E+03  0.00000000000E+00 0.  1.
         21   -1    0    0  501  502 -0.00000000000E+00 -0.00000000000E+00 -0.17219998996E+03  0.17219998996E+03  0.00000000000E+00 0.  1.
      99926    2    1    2    0    0  0.00000000000E+00  0.00000000000E+00  0.12459059347E+03  0.46899057339E+03  0.45213863134E+03 0.  0.
      99925    2    3    3    0    0  0.66944451087E+02 -0.31466812628E+02  0.16373807045E+03  0.31848558051E+03  0.26296613746E+03 0.  0.
         25    1    3    3    0    0 -0.66944451087E+02  0.31466812628E+02 -0.39147476980E+02  0.15050499288E+03  0.12509000000E+03 0.  0.
         25    1    4    4    0    0  0.56345839260E+01 -0.45335811667E+02  0.78852036606E+02  0.15476509985E+03  0.12509000000E+03 0.  0.
         25    1    4    4    0    0  0.61309867161E+02  0.13868999038E+02  0.84886033845E+02  0.16372048066E+03  0.12509000000E+03 0.  0.
<mgrwt>
<rscale>  2 0.45213863E+03</rscale>
<asrwt>0</asrwt>
<pdfrwt beam="1">  1       21 0.43645674E-01 0.45213863E+03</pdfrwt>
<pdfrwt beam="2">  1       21 0.25323528E-01 0.45213863E+03</pdfrwt>
<totfact> 0.69065407E+04</totfact>
</mgrwt>
</event>
<event>
 7    0  0.4707675E-002  0.4561683E+03  0.7546771E-02  0.1025898E+00
         21   -1    0    0  502  501  0.00000000000E+00  0.00000000000E+00  0.15715339633E+03  0.15715339633E+03  0.00000000000E+00 0.  1.
         21   -1    0    0  501  502 -0.00000000000E+00 -0.00000000000E+00 -0.33102932533E+03  0.33102932533E+03  0.00000000000E+00 0.  1.
      99926    2    1    2    0    0  0.14210854715E-13  0.00000000000E+00 -0.17387592900E+03  0.48818272165E+03  0.45616831437E+03 0.  0.
      99925    2    3    3    0    0 -0.10696114152E+03  0.25112804354E+02 -0.75494772613E+02  0.29479787537E+03  0.26293533025E+03 0.  0.
         25    1    3    3    0    0  0.10696114152E+03 -0.25112804354E+02 -0.98381156386E+02  0.19338484628E+03  0.12509000000E+03 0.  0.
         25    1    4    4    0    0 -0.54968636981E+02 -0.25709243090E+02 -0.50791548309E+02  0.14801961259E+03  0.12509000000E+03 0.  0.
         25    1    4    4    0    0 -0.51992504541E+02  0.50822047444E+02 -0.24703224304E+02  0.14677826278E+03  0.12509000000E+03 0.  0.
<mgrwt>
<rscale>  2 0.45616831E+03</rscale>
<asrwt>0</asrwt>
<pdfrwt beam="1">  1       21 0.23110794E-01 0.45616831E+03</pdfrwt>
<pdfrwt beam="2">  1       21 0.48680783E-01 0.45616831E+03</pdfrwt>
<totfact> 0.65499507E+04</totfact>
</mgrwt>
</event>
<event>
 7    0  0.4707675E-002  0.4500222E+03  0.7546771E-02  0.1027715E+00
         21   -1    0    0  502  501  0.00000000000E+00  0.00000000000E+00  0.77096004781E+03  0.77096004781E+03  0.00000000000E+00 0.  1.
         21   -1    0    0  501  502 -0.00000000000E+00 -0.00000000000E+00 -0.65671357477E+02  0.65671357477E+02  0.00000000000E+00 0.  1.
      99926    2    1    2    0    0 -0.71054273576E-14  0.00000000000E+00  0.70528869033E+03  0.83663140528E+03  0.45002219012E+03 0.  0.
      99925    2    3    3    0    0 -0.56356951463E+02 -0.67213793442E+02  0.32732966987E+03  0.42896201809E+03  0.26300171136E+03 0.  0.
         25    1    4    4    0    0  0.79986952071E+01 -0.27153666176E+02  0.12320997458E+03  0.17784686291E+03  0.12509000000E+03 0.  0.
         25    1    4    4    0    0 -0.64355646670E+02 -0.40060127266E+02  0.20411969529E+03  0.25111515518E+03  0.12509000000E+03 0.  0.
         25    1    3    3    0    0  0.56356951463E+02  0.67213793442E+02  0.37795902046E+03  0.40766938719E+03  0.12509000000E+03 0.  0.
<mgrwt>
<rscale>  2 0.45002219E+03</rscale>
<asrwt>0</asrwt>
<pdfrwt beam="1">  1       21 0.11337647E+00 0.45002219E+03</pdfrwt>
<pdfrwt beam="2">  1       21 0.96575531E-02 0.45002219E+03</pdfrwt>
<totfact> 0.47886380E+04</totfact>
</mgrwt>
</event>
<event>
 7    0  0.4707675E-002  0.4589620E+03  0.7546771E-02  0.1025083E+00
         21   -1    0    0  502  501  0.00000000000E+00  0.00000000000E+00  0.13682320737E+03  0.13682320737E+03  0.00000000000E+00 0. -1.
         21   -1    0    0  501  502 -0.00000000000E+00 -0.00000000000E+00 -0.38488746507E+03  0.38488746507E+03  0.00000000000E+00 0. -1.
      99926    2    1    2    0    0 -0.17763568394E-14  0.00000000000E+00 -0.24806425770E+03  0.52171067244E+03  0.45896203523E+03 0.  0.
      99925    2    3    3    0    0  0.11469600055E+02 -0.10673462004E+03 -0.10317861886E+03  0.30224954312E+03  0.26303065997E+03 0.  0.
         25    1    4    4    0    0  0.35588735569E+02 -0.51293712453E+02 -0.22541805831E+02  0.14160947760E+03  0.12509000000E+03 0.  0.
         25    1    3    3    0    0 -0.11469600055E+02  0.10673462004E+03 -0.14488563884E+03  0.21946112932E+03  0.12509000000E+03 0.  0.
         25    1    4    4    0    0 -0.24119135515E+02 -0.55440907590E+02 -0.80636813031E+02  0.16064006551E+03  0.12509000000E+03 0.  0.
<mgrwt>
<rscale>  2 0.45896204E+03</rscale>
<asrwt>0</asrwt>
<pdfrwt beam="1">  1       21 0.20121060E-01 0.45896204E+03</pdfrwt>
<pdfrwt beam="2">  1       21 0.56601097E-01 0.45896204E+03</pdfrwt>
<totfact> 0.61805072E+04</totfact>
</mgrwt>
</event>
<event>
 7    0  0.4707675E-002  0.4574051E+03  0.7546771E-02  0.1025537E+00
         21   -1    0    0  502  501  0.00000000000E+00  0.00000000000E+00  0.11461531408E+04  0.11461531408E+04  0.00000000000E+00 0. -1.
         21   -1    0    0  501  502 -0.00000000000E+00 -0.00000000000E+00 -0.45635132892E+02  0.45635132892E+02  0.00000000000E+00 0. -1.
      99926    2    1    2    0    0  0.00000000000E+00  0.00000000000E+00  0.11005180079E+04  0.11917882737E+04  0.45740507603E+03 0.  0.
      99925    2    3    3    0    0 -0.62205436096E+02  0.97063368492E+02  0.68620262542E+03  0.74390931901E+03  0.26312775982E+03 0.  0.
         25    1    4    4    0    0 -0.13608988695E+02  0.77723018196E+02  0.29742107864E+03  0.33216393280E+03  0.12509000000E+03 0.  0.
         25    1    4    4    0    0 -0.48596447401E+02  0.19340350296E+02  0.38878154678E+03  0.41174538621E+03  0.12509000000E+03 0.  0.
         25    1    3    3    0    0  0.62205436096E+02 -0.97063368492E+02  0.41431538248E+03  0.44787895467E+03  0.12509000000E+03 0.  0.
<mgrwt>
<rscale>  2 0.45740508E+03</rscale>
<asrwt>0</asrwt>
<pdfrwt beam="1">  1       21 0.16855191E+00 0.45740508E+03</pdfrwt>
<pdfrwt beam="2">  1       21 0.67110497E-02 0.45740508E+03</pdfrwt>
<totfact> 0.31816955E+04</totfact>
</mgrwt>
</event>
<event>
 7    0  0.4707675E-002  0.4520145E+03  0.7546771E-02  0.1027123E+00
         21   -1    0    0  502  501  0.00000000000E+00  0.00000000000E+00  0.53659846673E+03  0.53659846673E+03  0.00000000000E+00 0.  1.
         21   -1    0    0  501  502 -0.00000000000E+00 -0.00000000000E+00 -0.95190856298E+02  0.95190856298E+02  0.00000000000E+00 0.  1.
      99926    2    1    2    0    0  0.35527136788E-14  0.00000000000E+00  0.44140761043E+03  0.63178932302E+03  0.45201445789E+03 0.  0.
      99925    2    3    3    0    0 -0.19497425422E+02 -0.68162621868E+02  0.16016928145E+03  0.31592733037E+03  0.26292505916E+03 0.  0.
         25    1    4    4    0    0 -0.14908734443E+01 -0.65043208490E+02  0.11408434747E+03  0.18137140930E+03  0.12509000000E+03 0.  0.
         25    1    4    4    0    0 -0.18006551978E+02 -0.31194133784E+01  0.46084933978E+02  0.13455592107E+03  0.12509000000E+03 0.  0.
         25    1    3    3    0    0  0.19497425422E+02  0.68162621868E+02  0.28123832898E+03  0.31586199266E+03  0.12509000000E+03 0.  0.
<mgrwt>
<rscale>  2 0.45201446E+03</rscale>
<asrwt>0</asrwt>
<pdfrwt beam="1">  1       21 0.78911538E-01 0.45201446E+03</pdfrwt>
<pdfrwt beam="2">  1       21 0.13998656E-01 0.45201446E+03</pdfrwt>
<totfact> 0.58120618E+04</totfact>
</mgrwt>
</event>
<event>
 7    0  0.4707675E-002  0.4483996E+03  0.7546771E-02  0.1028200E+00
         21   -1    0    0  502  501  0.00000000000E+00  0.00000000000E+00  0.36647684954E+03  0.36647684954E+03  0.00000000000E+00 0. -1.
         21   -1    0    0  501  502 -0.00000000000E+00 -0.00000000000E+00 -0.13715889890E+03  0.13715889890E+03  0.00000000000E+00 0. -1.
      99926    2    1    2    0    0  0.00000000000E+00 -0.35527136788E-14  0.22931795064E+03  0.50363574845E+03  0.44839964834E+03 0.  0.
      99925    2    3    3    0    0 -0.97134502522E+02 -0.30708690461E+02  0.18166548246E+03  0.33542040707E+03  0.26291893563E+03 0.  0.
         25    1    3    3    0    0  0.97134502522E+02  0.30708690461E+02  0.47652468178E+02  0.16821534137E+03  0.12509000000E+03 0.  0.
         25    1    4    4    0    0 -0.87415172167E+02 -0.32894698034E+02  0.10919244984E+03  0.19050977058E+03  0.12509000000E+03 0.  0.
         25    1    4    4    0    0 -0.97193303551E+01  0.21860075728E+01  0.72473032625E+02  0.14491063650E+03  0.12509000000E+03 0.  0.
<mgrwt>
<rscale>  2 0.44839965E+03</rscale>
<asrwt>0</asrwt>
<pdfrwt beam="1">  1       21 0.53893654E-01 0.44839965E+03</pdfrwt>
<pdfrwt beam="2">  1       21 0.20170426E-01 0.44839965E+03</pdfrwt>
<totfact> 0.68536569E+04</totfact>
</mgrwt>
</event>
<event>
 7    0  0.4707675E-002  0.4610729E+03  0.7546771E-02  0.1024471E+00
         21   -1    0    0  502  501  0.00000000000E+00  0.00000000000E+00  0.64679861499E+02  0.64679861499E+02  0.00000000000E+00 0.  1.
         21   -1    0    0  501  502 -0.00000000000E+00 -0.00000000000E+00 -0.82169395376E+03  0.82169395376E+03  0.00000000000E+00 0.  1.
      99926    2    1    2    0    0  0.00000000000E+00  0.14210854715E-13 -0.75701409226E+03  0.88637381526E+03  0.46107288415E+03 0.  0.
      99925    2    3    3    0    0 -0.79753218401E+02  0.85446148010E+02 -0.51379333250E+03  0.58894236747E+03  0.26307395087E+03 0.  0.
         25    1    4    4    0    0 -0.12986554484E+02  0.26538108722E+02 -0.29359598707E+03  0.32049810223E+03  0.12509000000E+03 0.  0.
         25    1    4    4    0    0 -0.66766663918E+02  0.58908039289E+02 -0.22019734543E+03  0.26844426524E+03  0.12509000000E+03 0.  0.
         25    1    3    3    0    0  0.79753218401E+02 -0.85446148010E+02 -0.24322075976E+03  0.29743144779E+03  0.12509000000E+03 0.  0.
<mgrwt>
<rscale>  2 0.46107288E+03</rscale>
<asrwt>0</asrwt>
<pdfrwt beam="1">  1       21 0.95117450E-02 0.46107288E+03</pdfrwt>
<pdfrwt beam="2">  1       21 0.12083734E+00 0.46107288E+03</pdfrwt>
<totfact> 0.41804243E+04</totfact>
</mgrwt>
</event>
<event>
 7    0  0.4707675E-002  0.4521626E+03  0.7546771E-02  0.1027079E+00
         21   -1    0    0  502  501  0.00000000000E+00  0.00000000000E+00  0.51563501974E+03  0.51563501974E+03  0.00000000000E+00 0. -1.
         21   -1    0    0  501  502 -0.00000000000E+00 -0.00000000000E+00 -0.99125840741E+02  0.99125840741E+02  0.00000000000E+00 0. -1.
      99926    2    1    2    0    0  0.00000000000E+00  0.14210854715E-13  0.41650917899E+03  0.61476086048E+03  0.45216260282E+03 0.  0.
      99925    2    3    3    0    0 -0.49607223491E+02  0.98509268353E+02  0.25110576641E+03  0.37987631529E+03  0.26284397733E+03 0.  0.
         25    1    4    4    0    0 -0.15286771264E+02  0.60997485897E+02  0.77777237450E+02  0.16015987458E+03  0.12509000000E+03 0.  0.
         25    1    3    3    0    0  0.49607223491E+02 -0.98509268353E+02  0.16540341258E+03  0.23488454519E+03  0.12509000000E+03 0.  0.
         25    1    4    4    0    0 -0.34320452227E+02  0.37511782456E+02  0.17332852896E+03  0.21971644070E+03  0.12509000000E+03 0.  0.
<mgrwt>
<rscale>  2 0.45216260E+03</rscale>
<asrwt>0</asrwt>
<pdfrwt beam="1">  1       21 0.75828678E-01 0.45216260E+03</pdfrwt>
<pdfrwt beam="2">  1       21 0.14577330E-01 0.45216260E+03</pdfrwt>
<totfact> 0.59091863E+04</totfact>
</mgrwt>
</event>
<event>
 7    0  0.4707675E-002  0.4479607E+03  0.7546771E-02  0.1028332E+00
         21   -1    0    0  502  501  0.00000000000E+00  0.00000000000E+00  0.60318448289E+03  0.60318448289E+03  0.00000000000E+00 0.  1.
         21   -1    0    0  501  502 -0.00000000000E+00 -0.00000000000E+00 -0.83170573299E+02  0.83170573299E+02  0.00000000000E+00 0.  1.
      99926    2    1    2    0    0  0.35527136788E-14  0.00000000000E+00  0.52001390959E+03  0.68635505619E+03  0.44796070920E+03 0.  0.
      99925    2    3    3    0    0  0.31252373217E+02  0.24181131694E+02  0.48069139817E+03  0.54940540863E+03  0.26309816571E+03 0.  0.
         25    1    3    3    0    0 -0.31252373217E+02 -0.24181131694E+02  0.39322511423E+02  0.13694964756E+03  0.12509000000E+03 0.  0.
         25    1    4    4    0    0  0.39530433342E+02 -0.18024353707E+02  0.26812822773E+03  0.29904479112E+03  0.12509000000E+03 0.  0.
         25    1    4    4    0    0 -0.82780601256E+01  0.42205485401E+02  0.21256317044E+03  0.25036061752E+03  0.12509000000E+03 0.  0.
<mgrwt>
<rscale>  2 0.44796071E+03</rscale>
<asrwt>0</asrwt>
<pdfrwt beam="1">  1       21 0.88703598E-01 0.44796071E+03</pdfrwt>
<pdfrwt beam="2">  1       21 0.12230967E-01 0.44796071E+03</pdfrwt>
<totfact> 0.56729296E+04</totfact>
</mgrwt>
</event>
<event>
 7    0  0.4707675E-002  0.4521914E+03  0.7546771E-02  0.1027071E+00
         21   -1    0    0  502  501  0.00000000000E+00  0.00000000000E+00  0.74911706592E+02  0.74911706592E+02  0.00000000000E+00 0.  1.
         21   -1    0    0  501  502 -0.00000000000E+00 -0.00000000000E+00 -0.68239361918E+03  0.68239361918E+03  0.00000000000E+00 0.  1.
      99926    2    1    2    0    0  0.00000000000E+00  0.00000000000E+00 -0.60748191259E+03  0.75730532577E+03  0.45219142221E+03 0.  0.
      99925    2    3    3    0    0 -0.22680366088E+02  0.30622518730E+02 -0.20967068367E+03  0.33855310833E+03  0.26306705212E+03 0.  0.
         25    1    4    4    0    0 -0.49354354855E+02  0.15143212177E+02 -0.88536656309E+02  0.16171399701E+03  0.12509000000E+03 0.  0.
         25    1    4    4    0    0  0.26673988767E+02  0.15479306553E+02 -0.12113402736E+03  0.17683911132E+03  0.12509000000E+03 0.  0.
         25    1    3    3    0    0  0.22680366088E+02 -0.30622518730E+02 -0.39781122891E+03  0.41875221744E+03  0.12509000000E+03 0.  0.
<mgrwt>
<rscale>  2 0.45219142E+03</rscale>
<asrwt>0</asrwt>
<pdfrwt beam="1">  1       21 0.11016427E-01 0.45219142E+03</pdfrwt>
<pdfrwt beam="2">  1       21 0.10035201E+00 0.45219142E+03</pdfrwt>
<totfact> 0.51014281E+04</totfact>
</mgrwt>
</event>
<event>
 7    0  0.4707675E-002  0.4502730E+03  0.7546771E-02  0.1027641E+00
         21   -1    0    0  502  501  0.00000000000E+00  0.00000000000E+00  0.16529513604E+04  0.16529513604E+04  0.00000000000E+00 0.  1.
         21   -1    0    0  501  502 -0.00000000000E+00 -0.00000000000E+00 -0.30664207652E+02  0.30664207652E+02  0.00000000000E+00 0.  1.
      99926    2    1    2    0    0  0.71054273576E-14  0.00000000000E+00  0.16222871528E+04  0.16836155681E+04  0.45027300055E+03 0.  0.
      99925    2    3    3    0    0 -0.40509038258E+02  0.56409814550E+02  0.13380226551E+04  0.13653753096E+04  0.26291074766E+03 0.  0.
         25    1    3    3    0    0  0.40509038258E+02 -0.56409814550E+02  0.28426449767E+03  0.31824025844E+03  0.12509000000E+03 0.  0.
         25    1    4    4    0    0 -0.36716572219E+02  0.54287680220E+02  0.84461448220E+03  0.85633894606E+03  0.12509000000E+03 0.  0.
         25    1    4    4    0    0 -0.37924660389E+01  0.21221343297E+01  0.49340817289E+03  0.50903636356E+03  0.12509000000E+03 0.  0.
<mgrwt>
<rscale>  2 0.45027300E+03</rscale>
<asrwt>0</asrwt>
<pdfrwt beam="1">  1       21 0.24308102E+00 0.45027300E+03</pdfrwt>
<pdfrwt beam="2">  1       21 0.45094434E-02 0.45027300E+03</pdfrwt>
<totfact> 0.20341021E+04</totfact>
</mgrwt>
</event>
<event>
 7    0  0.4707675E-002  0.4579179E+03  0.7546771E-02  0.1025387E+00
         21   -1    0    0  502  501  0.00000000000E+00  0.00000000000E+00  0.63764807384E+02  0.63764807384E+02  0.00000000000E+00 0.  1.
         21   -1    0    0  501  502 -0.00000000000E+00 -0.00000000000E+00 -0.82211805621E+03  0.82211805621E+03  0.00000000000E+00 0.  1.
      99926    2    1    2    0    0  0.00000000000E+00  0.00000000000E+00 -0.75835324883E+03  0.88588286360E+03  0.45791789439E+03 0.  0.
      99925    2    3    3    0    0 -0.67337221487E+02 -0.68299678052E+02 -0.60268079453E+03  0.66434151633E+03  0.26253830732E+03 0.  0.
         25    1    3    3    0    0  0.67337221487E+02  0.68299678052E+02 -0.15567245430E+03  0.22154134726E+03  0.12509000000E+03 0.  0.
         25    1    4    4    0    0 -0.47131022856E+02 -0.28943061675E+02 -0.21730766483E+03  0.25676674907E+03  0.12509000000E+03 0.  0.
         25    1    4    4    0    0 -0.20206198631E+02 -0.39356616377E+02 -0.38537312970E+03  0.40757476726E+03  0.12509000000E+03 0.  0.
<mgrwt>
<rscale>  2 0.45791789E+03</rscale>
<asrwt>0</asrwt>
<pdfrwt beam="1">  1       21 0.93771787E-02 0.45791789E+03</pdfrwt>
<pdfrwt beam="2">  1       21 0.12089970E+00 0.45791789E+03</pdfrwt>
<totfact> 0.42861869E+04</totfact>
</mgrwt>
</event>
<event>
 7    0  0.4707675E-002  0.4515202E+03  0.7546771E-02  0.1027270E+00
         21   -1    0    0  502  501  0.00000000000E+00  0.00000000000E+00  0.35957416543E+02  0.35957416543E+02  0.00000000000E+00 0.  1.
         21   -1    0    0  501  502 -0.00000000000E+00 -0.00000000000E+00 -0.14174442608E+04  0.14174442608E+04  0.00000000000E+00 0.  1.
      99926    2    1    2    0    0 -0.14210854715E-13  0.00000000000E+00 -0.13814868443E+04  0.14534016773E+04  0.45152024855E+03 0.  0.
      99925    2    3    3    0    0  0.81129048599E+02 -0.63248345733E+02 -0.74771229232E+03  0.79926104526E+03  0.26298720618E+03 0.  0.
         25    1    4    4    0    0  0.16512982148E+02 -0.25414583731E+02 -0.44553260648E+03  0.46375143254E+03  0.12509000000E+03 0.  0.
         25    1    4    4    0    0  0.64616066451E+02 -0.37833762002E+02 -0.30217968584E+03  0.33550961272E+03  0.12509000000E+03 0.  0.
         25    1    3    3    0    0 -0.81129048599E+02  0.63248345733E+02 -0.63377455194E+03  0.65414063209E+03  0.12509000000E+03 0.  0.
<mgrwt>
<rscale>  2 0.45152025E+03</rscale>
<asrwt>0</asrwt>
<pdfrwt beam="1">  1       21 0.52878550E-02 0.45152025E+03</pdfrwt>
<pdfrwt beam="2">  1       21 0.20844770E+00 0.45152025E+03</pdfrwt>
<totfact> 0.25628920E+04</totfact>
</mgrwt>
</event>
<event>
 7    0  0.4707675E-002  0.4540752E+03  0.7546771E-02  0.1026514E+00
         21   -1    0    0  502  501  0.00000000000E+00  0.00000000000E+00  0.10562315381E+03  0.10562315381E+03  0.00000000000E+00 0.  1.
         21   -1    0    0  501  502 -0.00000000000E+00 -0.00000000000E+00 -0.48801872513E+03  0.48801872513E+03  0.00000000000E+00 0.  1.
      99926    2    1    2    0    0  0.00000000000E+00 -0.35527136788E-14 -0.38239557132E+03  0.59364187894E+03  0.45407522226E+03 0.  0.
      99925    2    3    3    0    0  0.38452836260E+02 -0.23414848172E+02 -0.37528779750E+03  0.46050696887E+03  0.26305676516E+03 0.  0.
         25    1    4    4    0    0  0.35616540349E+02 -0.34198349032E+02 -0.24540457192E+03  0.27983741180E+03  0.12509000000E+03 0.  0.
         25    1    3    3    0    0 -0.38452836260E+02  0.23414848172E+02 -0.71077738208E+01  0.13313491007E+03  0.12509000000E+03 0.  0.
         25    1    4    4    0    0  0.28362959110E+01  0.10783500860E+02 -0.12988322558E+03  0.18066955707E+03  0.12509000000E+03 0.  0.
<mgrwt>
<rscale>  2 0.45407522E+03</rscale>
<asrwt>0</asrwt>
<pdfrwt beam="1">  1       21 0.15532817E-01 0.45407522E+03</pdfrwt>
<pdfrwt beam="2">  1       21 0.71767458E-01 0.45407522E+03</pdfrwt>
<totfact> 0.59505026E+04</totfact>
</mgrwt>
</event>
<event>
 7    0  0.4707675E-002  0.4521211E+03  0.7546771E-02  0.1027091E+00
         21   -1    0    0  502  501  0.00000000000E+00  0.00000000000E+00  0.40039030186E+02  0.40039030186E+02  0.00000000000E+00 0. -1.
         21   -1    0    0  501  502 -0.00000000000E+00 -0.00000000000E+00 -0.12763391387E+04  0.12763391387E+04  0.00000000000E+00 0. -1.
      99926    2    1    2    0    0  0.14210854715E-13  0.00000000000E+00 -0.12363001085E+04  0.13163781689E+04  0.45212113997E+03 0.  0.
      99925    2    3    3    0    0 -0.73073689447E+02 -0.42897991186E+02 -0.57256136950E+03  0.63566044214E+03  0.26278826862E+03 0.  0.
         25    1    4    4    0    0 -0.45809740603E+02 -0.55854111738E+02 -0.25594972451E+03  0.29389791375E+03  0.12509000000E+03 0.  0.
         25    1    3    3    0    0  0.73073689447E+02  0.42897991186E+02 -0.66373873904E+03  0.68071772677E+03  0.12509000000E+03 0.  0.
         25    1    4    4    0    0 -0.27263948844E+02  0.12956120552E+02 -0.31661164499E+03  0.34176252839E+03  0.12509000000E+03 0.  0.
<mgrwt>
<rscale>  2 0.45212114E+03</rscale>
<asrwt>0</asrwt>
<pdfrwt beam="1">  1       21 0.58880936E-02 0.45212114E+03</pdfrwt>
<pdfrwt beam="2">  1       21 0.18769690E+00 0.45212114E+03</pdfrwt>
<totfact> 0.29293034E+04</totfact>
</mgrwt>
</event>
<event>
 7    0  0.4707675E-002  0.4726560E+03  0.7546771E-02  0.1021173E+00
         21   -1    0    0  502  501  0.00000000000E+00  0.00000000000E+00  0.25910417817E+03  0.25910417817E+03  0.00000000000E+00 0. -1.
         21   -1    0    0  501  502 -0.00000000000E+00 -0.00000000000E+00 -0.21555391152E+03  0.21555391152E+03  0.00000000000E+00 0. -1.
      99926    2    1    2    0    0  0.00000000000E+00  0.00000000000E+00  0.43550266642E+02  0.47465808969E+03  0.47265598101E+03 0.  0.
      99925    2    3    3    0    0  0.23280692743E+02  0.41143017237E+02 -0.93684911749E+02  0.28304457031E+03  0.26287378639E+03 0.  0.
         25    1    3    3    0    0 -0.23280692743E+02 -0.41143017237E+02  0.13723517839E+03  0.19161351938E+03  0.12509000000E+03 0.  0.
         25    1    4    4    0    0 -0.21132009429E+02  0.42088055265E+02 -0.57132758002E+02  0.14536033281E+03  0.12509000000E+03 0.  0.
         25    1    4    4    0    0  0.44412702172E+02 -0.94503802794E+00 -0.36552153747E+02  0.13768423750E+03  0.12509000000E+03 0.  0.
<mgrwt>
<rscale>  2 0.47265598E+03</rscale>
<asrwt>0</asrwt>
<pdfrwt beam="1">  1       21 0.38103556E-01 0.47265598E+03</pdfrwt>
<pdfrwt beam="2">  1       21 0.31699105E-01 0.47265598E+03</pdfrwt>
<totfact> 0.58450748E+04</totfact>
</mgrwt>
</event>
<event>
 7    0  0.4707675E-002  0.4526623E+03  0.7546771E-02  0.1026931E+00
         21   -1    0    0  502  501  0.00000000000E+00  0.00000000000E+00  0.16786250191E+03  0.16786250191E+03  0.00000000000E+00 0. -1.
         21   -1    0    0  501  502 -0.00000000000E+00 -0.00000000000E+00 -0.30516522211E+03  0.30516522211E+03  0.00000000000E+00 0. -1.
      99926    2    1    2    0    0  0.35527136788E-14  0.00000000000E+00 -0.13730272020E+03  0.47302772402E+03  0.45266233632E+03 0.  0.
      99925    2    3    3    0    0 -0.29421641100E+02 -0.89102052880E+02 -0.14841939131E+03  0.31626070814E+03  0.26303556984E+03 0.  0.
         25    1    4    4    0    0 -0.92092250470E+01 -0.69689666540E+02 -0.11472965089E+03  0.18371679385E+03  0.12509000000E+03 0.  0.
         25    1    3    3    0    0  0.29421641100E+02  0.89102052880E+02  0.11116671111E+02  0.15676701588E+03  0.12509000000E+03 0.  0.
         25    1    4    4    0    0 -0.20212416053E+02 -0.19412386340E+02 -0.33689740420E+02  0.13254391429E+03  0.12509000000E+03 0.  0.
<mgrwt>
<rscale>  2 0.45266234E+03</rscale>
<asrwt>0</asrwt>
<pdfrwt beam="1">  1       21 0.24685662E-01 0.45266234E+03</pdfrwt>
<pdfrwt beam="2">  1       21 0.44877238E-01 0.45266234E+03</pdfrwt>
<totfact> 0.68472682E+04</totfact>
</mgrwt>
</event>
<event>
 7    0  0.4707675E-002  0.4607857E+03  0.7546771E-02  0.1024554E+00
         21   -1    0    0  502  501  0.00000000000E+00  0.00000000000E+00  0.20772166668E+03  0.20772166668E+03  0.00000000000E+00 0.  1.
         21   -1    0    0  501  502 -0.00000000000E+00 -0.00000000000E+00 -0.25553837795E+03  0.25553837795E+03  0.00000000000E+00 0.  1.
      99926    2    1    2    0    0  0.00000000000E+00  0.00000000000E+00 -0.47816711270E+02  0.46326004464E+03  0.46078566718E+03 0.  0.
      99925    2    3    3    0    0 -0.77488180283E+02  0.89066131880E+02 -0.20036179329E+02  0.28902899119E+03  0.26305724726E+03 0.  0.
         25    1    4    4    0    0 -0.51631258016E+02  0.77977813795E+02  0.12700773610E+02  0.15670081046E+03  0.12509000000E+03 0.  0.
         25    1    4    4    0    0 -0.25856922267E+02  0.11088318085E+02 -0.32736952938E+02  0.13232818073E+03  0.12509000000E+03 0.  0.
         25    1    3    3    0    0  0.77488180283E+02 -0.89066131880E+02 -0.27780531942E+02  0.17423105345E+03  0.12509000000E+03 0.  0.
<mgrwt>
<rscale>  2 0.46078567E+03</rscale>
<asrwt>0</asrwt>
<pdfrwt beam="1">  1       21 0.30547304E-01 0.46078567E+03</pdfrwt>
<pdfrwt beam="2">  1       21 0.37579173E-01 0.46078567E+03</pdfrwt>
<totfact> 0.64896973E+04</totfact>
</mgrwt>
</event>
<event>
 7    0  0.4707675E-002  0.4557461E+03  0.7546771E-02  0.1026022E+00
         21   -1    0    0  502  501  0.00000000000E+00  0.00000000000E+00  0.40296670328E+02  0.40296670328E+02  0.00000000000E+00 0.  1.
         21   -1    0    0  501  502 -0.00000000000E+00 -0.00000000000E+00 -0.12885960420E+04  0.12885960420E+04  0.00000000000E+00 0.  1.
      99926    2    1    2    0    0  0.14210854715E-13  0.00000000000E+00 -0.12482993717E+04  0.13288927123E+04  0.45574611305E+03 0.  0.
      99925    2    3    3    0    0  0.74033389781E+02  0.21533852870E+02 -0.54094119701E+03  0.60643320136E+03  0.26305740718E+03 0.  0.
         25    1    4    4    0    0  0.58070465999E+02  0.34154387888E+02 -0.34462236475E+03  0.37276102750E+03  0.12509000000E+03 0.  0.
         25    1    3    3    0    0 -0.74033389781E+02 -0.21533852870E+02 -0.70735817468E+03  0.72245951099E+03  0.12509000000E+03 0.  0.
         25    1    4    4    0    0  0.15962923781E+02 -0.12620535018E+02 -0.19631883225E+03  0.23367217386E+03  0.12509000000E+03 0.  0.
<mgrwt>
<rscale>  2 0.45574611E+03</rscale>
<asrwt>0</asrwt>
<pdfrwt beam="1">  1       21 0.59259813E-02 0.45574611E+03</pdfrwt>
<pdfrwt beam="2">  1       21 0.18949941E+00 0.45574611E+03</pdfrwt>
<totfact> 0.28123532E+04</totfact>
</mgrwt>
</event>
<event>
 7    0  0.4707675E-002  0.4545537E+03  0.7546771E-02  0.1026373E+00
         21   -1    0    0  502  501  0.00000000000E+00  0.00000000000E+00  0.33715565314E+03  0.33715565314E+03  0.00000000000E+00 0.  1.
         21   -1    0    0  501  502 -0.00000000000E+00 -0.00000000000E+00 -0.15320746705E+03  0.15320746705E+03  0.00000000000E+00 0.  1.
      99926    2    1    2    0    0 -0.71054273576E-14  0.00000000000E+00  0.18394818609E+03  0.49036312018E+03  0.45455368711E+03 0.  0.
      99925    2    3    3    0    0 -0.55637554366E+02 -0.28190878108E+02  0.21706869214E+03  0.34671515088E+03  0.26306333016E+03 0.  0.
         25    1    3    3    0    0  0.55637554366E+02  0.28190878108E+02 -0.33120506047E+02  0.14364796930E+03  0.12509000000E+03 0.  0.
         25    1    4    4    0    0  0.40518659923E+01 -0.19491198239E+02  0.13626902665E+03  0.18604590872E+03  0.12509000000E+03 0.  0.
         25    1    4    4    0    0 -0.59689420359E+02 -0.86996798691E+01  0.80799665487E+02  0.16066924216E+03  0.12509000000E+03 0.  0.
<mgrwt>
<rscale>  2 0.45455369E+03</rscale>
<asrwt>0</asrwt>
<pdfrwt beam="1">  1       21 0.49581714E-01 0.45455369E+03</pdfrwt>
<pdfrwt beam="2">  1       21 0.22530510E-01 0.45455369E+03</pdfrwt>
<totfact> 0.66187325E+04</totfact>
</mgrwt>
</event>
<event>
 7    0  0.4707675E-002  0.4575471E+03  0.7546771E-02  0.1025495E+00
         21   -1    0    0  502  501  0.00000000000E+00  0.00000000000E+00  0.28414194416E+04  0.28414194416E+04  0.00000000000E+00 0.  1.
         21   -1    0    0  501  502 -0.00000000000E+00 -0.00000000000E+00 -0.18419433143E+02  0.18419433143E+02  0.00000000000E+00 0.  1.
      99926    2    1    2    0    0  0.00000000000E+00  0.00000000000E+00  0.28230000085E+04  0.28598388748E+04  0.45754709237E+03 0.  0.
      99925    2    3    3    0    0  0.32797643159E+02  0.96660329609E+02  0.21093905176E+04  0.21281935247E+04  0.26317374121E+03 0.  0.
         25    1    3    3    0    0 -0.32797643159E+02 -0.96660329609E+02  0.71360949087E+03  0.73164535007E+03  0.12509000000E+03 0.  0.
         25    1    4    4    0    0  0.56356244740E+02  0.44115807332E+02  0.10185363225E+04  0.10286816705E+04  0.12509000000E+03 0.  0.
         25    1    4    4    0    0 -0.23558601581E+02  0.52544522278E+02  0.10908541951E+04  0.10995118542E+04  0.12509000000E+03 0.  0.
<mgrwt>
<rscale>  2 0.45754709E+03</rscale>
<asrwt>0</asrwt>
<pdfrwt beam="1">  1       21 0.41785550E+00 0.45754709E+03</pdfrwt>
<pdfrwt beam="2">  1       21 0.27087421E-02 0.45754709E+03</pdfrwt>
<totfact> 0.40259719E+03</totfact>
</mgrwt>
</event>
<event>
 7    0  0.4707675E-002  0.4558972E+03  0.7546771E-02  0.1025978E+00
         21   -1    0    0  502  501  0.00000000000E+00  0.00000000000E+00  0.10978728221E+04  0.10978728221E+04  0.00000000000E+00 0.  1.
         21   -1    0    0  501  502 -0.00000000000E+00 -0.00000000000E+00 -0.47328406772E+02  0.47328406772E+02  0.00000000000E+00 0.  1.
      99926    2    1    2    0    0  0.00000000000E+00 -0.71054273576E-14  0.10505444153E+04  0.11452012289E+04  0.45589723187E+03 0.  0.
      99925    2    3    3    0    0  0.60242033247E+02  0.54119824157E+02  0.86218541587E+03  0.90502487967E+03  0.26296061217E+03 0.  0.
         25    1    4    4    0    0  0.40265662103E+02 -0.45397914741E+01  0.49599995136E+03  0.51313291952E+03  0.12509000000E+03 0.  0.
         25    1    3    3    0    0 -0.60242033247E+02 -0.54119824157E+02  0.18835899944E+03  0.24017634919E+03  0.12509000000E+03 0.  0.
         25    1    4    4    0    0  0.19976371144E+02  0.58659615631E+02  0.36618546451E+03  0.39189196015E+03  0.12509000000E+03 0.  0.
<mgrwt>
<rscale>  2 0.45589723E+03</rscale>
<asrwt>0</asrwt>
<pdfrwt beam="1">  1       21 0.16145187E+00 0.45589723E+03</pdfrwt>
<pdfrwt beam="2">  1       21 0.69600605E-02 0.45589723E+03</pdfrwt>
<totfact> 0.33706664E+04</totfact>
</mgrwt>
</event>
<event>
 6    0  0.4707675E-002  0.4577606E+03  0.7546771E-02  0.1025433E+00
         21   -1    0    0  502  501  0.00000000000E+00  0.00000000000E+00  0.26549921539E+04  0.26549921539E+04  0.00000000000E+00 0. -1.
         21   -1    0    0  501  502 -0.00000000000E+00 -0.00000000000E+00 -0.19731207770E+02  0.19731207770E+02  0.00000000000E+00 0. -1.
      99926    2    1    2    0    0  0.00000000000E+00  0.00000000000E+00  0.26352609461E+04  0.26747233616E+04  0.45776064407E+03 0.  0.
         25    1    3    3    0    0 -0.59123441493E+02 -0.60046320606E+00  0.80172370312E+03  0.81357504026E+03  0.12509000000E+03 0.  0.
         25    1    3    3    0    0  0.70084043586E+02  0.18787546800E+01  0.14609014084E+04  0.14679222513E+04  0.12509000000E+03 0.  0.
         25    1    3    3    0    0 -0.10960602093E+02 -0.12782914739E+01  0.37263583461E+03  0.39322607004E+03  0.12509000000E+03 0.  0.
<mgrwt>
<rscale>  2 0.45776064E+03</rscale>
<asrwt>0</asrwt>
<pdfrwt beam="1">  1       21 0.39043978E+00 0.45776064E+03</pdfrwt>
<pdfrwt beam="2">  1       21 0.29016500E-02 0.45776064E+03</pdfrwt>
<totfact> 0.53877731E+03</totfact>
</mgrwt>
</event>
<event>
 7    0  0.4707675E-002  0.4526821E+03  0.7546771E-02  0.1026925E+00
         21   -1    0    0  502  501  0.00000000000E+00  0.00000000000E+00  0.11121827483E+04  0.11121827483E+04  0.00000000000E+00 0. -1.
         21   -1    0    0  501  502 -0.00000000000E+00 -0.00000000000E+00 -0.46062819131E+02  0.46062819131E+02  0.00000000000E+00 0. -1.
      99926    2    1    2    0    0  0.14210854715E-13  0.00000000000E+00  0.10661199292E+04  0.11582455675E+04  0.45268210823E+03 0.  0.
      99925    2    3    3    0    0  0.93255957614E+02 -0.45310101701E+02  0.57081963235E+03  0.63697829331E+03  0.26297645241E+03 0.  0.
         25    1    3    3    0    0 -0.93255957614E+02  0.45310101701E+02  0.49530029687E+03  0.52126727417E+03  0.12509000000E+03 0.  0.
         25    1    4    4    0    0  0.13363527420E+02 -0.42769627024E+02  0.30086876863E+03  0.32890325158E+03  0.12509000000E+03 0.  0.
         25    1    4    4    0    0  0.79892430194E+02 -0.25404746772E+01  0.26995086372E+03  0.30807504173E+03  0.12509000000E+03 0.  0.
<mgrwt>
<rscale>  2 0.45268211E+03</rscale>
<asrwt>0</asrwt>
<pdfrwt beam="1">  1       21 0.16355627E+00 0.45268211E+03</pdfrwt>
<pdfrwt beam="2">  1       21 0.67739447E-02 0.45268211E+03</pdfrwt>
<totfact> 0.34120434E+04</totfact>
</mgrwt>
</event>
<event>
 7    0  0.4707675E-002  0.4403440E+03  0.7546771E-02  0.1030641E+00
         21   -1    0    0  502  501  0.00000000000E+00  0.00000000000E+00  0.19789070753E+03  0.19789070753E+03  0.00000000000E+00 0.  1.
         21   -1    0    0  501  502 -0.00000000000E+00 -0.00000000000E+00 -0.24496204732E+03  0.24496204732E+03  0.00000000000E+00 0.  1.
      99926    2    1    2    0    0  0.00000000000E+00  0.17763568394E-14 -0.47071339789E+02  0.44285275484E+03  0.44034401488E+03 0.  0.
      99925    2    3    3    0    0 -0.68082793422E+02  0.10841694766E+02 -0.10127766664E+03  0.29008285245E+03  0.26294122237E+03 0.  0.
         25    1    3    3    0    0  0.68082793422E+02 -0.10841694766E+02  0.54206326854E+02  0.15276990239E+03  0.12509000000E+03 0.  0.
         25    1    4    4    0    0 -0.32511865405E+02  0.38560259407E+02 -0.75725664380E+02  0.15467966687E+03  0.12509000000E+03 0.  0.
         25    1    4    4    0    0 -0.35570928017E+02 -0.27718564641E+02 -0.25552002264E+02  0.13540318558E+03  0.12509000000E+03 0.  0.
<mgrwt>
<rscale>  2 0.44034401E+03</rscale>
<asrwt>0</asrwt>
<pdfrwt beam="1">  1       21 0.29101575E-01 0.44034401E+03</pdfrwt>
<pdfrwt beam="2">  1       21 0.36023830E-01 0.44034401E+03</pdfrwt>
<totfact> 0.78196392E+04</totfact>
</mgrwt>
</event>
<event>
 7    0  0.4707675E-002  0.4530704E+03  0.7546771E-02  0.1026810E+00
         21   -1    0    0  502  501  0.00000000000E+00  0.00000000000E+00  0.29801886929E+03  0.29801886929E+03  0.00000000000E+00 0.  1.
         21   -1    0    0  501  502 -0.00000000000E+00 -0.00000000000E+00 -0.17219781834E+03  0.17219781834E+03  0.00000000000E+00 0.  1.
      99926    2    1    2    0    0  0.00000000000E+00  0.00000000000E+00  0.12582105095E+03  0.47021668763E+03  0.45307041005E+03 0.  0.
      99925    2    3    3    0    0 -0.12821843517E+02 -0.23740243513E+02  0.19123918397E+03  0.32649807693E+03  0.26325001409E+03 0.  0.
         25    1    4    4    0    0  0.25053872501E+01  0.44706466429E+01  0.49172824554E+02  0.13450553305E+03  0.12509000000E+03 0.  0.
         25    1    3    3    0    0  0.12821843517E+02  0.23740243513E+02 -0.65418133019E+02  0.14371861070E+03  0.12509000000E+03 0.  0.
         25    1    4    4    0    0 -0.15327230767E+02 -0.28210890156E+02  0.14206635942E+03  0.19199254388E+03  0.12509000000E+03 0.  0.
<mgrwt>
<rscale>  2 0.45307041E+03</rscale>
<asrwt>0</asrwt>
<pdfrwt beam="1">  1       21 0.43826305E-01 0.45307041E+03</pdfrwt>
<pdfrwt beam="2">  1       21 0.25323208E-01 0.45307041E+03</pdfrwt>
<totfact> 0.68461674E+04</totfact>
</mgrwt>
</event>
<event>
 7    0  0.4707675E-002  0.4497736E+03  0.7546771E-02  0.1027790E+00
         21   -1    0    0  502  501  0.00000000000E+00  0.00000000000E+00  0.17085719666E+03  0.17085719666E+03  0.00000000000E+00 0. -1.
         21   -1    0    0  501  502 -0.00000000000E+00 -0.00000000000E+00 -0.29600204065E+03  0.29600204065E+03  0.00000000000E+00 0. -1.
      99926    2    1    2    0    0  0.00000000000E+00  0.00000000000E+00 -0.12514484399E+03  0.46685923730E+03  0.44977362693E+03 0.  0.
      99925    2    3    3    0    0 -0.55968644809E+02 -0.81840625348E+01  0.16395989918E+02  0.26967712898E+03  0.26316811609E+03 0.  0.
         25    1    4    4    0    0 -0.51974982356E+02 -0.37304273334E+02  0.13494624298E+02  0.14114751356E+03  0.12509000000E+03 0.  0.
         25    1    4    4    0    0 -0.39936624538E+01  0.29120210799E+02  0.29013656199E+01  0.12852961542E+03  0.12509000000E+03 0.  0.
         25    1    3    3    0    0  0.55968644809E+02  0.81840625348E+01 -0.14154083390E+03  0.19718210833E+03  0.12509000000E+03 0.  0.
<mgrwt>
<rscale>  2 0.44977363E+03</rscale>
<asrwt>0</asrwt>
<pdfrwt beam="1">  1       21 0.25126059E-01 0.44977363E+03</pdfrwt>
<pdfrwt beam="2">  1       21 0.43529711E-01 0.44977363E+03</pdfrwt>
<totfact> 0.70550123E+04</totfact>
</mgrwt>
</event>
<event>
 7    0  0.4707675E-002  0.4383840E+03  0.7546771E-02  0.1031244E+00
         21   -1    0    0  502  501  0.00000000000E+00  0.00000000000E+00  0.53935534652E+03  0.53935534652E+03  0.00000000000E+00 0.  1.
         21   -1    0    0  501  502 -0.00000000000E+00 -0.00000000000E+00 -0.89078809017E+02  0.89078809017E+02  0.00000000000E+00 0.  1.
      99926    2    1    2    0    0 -0.22204460493E-15 -0.14210854715E-13  0.45027653750E+03  0.62843415553E+03  0.43838399562E+03 0.  0.
      99925    2    3    3    0    0  0.74347621241E+00  0.93864994707E+02  0.31914757393E+03  0.42434225669E+03  0.26343877254E+03 0.  0.
         25    1    4    4    0    0 -0.60476162179E+00  0.77243849417E+02  0.21635072637E+03  0.26157622772E+03  0.12509000000E+03 0.  0.
         25    1    3    3    0    0 -0.74347621241E+00 -0.93864994707E+02  0.13112896357E+03  0.20409189885E+03  0.12509000000E+03 0.  0.
         25    1    4    4    0    0  0.13482378342E+01  0.16621145290E+02  0.10279684756E+03  0.16276602896E+03  0.12509000000E+03 0.  0.
<mgrwt>
<rscale>  2 0.43838400E+03</rscale>
<asrwt>0</asrwt>
<pdfrwt beam="1">  1       21 0.79316961E-01 0.43838400E+03</pdfrwt>
<pdfrwt beam="2">  1       21 0.13099825E-01 0.43838400E+03</pdfrwt>
<totfact> 0.65087144E+04</totfact>
</mgrwt>
</event>
<event>
 7    0  0.4707675E-002  0.4350489E+03  0.7546771E-02  0.1032277E+00
         21   -1    0    0  502  501  0.00000000000E+00  0.00000000000E+00  0.24834963143E+02  0.24834963143E+02  0.00000000000E+00 0.  1.
         21   -1    0    0  501  502 -0.00000000000E+00 -0.00000000000E+00 -0.19052529943E+04  0.19052529943E+04  0.00000000000E+00 0.  1.
      99926    2    1    2    0    0  0.00000000000E+00  0.71054273576E-14 -0.18804180312E+04  0.19300879575E+04  0.43504890710E+03 0.  0.
      99925    2    3    3    0    0 -0.66670297400E+02  0.45154148482E+02 -0.99905459987E+03  0.10362575307E+04  0.26312687188E+03 0.  0.
         25    1    4    4    0    0 -0.70900148896E+01  0.50304772753E+02 -0.43876962789E+03  0.45907203458E+03  0.12509000000E+03 0.  0.
         25    1    4    4    0    0 -0.59580282510E+02 -0.51506242704E+01 -0.56028497198E+03  0.57718549611E+03  0.12509000000E+03 0.  0.
         25    1    3    3    0    0  0.66670297400E+02 -0.45154148482E+02 -0.88136343130E+03  0.89383042676E+03  0.12509000000E+03 0.  0.
<mgrwt>
<rscale>  2 0.43504891E+03</rscale>
<asrwt>0</asrwt>
<pdfrwt beam="1">  1       21 0.36521998E-02 0.43504891E+03</pdfrwt>
<pdfrwt beam="2">  1       21 0.28018431E+00 0.43504891E+03</pdfrwt>
<totfact> 0.17432211E+04</totfact>
</mgrwt>
</event>
<event>
 7    0  0.4707675E-002  0.4500643E+03  0.7546771E-02  0.1027703E+00
         21   -1    0    0  502  501  0.00000000000E+00  0.00000000000E+00  0.13153851201E+03  0.13153851201E+03  0.00000000000E+00 0.  1.
         21   -1    0    0  501  502 -0.00000000000E+00 -0.00000000000E+00 -0.38497833646E+03  0.38497833646E+03  0.00000000000E+00 0.  1.
      99926    2    1    2    0    0  0.00000000000E+00 -0.14210854715E-13 -0.25343982446E+03  0.51651684847E+03  0.45006433999E+03 0.  0.
      99925    2    3    3    0    0 -0.56735964185E+01 -0.84745357054E+02 -0.23767514469E+03  0.36449711795E+03  0.26297283007E+03 0.  0.
         25    1    4    4    0    0 -0.47684651973E+01 -0.54170716929E+02 -0.17326455378E+03  0.22051149297E+03  0.12509000000E+03 0.  0.
         25    1    3    3    0    0  0.56735964185E+01  0.84745357054E+02 -0.15764679770E+02  0.15201973052E+03  0.12509000000E+03 0.  0.
         25    1    4    4    0    0 -0.90513122119E+00 -0.30574640125E+02 -0.64410590903E+02  0.14398562498E+03  0.12509000000E+03 0.  0.
<mgrwt>
<rscale>  2 0.45006434E+03</rscale>
<asrwt>0</asrwt>
<pdfrwt beam="1">  1       21 0.19343899E-01 0.45006434E+03</pdfrwt>
<pdfrwt beam="2">  1       21 0.56614462E-01 0.45006434E+03</pdfrwt>
<totfact> 0.66699054E+04</totfact>
</mgrwt>
</event>
<event>
 7    0  0.4707675E-002  0.4542069E+03  0.7546771E-02  0.1026475E+00
         21   -1    0    0  502  501  0.00000000000E+00  0.00000000000E+00  0.72923005609E+03  0.72923005609E+03  0.00000000000E+00 0. -1.
         21   -1    0    0  501  502 -0.00000000000E+00 -0.00000000000E+00 -0.70726616476E+02  0.70726616476E+02  0.00000000000E+00 0. -1.
      99926    2    1    2    0    0  0.00000000000E+00  0.00000000000E+00  0.65850343962E+03  0.79995667257E+03  0.45420688898E+03 0.  0.
      99925    2    3    3    0    0 -0.30479827374E+02  0.10676572874E+03  0.44497018513E+03  0.52871526794E+03  0.26308445069E+03 0.  0.
         25    1    4    4    0    0 -0.14358200899E+02  0.10136442287E+02  0.18413930621E+03  0.22330180830E+03  0.12509000000E+03 0.  0.
         25    1    4    4    0    0 -0.16121626475E+02  0.96629286450E+02  0.26083087891E+03  0.30541345965E+03  0.12509000000E+03 0.  0.
         25    1    3    3    0    0  0.30479827374E+02 -0.10676572874E+03  0.21353325449E+03  0.27124140463E+03  0.12509000000E+03 0.  0.
<mgrwt>
<rscale>  2 0.45420689E+03</rscale>
<asrwt>0</asrwt>
<pdfrwt beam="1">  1       21 0.10723971E+00 0.45420689E+03</pdfrwt>
<pdfrwt beam="2">  1       21 0.10400973E-01 0.45420689E+03</pdfrwt>
<totfact> 0.48065375E+04</totfact>
</mgrwt>
</event>
<event>
 7    0  0.4707675E-002  0.4032390E+03  0.7546771E-02  0.1042664E+00
         21   -1    0    0  502  501  0.00000000000E+00  0.00000000000E+00  0.10689243895E+04  0.10689243895E+04  0.00000000000E+00 0.  1.
         21   -1    0    0  501  502 -0.00000000000E+00 -0.00000000000E+00 -0.38029278284E+02  0.38029278284E+02  0.00000000000E+00 0.  1.
      99926    2    1    2    0    0 -0.17763568394E-14  0.00000000000E+00  0.10308951112E+04  0.11069536678E+04  0.40323900145E+03 0.  0.
      99925    2    3    3    0    0  0.87862564872E+01 -0.38858102731E+02  0.60435020272E+03  0.66066315980E+03  0.26391190337E+03 0.  0.
         25    1    4    4    0    0 -0.24929440054E+02 -0.32020182302E+02  0.23647478068E+03  0.27058196365E+03  0.12509000000E+03 0.  0.
         25    1    3    3    0    0 -0.87862564872E+01  0.38858102731E+02  0.42654490852E+03  0.44629050801E+03  0.12509000000E+03 0.  0.
         25    1    4    4    0    0  0.33715696541E+02 -0.68379204288E+01  0.36787542204E+03  0.39008119615E+03  0.12509000000E+03 0.  0.
<mgrwt>
<rscale>  2 0.40323900E+03</rscale>
<asrwt>0</asrwt>
<pdfrwt beam="1">  1       21 0.15719474E+00 0.40323900E+03</pdfrwt>
<pdfrwt beam="2">  1       21 0.55925416E-02 0.40323900E+03</pdfrwt>
<totfact> 0.53955928E+04</totfact>
</mgrwt>
</event>
<event>
 7    0  0.4707675E-002  0.4601099E+03  0.7546771E-02  0.1024749E+00
         21   -1    0    0  502  501  0.00000000000E+00  0.00000000000E+00  0.13531156428E+03  0.13531156428E+03  0.00000000000E+00 0.  1.
         21   -1    0    0  501  502 -0.00000000000E+00 -0.00000000000E+00 -0.39113648087E+03  0.39113648087E+03  0.00000000000E+00 0.  1.
      99926    2    1    2    0    0 -0.17763568394E-14  0.00000000000E+00 -0.25582491659E+03  0.52644804514E+03  0.46010993935E+03 0.  0.
      99925    2    3    3    0    0 -0.66903262969E+01 -0.91611434546E+02 -0.75759695277E+02  0.28873307416E+03  0.26303961922E+03 0.  0.
         25    1    3    3    0    0  0.66903262969E+01  0.91611434546E+02 -0.18006522131E+03  0.23771497099E+03  0.12509000000E+03 0.  0.
         25    1    4    4    0    0 -0.33056739649E+02 -0.17021324795E+02 -0.39542543679E+02  0.13635833086E+03  0.12509000000E+03 0.  0.
         25    1    4    4    0    0  0.26366413352E+02 -0.74590109751E+02 -0.36217151599E+02  0.15237474330E+03  0.12509000000E+03 0.  0.
<mgrwt>
<rscale>  2 0.46010994E+03</rscale>
<asrwt>0</asrwt>
<pdfrwt beam="1">  1       21 0.19898759E-01 0.46010994E+03</pdfrwt>
<pdfrwt beam="2">  1       21 0.57520071E-01 0.46010994E+03</pdfrwt>
<totfact> 0.60941206E+04</totfact>
</mgrwt>
</event>
<event>
 6    0  0.4707675E-002  0.4545374E+03  0.7546771E-02  0.1026378E+00
         21   -1    0    0  502  501  0.00000000000E+00  0.00000000000E+00  0.15782152799E+03  0.15782152799E+03  0.00000000000E+00 0. -1.
         21   -1    0    0  501  502 -0.00000000000E+00 -0.00000000000E+00 -0.32727519421E+03  0.32727519421E+03  0.00000000000E+00 0. -1.
      99926    2    1    2    0    0  0.00000000000E+00  0.00000000000E+00 -0.16945366622E+03  0.48509672220E+03  0.45453744058E+03 0.  0.
         25    1    3    3    0    0 -0.37839164599E+01 -0.23532003150E+02 -0.15156717602E+03  0.19796007209E+03  0.12509000000E+03 0.  0.
         25    1    3    3    0    0 -0.52882427635E+02 -0.80769596411E+01 -0.45663582053E+02  0.14350769755E+03  0.12509000000E+03 0.  0.
         25    1    3    3    0    0  0.56666344095E+02  0.31608962791E+02  0.27777091853E+02  0.14362895256E+03  0.12509000000E+03 0.  0.
<mgrwt>
<rscale>  2 0.45453744E+03</rscale>
<asrwt>0</asrwt>
<pdfrwt beam="1">  1       21 0.23209048E-01 0.45453744E+03</pdfrwt>
<pdfrwt beam="2">  1       21 0.48128705E-01 0.45453744E+03</pdfrwt>
<totfact> 0.66575057E+04</totfact>
</mgrwt>
</event>
<event>
 7    0  0.4707675E-002  0.4574610E+03  0.7546771E-02  0.1025520E+00
         21   -1    0    0  502  501  0.00000000000E+00  0.00000000000E+00  0.32292690898E+02  0.32292690898E+02  0.00000000000E+00 0.  1.
         21   -1    0    0  501  502 -0.00000000000E+00 -0.00000000000E+00 -0.16201077463E+04  0.16201077463E+04  0.00000000000E+00 0.  1.
      99926    2    1    2    0    0  0.00000000000E+00 -0.14210854715E-13 -0.15878150554E+04  0.16524004372E+04  0.45746098707E+03 0.  0.
      99925    2    3    3    0    0 -0.56525723124E+02  0.72520823983E+02 -0.12493279892E+04  0.12800089371E+04  0.26296012448E+03 0.  0.
         25    1    4    4    0    0  0.98408433198E+01  0.17670103504E+02 -0.56730748548E+03  0.58128681900E+03  0.12509000000E+03 0.  0.
         25    1    4    4    0    0 -0.66366566444E+02  0.54850720480E+02 -0.68202050376E+03  0.69872211811E+03  0.12509000000E+03 0.  0.
         25    1    3    3    0    0  0.56525723124E+02 -0.72520823983E+02 -0.33848706614E+03  0.37239150008E+03  0.12509000000E+03 0.  0.
<mgrwt>
<rscale>  2 0.45746099E+03</rscale>
<asrwt>0</asrwt>
<pdfrwt beam="1">  1       21 0.47489264E-02 0.45746099E+03</pdfrwt>
<pdfrwt beam="2">  1       21 0.23825108E+00 0.45746099E+03</pdfrwt>
<totfact> 0.19888407E+04</totfact>
</mgrwt>
</event>
<event>
 7    0  0.4707675E-002  0.4466580E+03  0.7546771E-02  0.1028723E+00
         21   -1    0    0  502  501  0.00000000000E+00  0.00000000000E+00  0.57526049699E+03  0.57526049699E+03  0.00000000000E+00 0.  1.
         21   -1    0    0  501  502 -0.00000000000E+00 -0.00000000000E+00 -0.86701329581E+02  0.86701329581E+02  0.00000000000E+00 0.  1.
      99926    2    1    2    0    0  0.00000000000E+00  0.00000000000E+00  0.48855916741E+03  0.66196182657E+03  0.44665803449E+03 0.  0.
      99925    2    3    3    0    0  0.56340827137E+02  0.79039695630E+02  0.25000791916E+03  0.37564771859E+03  0.26303172157E+03 0.  0.
         25    1    3    3    0    0 -0.56340827137E+02 -0.79039695630E+02  0.23855124825E+03  0.28631410798E+03  0.12509000000E+03 0.  0.
         25    1    4    4    0    0  0.47059041149E+02  0.73327654202E+02  0.11266782675E+03  0.18956013692E+03  0.12509000000E+03 0.  0.
         25    1    4    4    0    0  0.92817859881E+01  0.57120414275E+01  0.13734009241E+03  0.18608758167E+03  0.12509000000E+03 0.  0.
<mgrwt>
<rscale>  2 0.44665803E+03</rscale>
<asrwt>0</asrwt>
<pdfrwt beam="1">  1       21 0.84597130E-01 0.44665803E+03</pdfrwt>
<pdfrwt beam="2">  1       21 0.12750196E-01 0.44665803E+03</pdfrwt>
<totfact> 0.58788339E+04</totfact>
</mgrwt>
</event>
<event>
 7    0  0.4707675E-002  0.4470884E+03  0.7546771E-02  0.1028594E+00
         21   -1    0    0  502  501  0.00000000000E+00  0.00000000000E+00  0.12753638867E+04  0.12753638867E+04  0.00000000000E+00 0.  1.
         21   -1    0    0  501  502 -0.00000000000E+00 -0.00000000000E+00 -0.39182557896E+02  0.39182557896E+02  0.00000000000E+00 0.  1.
      99926    2    1    2    0    0  0.00000000000E+00  0.00000000000E+00  0.12361813288E+04  0.13145464446E+04  0.44708844463E+03 0.  0.
      99925    2    3    3    0    0  0.13686856079E+02 -0.85921713508E+02  0.60803470051E+03  0.66818310590E+03  0.26304485377E+03 0.  0.
         25    1    3    3    0    0 -0.13686856079E+02  0.85921713508E+02  0.62814662833E+03  0.64636333874E+03  0.12509000000E+03 0.  0.
         25    1    4    4    0    0 -0.36816769894E+01 -0.40430069560E+02  0.39564649686E+03  0.41693141384E+03  0.12509000000E+03 0.  0.
         25    1    4    4    0    0  0.17368533068E+02 -0.45491643948E+02  0.21238820366E+03  0.25125169206E+03  0.12509000000E+03 0.  0.
<mgrwt>
<rscale>  2 0.44708844E+03</rscale>
<asrwt>0</asrwt>
<pdfrwt beam="1">  1       21 0.18755349E+00 0.44708844E+03</pdfrwt>
<pdfrwt beam="2">  1       21 0.57621417E-02 0.44708844E+03</pdfrwt>
<totfact> 0.30530715E+04</totfact>
</mgrwt>
</event>
<event>
 7    0  0.4707675E-002  0.4473769E+03  0.7546771E-02  0.1028507E+00
         21   -1    0    0  502  501  0.00000000000E+00  0.00000000000E+00  0.26076361145E+03  0.26076361145E+03  0.00000000000E+00 0.  1.
         21   -1    0    0  501  502 -0.00000000000E+00 -0.00000000000E+00 -0.19188461216E+03  0.19188461216E+03  0.00000000000E+00 0.  1.
      99926    2    1    2    0    0  0.00000000000E+00 -0.44408920985E-15  0.68878999285E+02  0.45264822361E+03  0.44737690798E+03 0.  0.
      99925    2    3    3    0    0 -0.10483636340E+03  0.15602956342E+01  0.28201086350E+02  0.28443616008E+03  0.26289832688E+03 0.  0.
         25    1    4    4    0    0 -0.17517548462E+02 -0.86055314069E+01 -0.95216598475E+01  0.12696097740E+03  0.12509000000E+03 0.  0.
         25    1    4    4    0    0 -0.87318814939E+02  0.10165827041E+02  0.37722746198E+02  0.15747518269E+03  0.12509000000E+03 0.  0.
         25    1    3    3    0    0  0.10483636340E+03 -0.15602956342E+01  0.40677912935E+02  0.16821206352E+03  0.12509000000E+03 0.  0.
<mgrwt>
<rscale>  2 0.44737691E+03</rscale>
<asrwt>0</asrwt>
<pdfrwt beam="1">  1       21 0.38347590E-01 0.44737691E+03</pdfrwt>
<pdfrwt beam="2">  1       21 0.28218325E-01 0.44737691E+03</pdfrwt>
<totfact> 0.73061153E+04</totfact>
</mgrwt>
</event>
<event>
 7    0  0.4707675E-002  0.4661387E+03  0.7546771E-02  0.1023016E+00
         21   -1    0    0  502  501  0.00000000000E+00  0.00000000000E+00  0.42195986042E+03  0.42195986042E+03  0.00000000000E+00 0.  1.
         21   -1    0    0  501  502 -0.00000000000E+00 -0.00000000000E+00 -0.12873574417E+03  0.12873574417E+03  0.00000000000E+00 0.  1.
      99926    2    1    2    0    0  0.00000000000E+00  0.00000000000E+00  0.29322411625E+03  0.55069560458E+03  0.46613867739E+03 0.  0.
      99925    2    3    3    0    0  0.57409154942E+02  0.10493472476E+03  0.21818344149E+03  0.36205383164E+03  0.26300542833E+03 0.  0.
         25    1    3    3    0    0 -0.57409154942E+02 -0.10493472476E+03  0.75040674759E+02  0.18864177295E+03  0.12509000000E+03 0.  0.
         25    1    4    4    0    0  0.40029486135E+02  0.40449321057E+02  0.15399881552E+03  0.20640167299E+03  0.12509000000E+03 0.  0.
         25    1    4    4    0    0  0.17379668807E+02  0.64485403703E+02  0.64184625976E+02  0.15565215864E+03  0.12509000000E+03 0.  0.
<mgrwt>
<rscale>  2 0.46613868E+03</rscale>
<asrwt>0</asrwt>
<pdfrwt beam="1">  1       21 0.62052920E-01 0.46613868E+03</pdfrwt>
<pdfrwt beam="2">  1       21 0.18931727E-01 0.46613868E+03</pdfrwt>
<totfact> 0.56658735E+04</totfact>
</mgrwt>
</event>
<event>
 7    0  0.4707675E-002  0.4542902E+03  0.7546771E-02  0.1026450E+00
         21   -1    0    0  502  501  0.00000000000E+00  0.00000000000E+00  0.53261038185E+03  0.53261038185E+03  0.00000000000E+00 0. -1.
         21   -1    0    0  501  502 -0.00000000000E+00 -0.00000000000E+00 -0.96871759155E+02  0.96871759155E+02  0.00000000000E+00 0. -1.
      99926    2    1    2    0    0  0.00000000000E+00  0.00000000000E+00  0.43573862270E+03  0.62948214101E+03  0.45429023601E+03 0.  0.
      99925    2    3    3    0    0  0.10419170734E+03  0.31567257431E+02  0.31366046226E+03  0.42356228044E+03  0.26300136160E+03 0.  0.
         25    1    3    3    0    0 -0.10419170734E+03 -0.31567257431E+02  0.12207816044E+03  0.20591986057E+03  0.12509000000E+03 0.  0.
         25    1    4    4    0    0  0.85234968149E+02 -0.73256100514E+01  0.15218187140E+03  0.21476846705E+03  0.12509000000E+03 0.  0.
         25    1    4    4    0    0  0.18956739196E+02  0.38892867482E+02  0.16147859085E+03  0.20879381338E+03  0.12509000000E+03 0.  0.
<mgrwt>
<rscale>  2 0.45429024E+03</rscale>
<asrwt>0</asrwt>
<pdfrwt beam="1">  1       21 0.78325055E-01 0.45429024E+03</pdfrwt>
<pdfrwt beam="2">  1       21 0.14245847E-01 0.45429024E+03</pdfrwt>
<totfact> 0.57219215E+04</totfact>
</mgrwt>
</event>
<event>
 7    0  0.4707675E-002  0.4596948E+03  0.7546771E-02  0.1024870E+00
         21   -1    0    0  502  501  0.00000000000E+00  0.00000000000E+00  0.68791921225E+02  0.68791921225E+02  0.00000000000E+00 0.  1.
         21   -1    0    0  501  502 -0.00000000000E+00 -0.00000000000E+00 -0.76796564820E+03  0.76796564820E+03  0.00000000000E+00 0.  1.
      99926    2    1    2    0    0  0.00000000000E+00  0.35527136788E-14 -0.69917372697E+03  0.83675756942E+03  0.45969482214E+03 0.  0.
      99925    2    3    3    0    0 -0.39462979772E+02 -0.29145177834E+02 -0.24391049877E+03  0.36207990698E+03  0.26306417367E+03 0.  0.
         25    1    4    4    0    0  0.14139560234E+00 -0.46210953808E+02 -0.14413845798E+03  0.19636413984E+03  0.12509000000E+03 0.  0.
         25    1    3    3    0    0  0.39462979772E+02  0.29145177834E+02 -0.45526322820E+03  0.47467766244E+03  0.12509000000E+03 0.  0.
         25    1    4    4    0    0 -0.39604375375E+02  0.17065775975E+02 -0.99772040787E+02  0.16571576715E+03  0.12509000000E+03 0.  0.
<mgrwt>
<rscale>  2 0.45969482E+03</rscale>
<asrwt>0</asrwt>
<pdfrwt beam="1">  1       21 0.10116459E-01 0.45969482E+03</pdfrwt>
<pdfrwt beam="2">  1       21 0.11293612E+00 0.45969482E+03</pdfrwt>
<totfact> 0.44380267E+04</totfact>
</mgrwt>
</event>
<event>
 7    0  0.4707675E-002  0.4526694E+03  0.7546771E-02  0.1026929E+00
         21   -1    0    0  502  501  0.00000000000E+00  0.00000000000E+00  0.10839531965E+03  0.10839531965E+03  0.00000000000E+00 0. -1.
         21   -1    0    0  501  502 -0.00000000000E+00 -0.00000000000E+00 -0.47259793277E+03  0.47259793277E+03  0.00000000000E+00 0. -1.
      99926    2    1    2    0    0 -0.14210854715E-13  0.17763568394E-14 -0.36420261312E+03  0.58099325242E+03  0.45266943343E+03 0.  0.
      99925    2    3    3    0    0 -0.10303619275E+03 -0.14626744336E+02 -0.28123113064E+03  0.39834010115E+03  0.26220886460E+03 0.  0.
         25    1    4    4    0    0 -0.52426755876E+02  0.86538936153E+01 -0.19074422644E+03  0.23420999686E+03  0.12509000000E+03 0.  0.
         25    1    3    3    0    0  0.10303619275E+03  0.14626744336E+02 -0.82971482474E+02  0.18265315127E+03  0.12509000000E+03 0.  0.
         25    1    4    4    0    0 -0.50609436873E+02 -0.23280637952E+02 -0.90486904199E+02  0.16413010429E+03  0.12509000000E+03 0.  0.
<mgrwt>
<rscale>  2 0.45266943E+03</rscale>
<asrwt>0</asrwt>
<pdfrwt beam="1">  1       21 0.15940488E-01 0.45266943E+03</pdfrwt>
<pdfrwt beam="2">  1       21 0.69499696E-01 0.45266943E+03</pdfrwt>
<totfact> 0.60979455E+04</totfact>
</mgrwt>
</event>
<event>
 7    0  0.4707675E-002  0.4530886E+03  0.7546771E-02  0.1026805E+00
         21   -1    0    0  502  501  0.00000000000E+00  0.00000000000E+00  0.18224224391E+03  0.18224224391E+03  0.00000000000E+00 0.  1.
         21   -1    0    0  501  502 -0.00000000000E+00 -0.00000000000E+00 -0.28161590557E+03  0.28161590557E+03  0.00000000000E+00 0.  1.
      99926    2    1    2    0    0  0.00000000000E+00  0.00000000000E+00 -0.99373661663E+02  0.46385814948E+03  0.45308857655E+03 0.  0.
      99925    2    3    3    0    0 -0.82855912178E+02 -0.69444939622E+02 -0.90280757890E+02  0.29827466352E+03  0.26292481403E+03 0.  0.
         25    1    3    3    0    0  0.82855912178E+02  0.69444939622E+02 -0.90929037731E+01  0.16558348595E+03  0.12509000000E+03 0.  0.
         25    1    4    4    0    0 -0.44177130084E+02 -0.97918370262E+01 -0.97267187466E+01  0.13337771948E+03  0.12509000000E+03 0.  0.
         25    1    4    4    0    0 -0.38678782094E+02 -0.59653102595E+02 -0.80554039144E+02  0.16489694405E+03  0.12509000000E+03 0.  0.
<mgrwt>
<rscale>  2 0.45308858E+03</rscale>
<asrwt>0</asrwt>
<pdfrwt beam="1">  1       21 0.26800330E-01 0.45308858E+03</pdfrwt>
<pdfrwt beam="2">  1       21 0.41414103E-01 0.45308858E+03</pdfrwt>
<totfact> 0.68934997E+04</totfact>
</mgrwt>
</event>
<event>
 7    0  0.4707675E-002  0.4601061E+03  0.7546771E-02  0.1024750E+00
         21   -1    0    0  502  501  0.00000000000E+00  0.00000000000E+00  0.26996926462E+04  0.26996926462E+04  0.00000000000E+00 0.  1.
         21   -1    0    0  501  502 -0.00000000000E+00 -0.00000000000E+00 -0.19603865131E+02  0.19603865131E+02  0.00000000000E+00 0.  1.
      99926    2    1    2    0    0  0.00000000000E+00 -0.35527136788E-14  0.26800887811E+04  0.27192965114E+04  0.46010612051E+03 0.  0.
      99925    2    3    3    0    0 -0.10718086084E+03 -0.30871429357E+02  0.14430148998E+04  0.14709215365E+04  0.26244501002E+03 0.  0.
         25    1    3    3    0    0  0.10718086084E+03  0.30871429357E+02  0.12370738812E+04  0.12483749749E+04  0.12509000000E+03 0.  0.
         25    1    4    4    0    0 -0.73695208912E+02 -0.35389070711E+02  0.61906577891E+03  0.63684638404E+03  0.12509000000E+03 0.  0.
         25    1    4    4    0    0 -0.33485651923E+02  0.45176413532E+01  0.82394912093E+03  0.83407515246E+03  0.12509000000E+03 0.  0.
<mgrwt>
<rscale>  2 0.46010612E+03</rscale>
<asrwt>0</asrwt>
<pdfrwt beam="1">  1       21 0.39701337E+00 0.46010612E+03</pdfrwt>
<pdfrwt beam="2">  1       21 0.28829232E-02 0.46010612E+03</pdfrwt>
<totfact> 0.49393746E+03</totfact>
</mgrwt>
</event>
<event>
 7    0  0.4707675E-002  0.4511305E+03  0.7546771E-02  0.1027385E+00
         21   -1    0    0  502  501  0.00000000000E+00  0.00000000000E+00  0.23449818160E+03  0.23449818160E+03  0.00000000000E+00 0. -1.
         21   -1    0    0  501  502 -0.00000000000E+00 -0.00000000000E+00 -0.21697260693E+03  0.21697260693E+03  0.00000000000E+00 0. -1.
      99926    2    1    2    0    0  0.00000000000E+00  0.00000000000E+00  0.17525574675E+02  0.45147078853E+03  0.45113049900E+03 0.  0.
      99925    2    3    3    0    0 -0.10583360409E+02 -0.43885460173E+02  0.11094040717E+03  0.28895377354E+03  0.26296115334E+03 0.  0.
         25    1    3    3    0    0  0.10583360409E+02  0.43885460173E+02 -0.93414832497E+02  0.16251701499E+03  0.12509000000E+03 0.  0.
         25    1    4    4    0    0  0.20750543675E+02 -0.52944567876E+02  0.61607526649E+02  0.15058787392E+03  0.12509000000E+03 0.  0.
         25    1    4    4    0    0 -0.31333904084E+02  0.90591077032E+01  0.49332880523E+02  0.13836589962E+03  0.12509000000E+03 0.  0.
<mgrwt>
<rscale>  2 0.45113050E+03</rscale>
<asrwt>0</asrwt>
<pdfrwt beam="1">  1       21 0.34485027E-01 0.45113050E+03</pdfrwt>
<pdfrwt beam="2">  1       21 0.31907736E-01 0.45113050E+03</pdfrwt>
<totfact> 0.70971142E+04</totfact>
</mgrwt>
</event>
<event>
 7    0  0.4707675E-002  0.4285846E+03  0.7546771E-02  0.1034308E+00
         21   -1    0    0  502  501  0.00000000000E+00  0.00000000000E+00  0.47237709875E+03  0.47237709875E+03  0.00000000000E+00 0. -1.
         21   -1    0    0  501  502 -0.00000000000E+00 -0.00000000000E+00 -0.97212993364E+02  0.97212993364E+02  0.00000000000E+00 0. -1.
      99926    2    1    2    0    0  0.00000000000E+00  0.00000000000E+00  0.37516410539E+03  0.56959009212E+03  0.42858460899E+03 0.  0.
      99925    2    3    3    0    0 -0.70777697265E+02 -0.32232504032E+02  0.19307266850E+03  0.33538245724E+03  0.26297513296E+03 0.  0.
         25    1    4    4    0    0  0.41712213840E+01 -0.26331830008E+02  0.81265971984E+02  0.15153359582E+03  0.12509000000E+03 0.  0.
         25    1    3    3    0    0  0.70777697265E+02  0.32232504032E+02  0.18209143689E+03  0.23420763487E+03  0.12509000000E+03 0.  0.
         25    1    4    4    0    0 -0.74948918649E+02 -0.59006740243E+01  0.11180669652E+03  0.18384886143E+03  0.12509000000E+03 0.  0.
<mgrwt>
<rscale>  2 0.42858461E+03</rscale>
<asrwt>0</asrwt>
<pdfrwt beam="1">  1       21 0.69467220E-01 0.42858461E+03</pdfrwt>
<pdfrwt beam="2">  1       21 0.14296029E-01 0.42858461E+03</pdfrwt>
<totfact> 0.75087792E+04</totfact>
</mgrwt>
</event>
<event>
 7    0  0.4707675E-002  0.4510605E+03  0.7546771E-02  0.1027406E+00
         21   -1    0    0  502  501  0.00000000000E+00  0.00000000000E+00  0.19425250580E+03  0.19425250580E+03  0.00000000000E+00 0. -1.
         21   -1    0    0  501  502 -0.00000000000E+00 -0.00000000000E+00 -0.26184426556E+03  0.26184426556E+03  0.00000000000E+00 0. -1.
      99926    2    1    2    0    0  0.00000000000E+00 -0.17763568394E-14 -0.67591759758E+02  0.45609677136E+03  0.45106054899E+03 0.  0.
      99925    2    3    3    0    0  0.10837583535E+03  0.57845748190E+01 -0.56639617293E+02  0.29012616999E+03  0.26303301176E+03 0.  0.
         25    1    4    4    0    0  0.36136143300E+02 -0.19677497273E+02  0.31732764621E+01  0.13172168589E+03  0.12509000000E+03 0.  0.
         25    1    3    3    0    0 -0.10837583535E+03 -0.57845748190E+01 -0.10952142464E+02  0.16597060137E+03  0.12509000000E+03 0.  0.
         25    1    4    4    0    0  0.72239692048E+02  0.25462072092E+02 -0.59812893756E+02  0.15840448410E+03  0.12509000000E+03 0.  0.
<mgrwt>
<rscale>  2 0.45106055E+03</rscale>
<asrwt>0</asrwt>
<pdfrwt beam="1">  1       21 0.28566545E-01 0.45106055E+03</pdfrwt>
<pdfrwt beam="2">  1       21 0.38506510E-01 0.45106055E+03</pdfrwt>
<totfact> 0.70659840E+04</totfact>
</mgrwt>
</event>
<event>
 7    0  0.4707675E-002  0.4593071E+03  0.7546771E-02  0.1024982E+00
         21   -1    0    0  502  501  0.00000000000E+00  0.00000000000E+00  0.77078613195E+02  0.77078613195E+02  0.00000000000E+00 0. -1.
         21   -1    0    0  501  502 -0.00000000000E+00 -0.00000000000E+00 -0.68424639763E+03  0.68424639763E+03  0.00000000000E+00 0. -1.
      99926    2    1    2    0    0  0.00000000000E+00  0.00000000000E+00 -0.60716778443E+03  0.76132501083E+03  0.45930714522E+03 0.  0.
      99925    2    3    3    0    0 -0.24097216280E+02  0.76148900109E+02 -0.23865440474E+03  0.36404809238E+03  0.26305086550E+03 0.  0.
         25    1    4    4    0    0  0.11240041684E+02  0.32551660095E+02 -0.15997376271E+03  0.20597344966E+03  0.12509000000E+03 0.  0.
         25    1    3    3    0    0  0.24097216280E+02 -0.76148900109E+02 -0.36851337969E+03  0.39727691845E+03  0.12509000000E+03 0.  0.
         25    1    4    4    0    0 -0.35337257964E+02  0.43597240015E+02 -0.78680642035E+02  0.15807464271E+03  0.12509000000E+03 0.  0.
<mgrwt>
<rscale>  2 0.45930715E+03</rscale>
<asrwt>0</asrwt>
<pdfrwt beam="1">  1       21 0.11335089E-01 0.45930715E+03</pdfrwt>
<pdfrwt beam="2">  1       21 0.10062448E+00 0.45930715E+03</pdfrwt>
<totfact> 0.48046528E+04</totfact>
</mgrwt>
</event>
<event>
 7    0  0.4707675E-002  0.4542591E+03  0.7546771E-02  0.1026460E+00
         21   -1    0    0  502  501  0.00000000000E+00  0.00000000000E+00  0.40789807758E+03  0.40789807758E+03  0.00000000000E+00 0.  1.
         21   -1    0    0  501  502 -0.00000000000E+00 -0.00000000000E+00 -0.12647235280E+03  0.12647235280E+03  0.00000000000E+00 0.  1.
      99926    2    1    2    0    0  0.00000000000E+00  0.71054273576E-14  0.28142572478E+03  0.53437043039E+03  0.45425908720E+03 0.  0.
      99925    2    3    3    0    0  0.90145043145E+02 -0.53512684048E+02  0.12926913331E+03  0.31123622730E+03  0.26299761254E+03 0.  0.
         25    1    3    3    0    0 -0.90145043145E+02  0.53512684048E+02  0.15215659148E+03  0.22313420309E+03  0.12509000000E+03 0.  0.
         25    1    4    4    0    0  0.19850521386E+02 -0.55654077886E+02  0.78202174725E+02  0.15891666941E+03  0.12509000000E+03 0.  0.
         25    1    4    4    0    0  0.70294521759E+02  0.21413938387E+01  0.51066958581E+02  0.15231955789E+03  0.12509000000E+03 0.  0.
<mgrwt>
<rscale>  2 0.45425909E+03</rscale>
<asrwt>0</asrwt>
<pdfrwt beam="1">  1       21 0.59985011E-01 0.45425909E+03</pdfrwt>
<pdfrwt beam="2">  1       21 0.18598875E-01 0.45425909E+03</pdfrwt>
<totfact> 0.63281581E+04</totfact>
</mgrwt>
</event>
<event>
 7    0  0.4707675E-002  0.4624926E+03  0.7546771E-02  0.1024061E+00
         21   -1    0    0  502  501  0.00000000000E+00  0.00000000000E+00  0.60456379860E+03  0.60456379860E+03  0.00000000000E+00 0.  1.
         21   -1    0    0  501  502 -0.00000000000E+00 -0.00000000000E+00 -0.88451953489E+02  0.88451953489E+02  0.00000000000E+00 0.  1.
      99926    2    1    2    0    0  0.00000000000E+00  0.00000000000E+00  0.51611184511E+03  0.69301575209E+03  0.46249259019E+03 0.  0.
      99925    2    3    3    0    0  0.24990485456E+02  0.80351967380E+02  0.45097209024E+03  0.52878524704E+03  0.26297727712E+03 0.  0.
         25    1    3    3    0    0 -0.24990485456E+02 -0.80351967380E+02  0.65139754871E+02  0.16423050505E+03  0.12509000000E+03 0.  0.
         25    1    4    4    0    0 -0.64208325746E+01  0.23459488168E+02  0.27673433684E+03  0.30466535077E+03  0.12509000000E+03 0.  0.
         25    1    4    4    0    0  0.31411318031E+02  0.56892479212E+02  0.17423775340E+03  0.22411989627E+03  0.12509000000E+03 0.  0.
<mgrwt>
<rscale>  2 0.46249259E+03</rscale>
<asrwt>0</asrwt>
<pdfrwt beam="1">  1       21 0.88906439E-01 0.46249259E+03</pdfrwt>
<pdfrwt beam="2">  1       21 0.13007641E-01 0.46249259E+03</pdfrwt>
<totfact> 0.50253294E+04</totfact>
</mgrwt>
</event>
<event>
 7    0  0.4707675E-002  0.4507602E+03  0.7546771E-02  0.1027496E+00
         21   -1    0    0  502  501  0.00000000000E+00  0.00000000000E+00  0.47430110350E+02  0.47430110350E+02  0.00000000000E+00 0. -1.
         21   -1    0    0  501  502 -0.00000000000E+00 -0.00000000000E+00 -0.10709692407E+04  0.10709692407E+04  0.00000000000E+00 0. -1.
      99926    2    1    2    0    0  0.00000000000E+00 -0.14210854715E-13 -0.10235391303E+04  0.11183993510E+04  0.45076019907E+03 0.  0.
      99925    2    3    3    0    0 -0.72595077266E+02  0.77869758687E+02 -0.70950771475E+03  0.76400270511E+03  0.26261224567E+03 0.  0.
         25    1    3    3    0    0  0.72595077266E+02 -0.77869758687E+02 -0.31403141557E+03  0.35439664590E+03  0.12509000000E+03 0.  0.
         25    1    4    4    0    0 -0.28379163268E+02  0.71523344850E+02 -0.31078994593E+03  0.34374243898E+03  0.12509000000E+03 0.  0.
         25    1    4    4    0    0 -0.44215913998E+02  0.63464138370E+01 -0.39871776882E+03  0.42026026613E+03  0.12509000000E+03 0.  0.
<mgrwt>
<rscale>  2 0.45076020E+03</rscale>
<asrwt>0</asrwt>
<pdfrwt beam="1">  1       21 0.69750160E-02 0.45076020E+03</pdfrwt>
<pdfrwt beam="2">  1       21 0.15749548E+00 0.45076020E+03</pdfrwt>
<totfact> 0.36031465E+04</totfact>
</mgrwt>
</event>
<event>
 7    0  0.4707675E-002  0.4576071E+03  0.7546771E-02  0.1025478E+00
         21   -1    0    0  502  501  0.00000000000E+00  0.00000000000E+00  0.19140190908E+04  0.19140190908E+04  0.00000000000E+00 0. -1.
         21   -1    0    0  501  502 -0.00000000000E+00 -0.00000000000E+00 -0.27351385754E+02  0.27351385754E+02  0.00000000000E+00 0. -1.
      99926    2    1    2    0    0  0.00000000000E+00  0.00000000000E+00  0.18866677050E+04  0.19413704765E+04  0.45760714370E+03 0.  0.
      99925    2    3    3    0    0 -0.77203529821E+02 -0.53426577074E+02  0.14707987207E+04  0.14970628080E+04  0.26293229151E+03 0.  0.
         25    1    4    4    0    0 -0.56432174444E+01 -0.50309141610E+02  0.69114265984E+03  0.70419353872E+03  0.12509000000E+03 0.  0.
         25    1    3    3    0    0  0.77203529821E+02  0.53426577074E+02  0.41586898429E+03  0.44430766856E+03  0.12509000000E+03 0.  0.
         25    1    4    4    0    0 -0.71560312376E+02 -0.31174354645E+01  0.77965606088E+03  0.79286926923E+03  0.12509000000E+03 0.  0.
<mgrwt>
<rscale>  2 0.45760714E+03</rscale>
<asrwt>0</asrwt>
<pdfrwt beam="1">  1       21 0.28147331E+00 0.45760714E+03</pdfrwt>
<pdfrwt beam="2">  1       21 0.40222639E-02 0.45760714E+03</pdfrwt>
<totfact> 0.14397316E+04</totfact>
</mgrwt>
</event>
<event>
 7    0  0.4707675E-002  0.4529992E+03  0.7546771E-02  0.1026831E+00
         21   -1    0    0  502  501  0.00000000000E+00  0.00000000000E+00  0.35161187553E+03  0.35161187553E+03  0.00000000000E+00 0.  1.
         21   -1    0    0  501  502 -0.00000000000E+00 -0.00000000000E+00 -0.14590542486E+03  0.14590542486E+03  0.00000000000E+00 0.  1.
      99926    2    1    2    0    0 -0.71054273576E-14 -0.17763568394E-14  0.20570645067E+03  0.49751730039E+03  0.45299924982E+03 0.  0.
      99925    2    3    3    0    0 -0.37543554025E+02  0.68809473656E+01  0.24449630853E+03  0.36110239263E+03  0.26298218037E+03 0.  0.
         25    1    4    4    0    0 -0.11207329314E+02  0.33642011207E+02  0.15723980783E+03  0.20403248372E+03  0.12509000000E+03 0.  0.
         25    1    4    4    0    0 -0.26336224711E+02 -0.26761063841E+02  0.87256500700E+02  0.15706990891E+03  0.12509000000E+03 0.  0.
         25    1    3    3    0    0  0.37543554025E+02 -0.68809473656E+01 -0.38789857857E+02  0.13641490776E+03  0.12509000000E+03 0.  0.
<mgrwt>
<rscale>  2 0.45299925E+03</rscale>
<asrwt>0</asrwt>
<pdfrwt beam="1">  1       21 0.51707629E-01 0.45299925E+03</pdfrwt>
<pdfrwt beam="2">  1       21 0.21456680E-01 0.45299925E+03</pdfrwt>
<totfact> 0.66495274E+04</totfact>
</mgrwt>
</event>
<event>
 7    0  0.4707675E-002  0.4402135E+03  0.7546771E-02  0.1030681E+00
         21   -1    0    0  502  501  0.00000000000E+00  0.00000000000E+00  0.43307977281E+03  0.43307977281E+03  0.00000000000E+00 0.  1.
         21   -1    0    0  501  502 -0.00000000000E+00 -0.00000000000E+00 -0.11186618949E+03  0.11186618949E+03  0.00000000000E+00 0.  1.
      99926    2    1    2    0    0  0.00000000000E+00  0.00000000000E+00  0.32121358333E+03  0.54494596230E+03  0.44021351150E+03 0.  0.
      99925    2    3    3    0    0  0.88851188936E+02  0.41151097468E+02  0.18962845180E+03  0.33866920273E+03  0.26296374759E+03 0.  0.
         25    1    3    3    0    0 -0.88851188936E+02 -0.41151097468E+02  0.13158513153E+03  0.20627675957E+03  0.12509000000E+03 0.  0.
         25    1    4    4    0    0  0.70320500753E+02  0.53279799599E+01  0.13238967374E+03  0.19531485865E+03  0.12509000000E+03 0.  0.
         25    1    4    4    0    0  0.18530688182E+02  0.35823117508E+02  0.57238778054E+02  0.14335434408E+03  0.12509000000E+03 0.  0.
<mgrwt>
<rscale>  2 0.44021351E+03</rscale>
<asrwt>0</asrwt>
<pdfrwt beam="1">  1       21 0.63688201E-01 0.44021351E+03</pdfrwt>
<pdfrwt beam="2">  1       21 0.16450910E-01 0.44021351E+03</pdfrwt>
<totfact> 0.70044334E+04</totfact>
</mgrwt>
</event>
<event>
 7    0  0.4707675E-002  0.4542925E+03  0.7546771E-02  0.1026450E+00
         21   -1    0    0  502  501  0.00000000000E+00  0.00000000000E+00  0.85021724583E+02  0.85021724583E+02  0.00000000000E+00 0.  1.
         21   -1    0    0  501  502 -0.00000000000E+00 -0.00000000000E+00 -0.60684973147E+03  0.60684973147E+03  0.00000000000E+00 0.  1.
      99926    2    1    2    0    0  0.00000000000E+00  0.00000000000E+00 -0.52182800689E+03  0.69187145606E+03  0.45429246409E+03 0.  0.
      99925    2    3    3    0    0  0.56854639007E+02 -0.49237327998E+02 -0.45607065031E+03  0.53178303521E+03  0.26293724349E+03 0.  0.
         25    1    4    4    0    0  0.55052805609E+02  0.25567086043E+01 -0.25587354910E+03  0.29009675868E+03  0.12509000000E+03 0.  0.
         25    1    3    3    0    0 -0.56854639007E+02  0.49237327998E+02 -0.65757356576E+02  0.16008842085E+03  0.12509000000E+03 0.  0.
         25    1    4    4    0    0  0.18018333977E+01 -0.51794036602E+02 -0.20019710121E+03  0.24168627653E+03  0.12509000000E+03 0.  0.
<mgrwt>
<rscale>  2 0.45429246E+03</rscale>
<asrwt>0</asrwt>
<pdfrwt beam="1">  1       21 0.12503195E-01 0.45429246E+03</pdfrwt>
<pdfrwt beam="2">  1       21 0.89242607E-01 0.45429246E+03</pdfrwt>
<totfact> 0.53644727E+04</totfact>
</mgrwt>
</event>
<event>
 7    0  0.4707675E-002  0.4568005E+03  0.7546771E-02  0.1025713E+00
         21   -1    0    0  502  501  0.00000000000E+00  0.00000000000E+00  0.33685475080E+02  0.33685475080E+02  0.00000000000E+00 0. -1.
         21   -1    0    0  501  502 -0.00000000000E+00 -0.00000000000E+00 -0.15486401827E+04  0.15486401827E+04  0.00000000000E+00 0. -1.
      99926    2    1    2    0    0 -0.17763568394E-14  0.00000000000E+00 -0.15149547076E+04  0.15823256578E+04  0.45680052663E+03 0.  0.
      99925    2    3    3    0    0 -0.11667230996E+02 -0.56819808348E+02 -0.12949486108E+04  0.13226820451E+04  0.26311836261E+03 0.  0.
         25    1    3    3    0    0  0.11667230996E+02  0.56819808348E+02 -0.22000609679E+03  0.25964361271E+03  0.12509000000E+03 0.  0.
         25    1    4    4    0    0 -0.14582570976E+02  0.10642914856E+02 -0.66357305330E+03  0.67550176031E+03  0.12509000000E+03 0.  0.
         25    1    4    4    0    0  0.29153399805E+01 -0.67462723204E+02 -0.63137555753E+03  0.64718028476E+03  0.12509000000E+03 0.  0.
<mgrwt>
<rscale>  2 0.45680053E+03</rscale>
<asrwt>0</asrwt>
<pdfrwt beam="1">  1       21 0.49537470E-02 0.45680053E+03</pdfrwt>
<pdfrwt beam="2">  1       21 0.22774117E+00 0.45680053E+03</pdfrwt>
<totfact> 0.21528996E+04</totfact>
</mgrwt>
</event>
<event>
 6    0  0.4707675E-002  0.4620724E+03  0.7546771E-02  0.1024182E+00
         21   -1    0    0  502  501  0.00000000000E+00  0.00000000000E+00  0.32071982773E+03  0.32071982773E+03  0.00000000000E+00 0.  1.
         21   -1    0    0  501  502 -0.00000000000E+00 -0.00000000000E+00 -0.16643103374E+03  0.16643103374E+03  0.00000000000E+00 0.  1.
      99926    2    1    2    0    0 -0.35527136788E-14  0.00000000000E+00  0.15428879400E+03  0.48715086147E+03  0.46207242925E+03 0.  0.
         25    1    3    3    0    0  0.28187998093E+02 -0.77010901692E+02 -0.27213659014E+02  0.15203069938E+03  0.12509000000E+03 0.  0.
         25    1    3    3    0    0 -0.25472558990E+02  0.89181161542E+02  0.10784124791E+03  0.18941851464E+03  0.12509000000E+03 0.  0.
         25    1    3    3    0    0 -0.27154391038E+01 -0.12170259850E+02  0.73661205096E+02  0.14570164745E+03  0.12509000000E+03 0.  0.
<mgrwt>
<rscale>  2 0.46207243E+03</rscale>
<asrwt>0</asrwt>
<pdfrwt beam="1">  1       21 0.47164680E-01 0.46207243E+03</pdfrwt>
<pdfrwt beam="2">  1       21 0.24475152E-01 0.46207243E+03</pdfrwt>
<totfact> 0.62594504E+04</totfact>
</mgrwt>
</event>
<event>
 7    0  0.4707675E-002  0.4472497E+03  0.7546771E-02  0.1028545E+00
         21   -1    0    0  502  501  0.00000000000E+00  0.00000000000E+00  0.48137506021E+02  0.48137506021E+02  0.00000000000E+00 0.  1.
         21   -1    0    0  501  502 -0.00000000000E+00 -0.00000000000E+00 -0.10388589017E+04  0.10388589017E+04  0.00000000000E+00 0.  1.
      99926    2    1    2    0    0  0.00000000000E+00  0.00000000000E+00 -0.99072139569E+03  0.10869964077E+04  0.44724971386E+03 0.  0.
      99925    2    3    3    0    0 -0.69736656411E+02  0.35499175992E+02 -0.80090882891E+03  0.84658070244E+03  0.26290785605E+03 0.  0.
         25    1    3    3    0    0  0.69736656411E+02 -0.35499175992E+02 -0.18981256678E+03  0.24041570530E+03  0.12509000000E+03 0.  0.
         25    1    4    4    0    0 -0.52580238976E+02  0.26462431701E+02 -0.52708273287E+03  0.54491160495E+03  0.12509000000E+03 0.  0.
         25    1    4    4    0    0 -0.17156417435E+02  0.90367442905E+01 -0.27382609604E+03  0.30166909748E+03  0.12509000000E+03 0.  0.
<mgrwt>
<rscale>  2 0.44724971E+03</rscale>
<asrwt>0</asrwt>
<pdfrwt beam="1">  1       21 0.70790446E-02 0.44724971E+03</pdfrwt>
<pdfrwt beam="2">  1       21 0.15277338E+00 0.44724971E+03</pdfrwt>
<totfact> 0.38206977E+04</totfact>
</mgrwt>
</event>
<event>
 7    0  0.4707675E-002  0.4568593E+03  0.7546771E-02  0.1025696E+00
         21   -1    0    0  502  501  0.00000000000E+00  0.00000000000E+00  0.37071937854E+02  0.37071937854E+02  0.00000000000E+00 0. -1.
         21   -1    0    0  501  502 -0.00000000000E+00 -0.00000000000E+00 -0.14075366883E+04  0.14075366883E+04  0.00000000000E+00 0. -1.
      99926    2    1    2    0    0  0.00000000000E+00  0.35527136788E-14 -0.13704647504E+04  0.14446086261E+04  0.45685933343E+03 0.  0.
      99925    2    3    3    0    0  0.93973217027E+02  0.28065058126E+02 -0.67176890839E+03  0.72805995313E+03  0.26301942146E+03 0.  0.
         25    1    4    4    0    0  0.35144984874E+02  0.92393671345E+01 -0.22467094158E+03  0.25970189825E+03  0.12509000000E+03 0.  0.
         25    1    4    4    0    0  0.58828232153E+02  0.18825690992E+02 -0.44709796681E+03  0.46835805488E+03  0.12509000000E+03 0.  0.
         25    1    3    3    0    0 -0.93973217027E+02 -0.28065058126E+02 -0.69869584201E+03  0.71654867298E+03  0.12509000000E+03 0.  0.
<mgrwt>
<rscale>  2 0.45685933E+03</rscale>
<asrwt>0</asrwt>
<pdfrwt beam="1">  1       21 0.54517564E-02 0.45685933E+03</pdfrwt>
<pdfrwt beam="2">  1       21 0.20699066E+00 0.45685933E+03</pdfrwt>
<totfact> 0.24806827E+04</totfact>
</mgrwt>
</event>
<event>
 7    0  0.4707675E-002  0.4545305E+03  0.7546771E-02  0.1026380E+00
         21   -1    0    0  502  501  0.00000000000E+00  0.00000000000E+00  0.23477947249E+03  0.23477947249E+03  0.00000000000E+00 0. -1.
         21   -1    0    0  501  502 -0.00000000000E+00 -0.00000000000E+00 -0.21999155911E+03  0.21999155911E+03  0.00000000000E+00 0. -1.
      99926    2    1    2    0    0 -0.14210854715E-13  0.00000000000E+00  0.14787913386E+02  0.45477103160E+03  0.45453053671E+03 0.  0.
      99925    2    3    3    0    0 -0.70092423941E+02 -0.86308930577E+02 -0.91586825524E+01  0.28570557993E+03  0.26302398664E+03 0.  0.
         25    1    3    3    0    0  0.70092423941E+02  0.86308930577E+02  0.23946595938E+02  0.16906545167E+03  0.12509000000E+03 0.  0.
         25    1    4    4    0    0 -0.75445727610E+02 -0.51039539054E+02 -0.15220216280E+02  0.15548715524E+03  0.12509000000E+03 0.  0.
         25    1    4    4    0    0  0.53533036689E+01 -0.35269391522E+02  0.60615337274E+01  0.13021842469E+03  0.12509000000E+03 0.  0.
<mgrwt>
<rscale>  2 0.45453054E+03</rscale>
<asrwt>0</asrwt>
<pdfrwt beam="1">  1       21 0.34526393E-01 0.45453054E+03</pdfrwt>
<pdfrwt beam="2">  1       21 0.32351700E-01 0.45453054E+03</pdfrwt>
<totfact> 0.68820008E+04</totfact>
</mgrwt>
</event>
<event>
 7    0  0.4707675E-002  0.4528356E+03  0.7546771E-02  0.1026880E+00
         21   -1    0    0  502  501  0.00000000000E+00  0.00000000000E+00  0.20597721206E+03  0.20597721206E+03  0.00000000000E+00 0.  1.
         21   -1    0    0  501  502 -0.00000000000E+00 -0.00000000000E+00 -0.24888682941E+03  0.24888682941E+03  0.00000000000E+00 0.  1.
      99926    2    1    2    0    0  0.00000000000E+00  0.00000000000E+00 -0.42909617354E+02  0.45486404146E+03  0.45283557828E+03 0.  0.
      99925    2    3    3    0    0 -0.91324765770E+02 -0.10988760461E+02  0.35607953696E+02  0.28087127506E+03  0.26298247296E+03 0.  0.
         25    1    4    4    0    0 -0.79046176347E+02  0.62020708930E+01 -0.34218766834E+01  0.14814175987E+03  0.12509000000E+03 0.  0.
         25    1    3    3    0    0  0.91324765770E+02  0.10988760461E+02 -0.78517571050E+02  0.17399276641E+03  0.12509000000E+03 0.  0.
         25    1    4    4    0    0 -0.12278589423E+02 -0.17190831354E+02  0.39029830379E+02  0.13272951518E+03  0.12509000000E+03 0.  0.
<mgrwt>
<rscale>  2 0.45283558E+03</rscale>
<asrwt>0</asrwt>
<pdfrwt beam="1">  1       21 0.30290767E-01 0.45283558E+03</pdfrwt>
<pdfrwt beam="2">  1       21 0.36601004E-01 0.45283558E+03</pdfrwt>
<totfact> 0.69752561E+04</totfact>
</mgrwt>
</event>
<event>
 7    0  0.4707675E-002  0.4526644E+03  0.7546771E-02  0.1026930E+00
         21   -1    0    0  502  501  0.00000000000E+00  0.00000000000E+00  0.16733000846E+03  0.16733000846E+03  0.00000000000E+00 0.  1.
         21   -1    0    0  501  502 -0.00000000000E+00 -0.00000000000E+00 -0.30613916046E+03  0.30613916046E+03  0.00000000000E+00 0.  1.
      99926    2    1    2    0    0  0.00000000000E+00  0.00000000000E+00 -0.13880915200E+03  0.47346916892E+03  0.45266441570E+03 0.  0.
      99925    2    3    3    0    0  0.97527737791E+02 -0.25725799529E+02 -0.39066573013E+02  0.28434072959E+03  0.26296383207E+03 0.  0.
         25    1    3    3    0    0 -0.97527737791E+02  0.25725799529E+02 -0.99742578984E+02  0.18912843933E+03  0.12509000000E+03 0.  0.
         25    1    4    4    0    0  0.64739700628E+02 -0.40961926243E+02  0.52953554400E+01  0.14678098354E+03  0.12509000000E+03 0.  0.
         25    1    4    4    0    0  0.32788037163E+02  0.15236126714E+02 -0.44361928453E+02  0.13755974605E+03  0.12509000000E+03 0.  0.
<mgrwt>
<rscale>  2 0.45266442E+03</rscale>
<asrwt>0</asrwt>
<pdfrwt beam="1">  1       21 0.24607354E-01 0.45266442E+03</pdfrwt>
<pdfrwt beam="2">  1       21 0.45020465E-01 0.45266442E+03</pdfrwt>
<totfact> 0.68438376E+04</totfact>
</mgrwt>
</event>
<event>
 7    0  0.4707675E-002  0.4546360E+03  0.7546771E-02  0.1026348E+00
         21   -1    0    0  502  501  0.00000000000E+00  0.00000000000E+00  0.89478269778E+03  0.89478269778E+03  0.00000000000E+00 0. -1.
         21   -1    0    0  501  502 -0.00000000000E+00 -0.00000000000E+00 -0.57749749719E+02  0.57749749719E+02  0.00000000000E+00 0. -1.
      99926    2    1    2    0    0  0.00000000000E+00  0.00000000000E+00  0.83703294806E+03  0.95253244749E+03  0.45463601639E+03 0.  0.
      99925    2    3    3    0    0 -0.82089928754E+02  0.63883884358E+02  0.61662309404E+03  0.67858369511E+03  0.26349930566E+03 0.  0.
         25    1    3    3    0    0  0.82089928754E+02 -0.63883884358E+02  0.22040985401E+03  0.27394875238E+03  0.12509000000E+03 0.  0.
         25    1    4    4    0    0 -0.28267956465E+02 -0.79269383595E+01  0.25457361686E+03  0.28516161771E+03  0.12509000000E+03 0.  0.
         25    1    4    4    0    0 -0.53821972288E+02  0.71810822718E+02  0.36204947719E+03  0.39342207741E+03  0.12509000000E+03 0.  0.
<mgrwt>
<rscale>  2 0.45463602E+03</rscale>
<asrwt>0</asrwt>
<pdfrwt beam="1">  1       21 0.13158568E+00 0.45463602E+03</pdfrwt>
<pdfrwt beam="2">  1       21 0.84926108E-02 0.45463602E+03</pdfrwt>
<totfact> 0.41155451E+04</totfact>
</mgrwt>
</event>
<event>
 7    0  0.4707675E-002  0.4562095E+03  0.7546771E-02  0.1025886E+00
         21   -1    0    0  502  501  0.00000000000E+00  0.00000000000E+00  0.72413155152E+03  0.72413155152E+03  0.00000000000E+00 0. -1.
         21   -1    0    0  501  502 -0.00000000000E+00 -0.00000000000E+00 -0.71854028615E+02  0.71854028615E+02  0.00000000000E+00 0. -1.
      99926    2    1    2    0    0  0.00000000000E+00  0.00000000000E+00  0.65227752290E+03  0.79598558013E+03  0.45620946603E+03 0.  0.
      99925    2    3    3    0    0  0.91031793944E+02 -0.67834452324E+02  0.43431300310E+03  0.52022419701E+03  0.26290136945E+03 0.  0.
         25    1    3    3    0    0 -0.91031793944E+02  0.67834452324E+02  0.21796451980E+03  0.27576138312E+03  0.12509000000E+03 0.  0.
         25    1    4    4    0    0  0.63041847161E+01 -0.15757033691E+02  0.17946769692E+03  0.21941784156E+03  0.12509000000E+03 0.  0.
         25    1    4    4    0    0  0.84727609228E+02 -0.52077418633E+02  0.25484530618E+03  0.30080635545E+03  0.12509000000E+03 0.  0.
<mgrwt>
<rscale>  2 0.45620947E+03</rscale>
<asrwt>0</asrwt>
<pdfrwt beam="1">  1       21 0.10648993E+00 0.45620947E+03</pdfrwt>
<pdfrwt beam="2">  1       21 0.10566769E-01 0.45620947E+03</pdfrwt>
<totfact> 0.47507058E+04</totfact>
</mgrwt>
</event>
<event>
 7    0  0.4707675E-002  0.4091883E+03  0.7546771E-02  0.1040644E+00
         21   -1    0    0  502  501  0.00000000000E+00  0.00000000000E+00  0.25954898734E+04  0.25954898734E+04  0.00000000000E+00 0.  1.
         21   -1    0    0  501  502 -0.00000000000E+00 -0.00000000000E+00 -0.16127504187E+02  0.16127504187E+02  0.00000000000E+00 0.  1.
      99926    2    1    2    0    0  0.35527136788E-14  0.00000000000E+00  0.25793623692E+04  0.26116173776E+04  0.40918833708E+03 0.  0.
      99925    2    3    3    0    0  0.18140161961E+02  0.18235943974E+02  0.20555316093E+04  0.20724441324E+04  0.26296933322E+03 0.  0.
         25    1    4    4    0    0 -0.22743196271E+01 -0.12453811439E+02  0.12645025992E+04  0.12707378177E+04  0.12509000000E+03 0.  0.
         25    1    3    3    0    0 -0.18140161961E+02 -0.18235943974E+02  0.52383075993E+03  0.53917324514E+03  0.12509000000E+03 0.  0.
         25    1    4    4    0    0  0.20414481589E+02  0.30689755413E+02  0.79102901012E+03  0.80170631474E+03  0.12509000000E+03 0.  0.
<mgrwt>
<rscale>  2 0.40918834E+03</rscale>
<asrwt>0</asrwt>
<pdfrwt beam="1">  1       21 0.38168940E+00 0.40918834E+03</pdfrwt>
<pdfrwt beam="2">  1       21 0.23716936E-02 0.40918834E+03</pdfrwt>
<totfact> 0.87962693E+03</totfact>
</mgrwt>
</event>
<event>
 7    0  0.4707675E-002  0.4562322E+03  0.7546771E-02  0.1025880E+00
         21   -1    0    0  502  501  0.00000000000E+00  0.00000000000E+00  0.41574125077E+03  0.41574125077E+03  0.00000000000E+00 0.  1.
         21   -1    0    0  501  502 -0.00000000000E+00 -0.00000000000E+00 -0.12516667146E+03  0.12516667146E+03  0.00000000000E+00 0.  1.
      99926    2    1    2    0    0  0.00000000000E+00  0.14210854715E-13  0.29057457932E+03  0.54090792223E+03  0.45623217136E+03 0.  0.
      99925    2    3    3    0    0 -0.75455123938E+02 -0.74533098389E+02  0.23307932191E+03  0.36712106654E+03  0.26306510357E+03 0.  0.
         25    1    4    4    0    0 -0.38418950183E+02 -0.78670377821E+02  0.11552594995E+03  0.19146487222E+03  0.12509000000E+03 0.  0.
         25    1    4    4    0    0 -0.37036173755E+02  0.41372794324E+01  0.11755337196E+03  0.17565619433E+03  0.12509000000E+03 0.  0.
         25    1    3    3    0    0  0.75455123938E+02  0.74533098389E+02  0.57495257405E+02  0.17378685568E+03  0.12509000000E+03 0.  0.
<mgrwt>
<rscale>  2 0.45623217E+03</rscale>
<asrwt>0</asrwt>
<pdfrwt beam="1">  1       21 0.61138419E-01 0.45623217E+03</pdfrwt>
<pdfrwt beam="2">  1       21 0.18406864E-01 0.45623217E+03</pdfrwt>
<totfact> 0.61865881E+04</totfact>
</mgrwt>
</event>
<event>
 7    0  0.4707675E-002  0.4582844E+03  0.7546771E-02  0.1025280E+00
         21   -1    0    0  502  501  0.00000000000E+00  0.00000000000E+00  0.54987993674E+03  0.54987993674E+03  0.00000000000E+00 0. -1.
         21   -1    0    0  501  502 -0.00000000000E+00 -0.00000000000E+00 -0.95486578636E+02  0.95486578636E+02  0.00000000000E+00 0. -1.
      99926    2    1    2    0    0  0.00000000000E+00  0.00000000000E+00  0.45439335811E+03  0.64536651538E+03  0.45828442618E+03 0.  0.
      99925    2    3    3    0    0  0.11234250187E+03 -0.29591563612E+02  0.28777860177E+03  0.40681990883E+03  0.26303881125E+03 0.  0.
         25    1    4    4    0    0  0.17040703764E+02  0.41805202383E+01  0.13720188245E+03  0.18649323575E+03  0.12509000000E+03 0.  0.
         25    1    3    3    0    0 -0.11234250187E+03  0.29591563612E+02  0.16661475634E+03  0.23854660654E+03  0.12509000000E+03 0.  0.
         25    1    4    4    0    0  0.95301798109E+02 -0.33772083850E+02  0.15057671932E+03  0.22032667308E+03  0.12509000000E+03 0.  0.
<mgrwt>
<rscale>  2 0.45828443E+03</rscale>
<asrwt>0</asrwt>
<pdfrwt beam="1">  1       21 0.80864695E-01 0.45828443E+03</pdfrwt>
<pdfrwt beam="2">  1       21 0.14042144E-01 0.45828443E+03</pdfrwt>
<totfact> 0.54541938E+04</totfact>
</mgrwt>
</event>
<event>
 7    0  0.4707675E-002  0.4543436E+03  0.7546771E-02  0.1026435E+00
         21   -1    0    0  502  501  0.00000000000E+00  0.00000000000E+00  0.19089458915E+03  0.19089458915E+03  0.00000000000E+00 0.  1.
         21   -1    0    0  501  502 -0.00000000000E+00 -0.00000000000E+00 -0.27034305197E+03  0.27034305197E+03  0.00000000000E+00 0.  1.
      99926    2    1    2    0    0  0.00000000000E+00 -0.71054273576E-14 -0.79448462821E+02  0.46123764113E+03  0.45434359613E+03 0.  0.
      99925    2    3    3    0    0  0.76424427396E+02 -0.36770014519E+02  0.25123986971E+02  0.27745616103E+03  0.26297904765E+03 0.  0.
         25    1    4    4    0    0  0.62584536740E+02 -0.50511993806E+02  0.18025222119E+01  0.14872472203E+03  0.12509000000E+03 0.  0.
         25    1    4    4    0    0  0.13839890655E+02  0.13741979287E+02  0.23321464759E+02  0.12873143900E+03  0.12509000000E+03 0.  0.
         25    1    3    3    0    0 -0.76424427396E+02  0.36770014519E+02 -0.10457244979E+03  0.18378148010E+03  0.12509000000E+03 0.  0.
<mgrwt>
<rscale>  2 0.45434360E+03</rscale>
<asrwt>0</asrwt>
<pdfrwt beam="1">  1       21 0.28072734E-01 0.45434360E+03</pdfrwt>
<pdfrwt beam="2">  1       21 0.39756331E-01 0.45434360E+03</pdfrwt>
<totfact> 0.68446758E+04</totfact>
</mgrwt>
</event>
<event>
 7    0  0.4707675E-002  0.4551399E+03  0.7546771E-02  0.1026200E+00
         21   -1    0    0  502  501  0.00000000000E+00  0.00000000000E+00  0.12610745216E+03  0.12610745216E+03  0.00000000000E+00 0. -1.
         21   -1    0    0  501  502 -0.00000000000E+00 -0.00000000000E+00 -0.41066634699E+03  0.41066634699E+03  0.00000000000E+00 0. -1.
      99926    2    1    2    0    0  0.00000000000E+00  0.00000000000E+00 -0.28455889483E+03  0.53677379914E+03  0.45513992005E+03 0.  0.
      99925    2    3    3    0    0 -0.38791138926E+02 -0.83108911436E+02 -0.25763765481E+03  0.37934411680E+03  0.26289342737E+03 0.  0.
         25    1    3    3    0    0  0.38791138926E+02  0.83108911436E+02 -0.26921240016E+02  0.15742968234E+03  0.12509000000E+03 0.  0.
         25    1    4    4    0    0 -0.18665227759E+02 -0.26703633370E+02 -0.73098508975E+02  0.14850042046E+03  0.12509000000E+03 0.  0.
         25    1    4    4    0    0 -0.20125911167E+02 -0.56405278065E+02 -0.18453914584E+03  0.23084369634E+03  0.12509000000E+03 0.  0.
<mgrwt>
<rscale>  2 0.45513992E+03</rscale>
<asrwt>0</asrwt>
<pdfrwt beam="1">  1       21 0.18545214E-01 0.45513992E+03</pdfrwt>
<pdfrwt beam="2">  1       21 0.60392109E-01 0.45513992E+03</pdfrwt>
<totfact> 0.62679621E+04</totfact>
</mgrwt>
</event>
<event>
 7    0  0.4707675E-002  0.4555165E+03  0.7546771E-02  0.1026090E+00
         21   -1    0    0  502  501  0.00000000000E+00  0.00000000000E+00  0.61000908014E+02  0.61000908014E+02  0.00000000000E+00 0.  1.
         21   -1    0    0  501  502 -0.00000000000E+00 -0.00000000000E+00 -0.85037802732E+03  0.85037802732E+03  0.00000000000E+00 0.  1.
      99926    2    1    2    0    0  0.00000000000E+00  0.00000000000E+00 -0.78937711931E+03  0.91137893534E+03  0.45551654996E+03 0.  0.
      99925    2    3    3    0    0  0.76402909157E+02 -0.50582103675E+02 -0.63088725577E+03  0.68965275581E+03  0.26307078966E+03 0.  0.
         25    1    4    4    0    0  0.17009782583E+02  0.55483914523E+01 -0.24107788026E+03  0.27218774734E+03  0.12509000000E+03 0.  0.
         25    1    3    3    0    0 -0.76402909157E+02  0.50582103675E+02 -0.15848986354E+03  0.22172617952E+03  0.12509000000E+03 0.  0.
         25    1    4    4    0    0  0.59393126574E+02 -0.56130495128E+02 -0.38980937551E+03  0.41746500847E+03  0.12509000000E+03 0.  0.
<mgrwt>
<rscale>  2 0.45551655E+03</rscale>
<asrwt>0</asrwt>
<pdfrwt beam="1">  1       21 0.89707225E-02 0.45551655E+03</pdfrwt>
<pdfrwt beam="2">  1       21 0.12505558E+00 0.45551655E+03</pdfrwt>
<totfact> 0.42573013E+04</totfact>
</mgrwt>
</event>
<event>
 7    0  0.4707675E-002  0.4557959E+03  0.7546771E-02  0.1026008E+00
         21   -1    0    0  502  501  0.00000000000E+00  0.00000000000E+00  0.14123167217E+03  0.14123167217E+03  0.00000000000E+00 0. -1.
         21   -1    0    0  501  502 -0.00000000000E+00 -0.00000000000E+00 -0.36774663179E+03  0.36774663179E+03  0.00000000000E+00 0. -1.
      99926    2    1    2    0    0  0.71054273576E-14 -0.14210854715E-13 -0.22651495962E+03  0.50897830396E+03  0.45579588301E+03 0.  0.
      99925    2    3    3    0    0  0.32128378337E+02 -0.96820878992E+02 -0.19821827226E+03  0.34510418789E+03  0.26343861094E+03 0.  0.
         25    1    4    4    0    0  0.42077303807E+02 -0.83695617856E+02 -0.10637096682E+03  0.18904429805E+03  0.12509000000E+03 0.  0.
         25    1    4    4    0    0 -0.99489254698E+01 -0.13125261137E+02 -0.91847305445E+02  0.15605988984E+03  0.12509000000E+03 0.  0.
         25    1    3    3    0    0 -0.32128378337E+02  0.96820878992E+02 -0.28296687358E+02  0.16387411607E+03  0.12509000000E+03 0.  0.
<mgrwt>
<rscale>  2 0.45579588E+03</rscale>
<asrwt>0</asrwt>
<pdfrwt beam="1">  1       21 0.20769363E-01 0.45579588E+03</pdfrwt>
<pdfrwt beam="2">  1       21 0.54080387E-01 0.45579588E+03</pdfrwt>
<totfact> 0.64237675E+04</totfact>
</mgrwt>
</event>
<event>
 7    0  0.4707675E-002  0.4560543E+03  0.7546771E-02  0.1025932E+00
         21   -1    0    0  502  501  0.00000000000E+00  0.00000000000E+00  0.14367646248E+03  0.14367646248E+03  0.00000000000E+00 0.  1.
         21   -1    0    0  501  502 -0.00000000000E+00 -0.00000000000E+00 -0.36189912426E+03  0.36189912426E+03  0.00000000000E+00 0.  1.
      99926    2    1    2    0    0  0.00000000000E+00 -0.14210854715E-13 -0.21822266178E+03  0.50557558675E+03  0.45605432111E+03 0.  0.
      99925    2    3    3    0    0 -0.67678503602E+02  0.87960935372E+02 -0.10756738943E+03  0.30505226291E+03  0.26299930388E+03 0.  0.
         25    1    3    3    0    0  0.67678503602E+02 -0.87960935372E+02 -0.11065527235E+03  0.20052332383E+03  0.12509000000E+03 0.  0.
         25    1    4    4    0    0 -0.21700965225E+02  0.12221302516E+02 -0.21786386741E+02  0.12939260749E+03  0.12509000000E+03 0.  0.
         25    1    4    4    0    0 -0.45977538377E+02  0.75739632856E+02 -0.85781002687E+02  0.17565965542E+03  0.12509000000E+03 0.  0.
<mgrwt>
<rscale>  2 0.45605432E+03</rscale>
<asrwt>0</asrwt>
<pdfrwt beam="1">  1       21 0.21128892E-01 0.45605432E+03</pdfrwt>
<pdfrwt beam="2">  1       21 0.53220459E-01 0.45605432E+03</pdfrwt>
<totfact> 0.64340589E+04</totfact>
</mgrwt>
</event>
<event>
 7    0  0.4707675E-002  0.4537837E+03  0.7546771E-02  0.1026600E+00
         21   -1    0    0  502  501  0.00000000000E+00  0.00000000000E+00  0.39484415761E+03  0.39484415761E+03  0.00000000000E+00 0. -1.
         21   -1    0    0  501  502 -0.00000000000E+00 -0.00000000000E+00 -0.13038033505E+03  0.13038033505E+03  0.00000000000E+00 0. -1.
      99926    2    1    2    0    0  0.00000000000E+00  0.71054273576E-14  0.26446382255E+03  0.52522449266E+03  0.45378370867E+03 0.  0.
      99925    2    3    3    0    0 -0.80571079277E+02  0.49703203189E+02  0.97425118946E+02  0.29607051860E+03  0.26306651433E+03 0.  0.
         25    1    4    4    0    0 -0.63974085426E+02  0.50253798429E+01  0.21642613556E+02  0.14224573410E+03  0.12509000000E+03 0.  0.
         25    1    3    3    0    0  0.80571079277E+02 -0.49703203189E+02  0.16703870361E+03  0.22915397406E+03  0.12509000000E+03 0.  0.
         25    1    4    4    0    0 -0.16596993851E+02  0.44677823346E+02  0.75782505391E+02  0.15382478450E+03  0.12509000000E+03 0.  0.
<mgrwt>
<rscale>  2 0.45378371E+03</rscale>
<asrwt>0</asrwt>
<pdfrwt beam="1">  1       21 0.58065317E-01 0.45378371E+03</pdfrwt>
<pdfrwt beam="2">  1       21 0.19173579E-01 0.45378371E+03</pdfrwt>
<totfact> 0.64147210E+04</totfact>
</mgrwt>
</event>
<event>
 7    0  0.4707675E-002  0.4713316E+03  0.7546771E-02  0.1021545E+00
         21   -1    0    0  502  501  0.00000000000E+00  0.00000000000E+00  0.60856120736E+02  0.60856120736E+02  0.00000000000E+00 0. -1.
         21   -1    0    0  501  502 -0.00000000000E+00 -0.00000000000E+00 -0.91261746980E+03  0.91261746980E+03  0.00000000000E+00 0. -1.
      99926    2    1    2    0    0  0.00000000000E+00  0.14210854715E-13 -0.85176134907E+03  0.97347359054E+03  0.47133155603E+03 0.  0.
      99925    2    3    3    0    0  0.29585768626E+02  0.12420488608E+03 -0.51146283749E+03  0.58908738304E+03  0.26292116555E+03 0.  0.
         25    1    4    4    0    0  0.47949875836E+02  0.42254354520E+02 -0.22081287204E+03  0.26170680852E+03  0.12509000000E+03 0.  0.
         25    1    4    4    0    0 -0.18364107210E+02  0.81950531562E+02 -0.29064996545E+03  0.32738057452E+03  0.12509000000E+03 0.  0.
         25    1    3    3    0    0 -0.29585768626E+02 -0.12420488608E+03 -0.34029851158E+03  0.38438620750E+03  0.12509000000E+03 0.  0.
<mgrwt>
<rscale>  2 0.47133156E+03</rscale>
<asrwt>0</asrwt>
<pdfrwt beam="1">  1       21 0.89494301E-02 0.47133156E+03</pdfrwt>
<pdfrwt beam="2">  1       21 0.13420844E+00 0.47133156E+03</pdfrwt>
<totfact> 0.35456184E+04</totfact>
</mgrwt>
</event>
<event>
 7    0  0.4707675E-002  0.4517325E+03  0.7546771E-02  0.1027207E+00
         21   -1    0    0  502  501  0.00000000000E+00  0.00000000000E+00  0.19301194204E+04  0.19301194204E+04  0.00000000000E+00 0.  1.
         21   -1    0    0  501  502 -0.00000000000E+00 -0.00000000000E+00 -0.26431297266E+02  0.26431297266E+02  0.00000000000E+00 0.  1.
      99926    2    1    2    0    0  0.00000000000E+00  0.00000000000E+00  0.19036881232E+04  0.19565507177E+04  0.45173248792E+03 0.  0.
      99925    2    3    3    0    0  0.41196333522E+02  0.10154552636E+03  0.11581730898E+04  0.11927125117E+04  0.26303915657E+03 0.  0.
         25    1    3    3    0    0 -0.41196333522E+02 -0.10154552636E+03  0.74551503336E+03  0.76383820596E+03  0.12509000000E+03 0.  0.
         25    1    4    4    0    0  0.15066830038E+02  0.15795404447E+02  0.42508500641E+03  0.44364543832E+03  0.12509000000E+03 0.  0.
         25    1    4    4    0    0  0.26129503485E+02  0.85750121909E+02  0.73308808339E+03  0.74906707341E+03  0.12509000000E+03 0.  0.
<mgrwt>
<rscale>  2 0.45173249E+03</rscale>
<asrwt>0</asrwt>
<pdfrwt beam="1">  1       21 0.28384099E+00 0.45173249E+03</pdfrwt>
<pdfrwt beam="2">  1       21 0.38869568E-02 0.45173249E+03</pdfrwt>
<totfact> 0.14804381E+04</totfact>
</mgrwt>
</event>
<event>
 7    0  0.4707675E-002  0.4436131E+03  0.7546771E-02  0.1029644E+00
         21   -1    0    0  502  501  0.00000000000E+00  0.00000000000E+00  0.10574516238E+03  0.10574516238E+03  0.00000000000E+00 0. -1.
         21   -1    0    0  501  502 -0.00000000000E+00 -0.00000000000E+00 -0.46525199640E+03  0.46525199640E+03  0.00000000000E+00 0. -1.
      99926    2    1    2    0    0  0.35527136788E-14 -0.14210854715E-13 -0.35950683402E+03  0.57099715878E+03  0.44361311030E+03 0.  0.
      99925    2    3    3    0    0  0.29231424953E+02 -0.66594924587E+02 -0.13670218034E+03  0.30533048419E+03  0.26315367807E+03 0.  0.
         25    1    3    3    0    0 -0.29231424953E+02  0.66594924587E+02 -0.22280465369E+03  0.26566667459E+03  0.12509000000E+03 0.  0.
         25    1    4    4    0    0  0.82577361538E+01 -0.72996489356E+02 -0.60128834140E+02  0.15703395321E+03  0.12509000000E+03 0.  0.
         25    1    4    4    0    0  0.20973688799E+02  0.64015647693E+01 -0.76573346199E+02  0.14829653098E+03  0.12509000000E+03 0.  0.
<mgrwt>
<rscale>  2 0.44361311E+03</rscale>
<asrwt>0</asrwt>
<pdfrwt beam="1">  1       21 0.15550759E-01 0.44361311E+03</pdfrwt>
<pdfrwt beam="2">  1       21 0.68419412E-01 0.44361311E+03</pdfrwt>
<totfact> 0.66268246E+04</totfact>
</mgrwt>
</event>
<event>
 7    0  0.4707675E-002  0.4539991E+03  0.7546771E-02  0.1026536E+00
         21   -1    0    0  502  501  0.00000000000E+00  0.00000000000E+00  0.16818325439E+04  0.16818325439E+04  0.00000000000E+00 0. -1.
         21   -1    0    0  501  502 -0.00000000000E+00 -0.00000000000E+00 -0.30638487793E+02  0.30638487793E+02  0.00000000000E+00 0. -1.
      99926    2    1    2    0    0  0.00000000000E+00  0.00000000000E+00  0.16511940561E+04  0.17124710317E+04  0.45399914479E+03 0.  0.
      99925    2    3    3    0    0  0.71873848381E+02  0.28452085544E+02  0.72712935849E+03  0.77677960567E+03  0.26209555615E+03 0.  0.
         25    1    4    4    0    0  0.47269315980E+02  0.52271562738E+01  0.47231304443E+03  0.49090613302E+03  0.12509000000E+03 0.  0.
         25    1    3    3    0    0 -0.71873848381E+02 -0.28452085544E+02  0.92406469765E+03  0.93569142606E+03  0.12509000000E+03 0.  0.
         25    1    4    4    0    0  0.24604532401E+02  0.23224929270E+02  0.25481631406E+03  0.28587347265E+03  0.12509000000E+03 0.  0.
<mgrwt>
<rscale>  2 0.45399914E+03</rscale>
<asrwt>0</asrwt>
<pdfrwt beam="1">  1       21 0.24732825E+00 0.45399914E+03</pdfrwt>
<pdfrwt beam="2">  1       21 0.45056611E-02 0.45399914E+03</pdfrwt>
<totfact> 0.19151876E+04</totfact>
</mgrwt>
</event>
<event>
 7    0  0.4707675E-002  0.4537152E+03  0.7546771E-02  0.1026620E+00
         21   -1    0    0  502  501  0.00000000000E+00  0.00000000000E+00  0.52481760293E+02  0.52481760293E+02  0.00000000000E+00 0. -1.
         21   -1    0    0  501  502 -0.00000000000E+00 -0.00000000000E+00 -0.98061436213E+03  0.98061436213E+03  0.00000000000E+00 0. -1.
      99926    2    1    2    0    0  0.00000000000E+00  0.00000000000E+00 -0.92813260183E+03  0.10330961224E+04  0.45371518772E+03 0.  0.
      99925    2    3    3    0    0  0.78348141586E+02 -0.67857076473E+02 -0.48939594018E+03  0.56524958722E+03  0.26316476867E+03 0.  0.
         25    1    3    3    0    0 -0.78348141586E+02  0.67857076473E+02 -0.43873666166E+03  0.46784653520E+03  0.12509000000E+03 0.  0.
         25    1    4    4    0    0  0.42504146622E+02 -0.20571727311E+02 -0.16381123532E+03  0.21145076818E+03  0.12509000000E+03 0.  0.
         25    1    4    4    0    0  0.35843994965E+02 -0.47285349162E+02 -0.32558470486E+03  0.35379881904E+03  0.12509000000E+03 0.  0.
<mgrwt>
<rscale>  2 0.45371519E+03</rscale>
<asrwt>0</asrwt>
<pdfrwt beam="1">  1       21 0.77179057E-02 0.45371519E+03</pdfrwt>
<pdfrwt beam="2">  1       21 0.14420800E+00 0.45371519E+03</pdfrwt>
<totfact> 0.38286405E+04</totfact>
</mgrwt>
</event>
<event>
 7    0  0.4707675E-002  0.4565687E+03  0.7546771E-02  0.1025781E+00
         21   -1    0    0  502  501  0.00000000000E+00  0.00000000000E+00  0.15131183829E+04  0.15131183829E+04  0.00000000000E+00 0.  1.
         21   -1    0    0  501  502 -0.00000000000E+00 -0.00000000000E+00 -0.34441279620E+02  0.34441279620E+02  0.00000000000E+00 0.  1.
      99926    2    1    2    0    0  0.35527136788E-14 -0.14210854715E-13  0.14786771032E+04  0.15475596625E+04  0.45656865124E+03 0.  0.
      99925    2    3    3    0    0  0.90891279853E+01 -0.82292151506E+02  0.11984591124E+04  0.12297165550E+04  0.26276215718E+03 0.  0.
         25    1    4    4    0    0 -0.92658111636E+01 -0.73520377758E+02  0.73500450430E+03  0.74924644187E+03  0.12509000000E+03 0.  0.
         25    1    3    3    0    0 -0.90891279853E+01  0.82292151506E+02  0.28021799087E+03  0.31784310745E+03  0.12509000000E+03 0.  0.
         25    1    4    4    0    0  0.18354939149E+02 -0.87717737481E+01  0.46345460807E+03  0.48047011317E+03  0.12509000000E+03 0.  0.
<mgrwt>
<rscale>  2 0.45656865E+03</rscale>
<asrwt>0</asrwt>
<pdfrwt beam="1">  1       21 0.22251737E+00 0.45656865E+03</pdfrwt>
<pdfrwt beam="2">  1       21 0.50648951E-02 0.45656865E+03</pdfrwt>
<totfact> 0.22363550E+04</totfact>
</mgrwt>
</event>
<event>
 7    0  0.4707675E-002  0.4153926E+03  0.7546771E-02  0.1038576E+00
         21   -1    0    0  502  501  0.00000000000E+00  0.00000000000E+00  0.38694228723E+02  0.38694228723E+02  0.00000000000E+00 0.  1.
         21   -1    0    0  501  502 -0.00000000000E+00 -0.00000000000E+00 -0.11148370860E+04  0.11148370860E+04  0.00000000000E+00 0.  1.
      99926    2    1    2    0    0 -0.35527136788E-14  0.00000000000E+00 -0.10761428572E+04  0.11535313147E+04  0.41539263928E+03 0.  0.
      99925    2    3    3    0    0 -0.17365475992E+02  0.47712523406E+02 -0.83617739690E+03  0.87819701805E+03  0.26355135891E+03 0.  0.
         25    1    3    3    0    0  0.17365475992E+02 -0.47712523406E+02 -0.23996546034E+03  0.27533429663E+03  0.12509000000E+03 0.  0.
         25    1    4    4    0    0  0.28249367864E+02  0.11475054344E+02 -0.45244215325E+03  0.47040526548E+03  0.12509000000E+03 0.  0.
         25    1    4    4    0    0 -0.45614843856E+02  0.36237469061E+02 -0.38373524365E+03  0.40779175257E+03  0.12509000000E+03 0.  0.
<mgrwt>
<rscale>  2 0.41539264E+03</rscale>
<asrwt>0</asrwt>
<pdfrwt beam="1">  1       21 0.56903279E-02 0.41539264E+03</pdfrwt>
<pdfrwt beam="2">  1       21 0.16394662E+00 0.41539264E+03</pdfrwt>
<totfact> 0.46419848E+04</totfact>
</mgrwt>
</event>
<event>
 7    0  0.4707675E-002  0.4569925E+03  0.7546771E-02  0.1025657E+00
         21   -1    0    0  502  501  0.00000000000E+00  0.00000000000E+00  0.18478743756E+03  0.18478743756E+03  0.00000000000E+00 0.  1.
         21   -1    0    0  501  502 -0.00000000000E+00 -0.00000000000E+00 -0.28254369701E+03  0.28254369701E+03  0.00000000000E+00 0.  1.
      99926    2    1    2    0    0  0.00000000000E+00  0.00000000000E+00 -0.97756259458E+02  0.46733113457E+03  0.45699245407E+03 0.  0.
      99925    2    3    3    0    0  0.10576125773E+03  0.22384385290E+02 -0.21278271426E+02  0.28516940672E+03  0.26302532454E+03 0.  0.
         25    1    4    4    0    0  0.16860221726E+02 -0.82992502557E+01 -0.23475149636E+02  0.12865354788E+03  0.12509000000E+03 0.  0.
         25    1    4    4    0    0  0.88901036007E+02  0.30683635545E+02  0.21968782094E+01  0.15651585884E+03  0.12509000000E+03 0.  0.
         25    1    3    3    0    0 -0.10576125773E+03 -0.22384385290E+02 -0.76477988032E+02  0.18216172786E+03  0.12509000000E+03 0.  0.
<mgrwt>
<rscale>  2 0.45699245E+03</rscale>
<asrwt>0</asrwt>
<pdfrwt beam="1">  1       21 0.27174623E-01 0.45699245E+03</pdfrwt>
<pdfrwt beam="2">  1       21 0.41550543E-01 0.45699245E+03</pdfrwt>
<totfact> 0.66576874E+04</totfact>
</mgrwt>
</event>
<event>
 7    0  0.4707675E-002  0.4483669E+03  0.7546771E-02  0.1028210E+00
         21   -1    0    0  502  501  0.00000000000E+00  0.00000000000E+00  0.15378762175E+04  0.15378762175E+04  0.00000000000E+00 0. -1.
         21   -1    0    0  501  502 -0.00000000000E+00 -0.00000000000E+00 -0.32680279716E+02  0.32680279716E+02  0.00000000000E+00 0. -1.
      99926    2    1    2    0    0  0.17763568394E-14 -0.35527136788E-14  0.15051959378E+04  0.15705564972E+04  0.44836692543E+03 0.  0.
      99925    2    3    3    0    0 -0.93583360058E+01  0.21497859883E+02  0.13180562808E+04  0.13442414607E+04  0.26298860979E+03 0.  0.
         25    1    4    4    0    0  0.30260619489E+02  0.19722101286E+01  0.74442282732E+03  0.75546836375E+03  0.12509000000E+03 0.  0.
         25    1    3    3    0    0  0.93583360058E+01 -0.21497859883E+02  0.18713965693E+03  0.22631503646E+03  0.12509000000E+03 0.  0.
         25    1    4    4    0    0 -0.39618955495E+02  0.19525649755E+02  0.57363345351E+03  0.58877309698E+03  0.12509000000E+03 0.  0.
<mgrwt>
<rscale>  2 0.44836693E+03</rscale>
<asrwt>0</asrwt>
<pdfrwt beam="1">  1       21 0.22615822E+00 0.44836693E+03</pdfrwt>
<pdfrwt beam="2">  1       21 0.48059245E-02 0.44836693E+03</pdfrwt>
<totfact> 0.23277912E+04</totfact>
</mgrwt>
</event>
<event>
 7    0  0.4707675E-002  0.4486492E+03  0.7546771E-02  0.1028126E+00
         21   -1    0    0  502  501  0.00000000000E+00  0.00000000000E+00  0.18455126639E+03  0.18455126639E+03  0.00000000000E+00 0.  1.
         21   -1    0    0  501  502 -0.00000000000E+00 -0.00000000000E+00 -0.27266962152E+03  0.27266962152E+03  0.00000000000E+00 0.  1.
      99926    2    1    2    0    0 -0.71054273576E-14  0.00000000000E+00 -0.88118355129E+02  0.45722088791E+03  0.44864919016E+03 0.  0.
      99925    2    3    3    0    0 -0.45629889187E+02  0.76662611832E+02 -0.11559016481E+03  0.30113933466E+03  0.26337154333E+03 0.  0.
         25    1    4    4    0    0 -0.53123988769E+02  0.48875765894E+02 -0.90248779702E+02  0.17030369641E+03  0.12509000000E+03 0.  0.
         25    1    4    4    0    0  0.74940995825E+01  0.27786845938E+02 -0.25341385103E+02  0.13083563824E+03  0.12509000000E+03 0.  0.
         25    1    3    3    0    0  0.45629889187E+02 -0.76662611832E+02  0.27471809676E+02  0.15608155326E+03  0.12509000000E+03 0.  0.
<mgrwt>
<rscale>  2 0.44864919E+03</rscale>
<asrwt>0</asrwt>
<pdfrwt beam="1">  1       21 0.27139893E-01 0.44864919E+03</pdfrwt>
<pdfrwt beam="2">  1       21 0.40098473E-01 0.44864919E+03</pdfrwt>
<totfact> 0.71956015E+04</totfact>
</mgrwt>
</event>
<event>
 7    0  0.4707675E-002  0.4481131E+03  0.7546771E-02  0.1028286E+00
         21   -1    0    0  502  501  0.00000000000E+00  0.00000000000E+00  0.40731369892E+03  0.40731369892E+03  0.00000000000E+00 0. -1.
         21   -1    0    0  501  502 -0.00000000000E+00 -0.00000000000E+00 -0.12324983367E+03  0.12324983367E+03  0.00000000000E+00 0. -1.
      99926    2    1    2    0    0  0.00000000000E+00  0.00000000000E+00  0.28406386525E+03  0.53056353258E+03  0.44811313590E+03 0.  0.
      99925    2    3    3    0    0  0.25624614822E+02 -0.50248647434E+02  0.72859129536E+02  0.27869750482E+03  0.26302528202E+03 0.  0.
         25    1    4    4    0    0  0.11909659833E+02 -0.37799083827E+02 -0.29680185380E+01  0.13125139226E+03  0.12509000000E+03 0.  0.
         25    1    4    4    0    0  0.13714954990E+02 -0.12449563607E+02  0.75827148074E+02  0.14744611256E+03  0.12509000000E+03 0.  0.
         25    1    3    3    0    0 -0.25624614822E+02  0.50248647434E+02  0.21120473572E+03  0.25186602777E+03  0.12509000000E+03 0.  0.
<mgrwt>
<rscale>  2 0.44811314E+03</rscale>
<asrwt>0</asrwt>
<pdfrwt beam="1">  1       21 0.59899073E-01 0.44811314E+03</pdfrwt>
<pdfrwt beam="2">  1       21 0.18124976E-01 0.44811314E+03</pdfrwt>
<totfact> 0.66733678E+04</totfact>
</mgrwt>
</event>
<event>
 7    0  0.4707675E-002  0.4493141E+03  0.7546771E-02  0.1027927E+00
         21   -1    0    0  502  501  0.00000000000E+00  0.00000000000E+00  0.89941735235E+03  0.89941735235E+03  0.00000000000E+00 0. -1.
         21   -1    0    0  501  502 -0.00000000000E+00 -0.00000000000E+00 -0.56114981935E+02  0.56114981935E+02  0.00000000000E+00 0. -1.
      99926    2    1    2    0    0  0.00000000000E+00  0.00000000000E+00  0.84330237042E+03  0.95553233429E+03  0.44931409272E+03 0.  0.
      99925    2    3    3    0    0  0.81880990361E+02  0.47469849745E+02  0.64280734596E+03  0.70096673145E+03  0.26304978874E+03 0.  0.
         25    1    4    4    0    0  0.28902739266E+02  0.23233347030E+02  0.21537086783E+03  0.25180801330E+03  0.12509000000E+03 0.  0.
         25    1    3    3    0    0 -0.81880990361E+02 -0.47469849745E+02  0.20049502445E+03  0.25456560284E+03  0.12509000000E+03 0.  0.
         25    1    4    4    0    0  0.52978251094E+02  0.24236502714E+02  0.42743647813E+03  0.44915871815E+03  0.12509000000E+03 0.  0.
<mgrwt>
<rscale>  2 0.44931409E+03</rscale>
<asrwt>0</asrwt>
<pdfrwt beam="1">  1       21 0.13226725E+00 0.44931409E+03</pdfrwt>
<pdfrwt beam="2">  1       21 0.82522038E-02 0.44931409E+03</pdfrwt>
<totfact> 0.42788522E+04</totfact>
</mgrwt>
</event>
<event>
 7    0  0.4707675E-002  0.4499475E+03  0.7546771E-02  0.1027738E+00
         21   -1    0    0  502  501  0.00000000000E+00  0.00000000000E+00  0.34801114937E+03  0.34801114937E+03  0.00000000000E+00 0.  1.
         21   -1    0    0  501  502 -0.00000000000E+00 -0.00000000000E+00 -0.14543552506E+03  0.14543552506E+03  0.00000000000E+00 0.  1.
      99926    2    1    2    0    0  0.35527136788E-14  0.88817841970E-15  0.20257562430E+03  0.49344667443E+03  0.44994748243E+03 0.  0.
      99925    2    3    3    0    0  0.14608226498E+02  0.69009542377E+01  0.10447059715E+02  0.26361648302E+03  0.26291345651E+03 0.  0.
         25    1    3    3    0    0 -0.14608226498E+02 -0.69009542377E+01  0.19212856459E+03  0.22983019140E+03  0.12509000000E+03 0.  0.
         25    1    4    4    0    0  0.42781604922E+02 -0.15457126182E+02  0.96877303754E+01  0.13345616767E+03  0.12509000000E+03 0.  0.
         25    1    4    4    0    0 -0.28173378424E+02  0.22358080420E+02  0.75932933923E+00  0.13016031535E+03  0.12509000000E+03 0.  0.
<mgrwt>
<rscale>  2 0.44994748E+03</rscale>
<asrwt>0</asrwt>
<pdfrwt beam="1">  1       21 0.51178110E-01 0.44994748E+03</pdfrwt>
<pdfrwt beam="2">  1       21 0.21387577E-01 0.44994748E+03</pdfrwt>
<totfact> 0.68437595E+04</totfact>
</mgrwt>
</event>
<event>
 7    0  0.4707675E-002  0.4591866E+03  0.7546771E-02  0.1025017E+00
         21   -1    0    0  502  501  0.00000000000E+00  0.00000000000E+00  0.43544826586E+03  0.43544826586E+03  0.00000000000E+00 0. -1.
         21   -1    0    0  501  502 -0.00000000000E+00 -0.00000000000E+00 -0.12105477633E+03  0.12105477633E+03  0.00000000000E+00 0. -1.
      99926    2    1    2    0    0  0.00000000000E+00  0.00000000000E+00  0.31439348952E+03  0.55650304219E+03  0.45918663930E+03 0.  0.
      99925    2    3    3    0    0  0.26697965250E+02  0.90927614105E+02  0.11379952285E+03  0.30181488008E+03  0.26298531913E+03 0.  0.
         25    1    4    4    0    0  0.91081654623E+01  0.70806080675E+02  0.94977078664E+02  0.17252423978E+03  0.12509000000E+03 0.  0.
         25    1    4    4    0    0  0.17589799787E+02  0.20121533429E+02  0.18822444183E+02  0.12929064030E+03  0.12509000000E+03 0.  0.
         25    1    3    3    0    0 -0.26697965250E+02 -0.90927614105E+02  0.20059396668E+03  0.25468816212E+03  0.12509000000E+03 0.  0.
<mgrwt>
<rscale>  2 0.45918664E+03</rscale>
<asrwt>0</asrwt>
<pdfrwt beam="1">  1       21 0.64036509E-01 0.45918664E+03</pdfrwt>
<pdfrwt beam="2">  1       21 0.17802173E-01 0.45918664E+03</pdfrwt>
<totfact> 0.59445440E+04</totfact>
</mgrwt>
</event>
<event>
 6    0  0.4707675E-002  0.4568490E+03  0.7546771E-02  0.1025699E+00
         21   -1    0    0  502  501  0.00000000000E+00  0.00000000000E+00  0.20064472035E+03  0.20064472035E+03  0.00000000000E+00 0.  1.
         21   -1    0    0  501  502 -0.00000000000E+00 -0.00000000000E+00 -0.26005049856E+03  0.26005049856E+03  0.00000000000E+00 0.  1.
      99926    2    1    2    0    0 -0.71054273576E-14  0.00000000000E+00 -0.59405778210E+02  0.46069521890E+03  0.45684903221E+03 0.  0.
         25    1    3    3    0    0  0.51240388252E+02 -0.10485260382E+03 -0.18162999065E+02  0.17203792765E+03  0.12509000000E+03 0.  0.
         25    1    3    3    0    0 -0.62007672393E+02  0.58234457288E+02 -0.30340942968E+02  0.15428637131E+03  0.12509000000E+03 0.  0.
         25    1    3    3    0    0  0.10767284141E+02  0.46618146532E+02 -0.10901836178E+02  0.13437091994E+03  0.12509000000E+03 0.  0.
<mgrwt>
<rscale>  2 0.45684903E+03</rscale>
<asrwt>0</asrwt>
<pdfrwt beam="1">  1       21 0.29506577E-01 0.45684903E+03</pdfrwt>
<pdfrwt beam="2">  1       21 0.38242720E-01 0.45684903E+03</pdfrwt>
<totfact> 0.67134495E+04</totfact>
</mgrwt>
</event>
<event>
 7    0  0.4707675E-002  0.4598918E+03  0.7546771E-02  0.1024813E+00
         21   -1    0    0  502  501  0.00000000000E+00  0.00000000000E+00  0.19106890615E+04  0.19106890615E+04  0.00000000000E+00 0.  1.
         21   -1    0    0  501  502 -0.00000000000E+00 -0.00000000000E+00 -0.27673322897E+02  0.27673322897E+02  0.00000000000E+00 0.  1.
      99926    2    1    2    0    0  0.71054273576E-14  0.17763568394E-14  0.18830157386E+04  0.19383623844E+04  0.45989179316E+03 0.  0.
      99925    2    3    3    0    0  0.62501851666E+02  0.10663801496E+02  0.76216608623E+03  0.80877323367E+03  0.26305285091E+03 0.  0.
         25    1    4    4    0    0  0.17300486720E+01  0.23344579179E+02  0.43024634477E+03  0.44867291843E+03  0.12509000000E+03 0.  0.
         25    1    3    3    0    0 -0.62501851666E+02 -0.10663801496E+02  0.11208496524E+04  0.11295891507E+04  0.12509000000E+03 0.  0.
         25    1    4    4    0    0  0.60771802994E+02 -0.12680777683E+02  0.33191974146E+03  0.36010031524E+03  0.12509000000E+03 0.  0.
<mgrwt>
<rscale>  2 0.45989179E+03</rscale>
<asrwt>0</asrwt>
<pdfrwt beam="1">  1       21 0.28098360E+00 0.45989179E+03</pdfrwt>
<pdfrwt beam="2">  1       21 0.40696076E-02 0.45989179E+03</pdfrwt>
<totfact> 0.14195791E+04</totfact>
</mgrwt>
</event>
<event>
 7    0  0.4707675E-002  0.4599742E+03  0.7546771E-02  0.1024789E+00
         21   -1    0    0  502  501  0.00000000000E+00  0.00000000000E+00  0.78627049777E+03  0.78627049777E+03  0.00000000000E+00 0.  1.
         21   -1    0    0  501  502 -0.00000000000E+00 -0.00000000000E+00 -0.67272107129E+02  0.67272107129E+02  0.00000000000E+00 0.  1.
      99926    2    1    2    0    0  0.00000000000E+00  0.14210854715E-13  0.71899839064E+03  0.85354260490E+03  0.45997423040E+03 0.  0.
      99925    2    3    3    0    0  0.64659567565E+02 -0.90204714986E+02  0.52364450940E+03  0.59638818184E+03  0.26297821379E+03 0.  0.
         25    1    4    4    0    0 -0.58658619843E+00 -0.51846419091E+02  0.30066256587E+03  0.32974820981E+03  0.12509000000E+03 0.  0.
         25    1    3    3    0    0 -0.64659567565E+02  0.90204714986E+02  0.19535388124E+03  0.25715442306E+03  0.12509000000E+03 0.  0.
         25    1    4    4    0    0  0.65246153764E+02 -0.38358295895E+02  0.22298194353E+03  0.26663997203E+03  0.12509000000E+03 0.  0.
<mgrwt>
<rscale>  2 0.45997423E+03</rscale>
<asrwt>0</asrwt>
<pdfrwt beam="1">  1       21 0.11562801E+00 0.45997423E+03</pdfrwt>
<pdfrwt beam="2">  1       21 0.98929574E-02 0.45997423E+03</pdfrwt>
<totfact> 0.43556718E+04</totfact>
</mgrwt>
</event>
<event>
 6    0  0.4707675E-002  0.4579635E+03  0.7546771E-02  0.1025374E+00
         21   -1    0    0  502  501  0.00000000000E+00  0.00000000000E+00  0.12337805307E+03  0.12337805307E+03  0.00000000000E+00 0.  1.
         21   -1    0    0  501  502 -0.00000000000E+00 -0.00000000000E+00 -0.42497551542E+03  0.42497551542E+03  0.00000000000E+00 0.  1.
      99926    2    1    2    0    0  0.00000000000E+00  0.14210854715E-13 -0.30159746235E+03  0.54835356849E+03  0.45796354306E+03 0.  0.
         25    1    3    3    0    0 -0.50167694143E+02 -0.70860284784E+02 -0.12211807200E+03  0.19518788155E+03  0.12509000000E+03 0.  0.
         25    1    3    3    0    0  0.32644554640E+02 -0.55218030554E+01 -0.12047797782E+02  0.12995697283E+03  0.12509000000E+03 0.  0.
         25    1    3    3    0    0  0.17523139503E+02  0.76382087840E+02 -0.16743159257E+03  0.22320871411E+03  0.12509000000E+03 0.  0.
<mgrwt>
<rscale>  2 0.45796354E+03</rscale>
<asrwt>0</asrwt>
<pdfrwt beam="1">  1       21 0.18143832E-01 0.45796354E+03</pdfrwt>
<pdfrwt beam="2">  1       21 0.62496398E-01 0.45796354E+03</pdfrwt>
<totfact> 0.60543259E+04</totfact>
</mgrwt>
</event>
<event>
 7    0  0.4707675E-002  0.4640568E+03  0.7546771E-02  0.1023611E+00
         21   -1    0    0  502  501  0.00000000000E+00  0.00000000000E+00  0.76972266428E+03  0.76972266428E+03  0.00000000000E+00 0.  1.
         21   -1    0    0  501  502 -0.00000000000E+00 -0.00000000000E+00 -0.69943618089E+02  0.69943618089E+02  0.00000000000E+00 0.  1.
      99926    2    1    2    0    0  0.00000000000E+00  0.14210854715E-13  0.69977904620E+03  0.83966628237E+03  0.46405684163E+03 0.  0.
      99925    2    3    3    0    0  0.68483887129E+02 -0.96418330847E+02  0.48709176859E+03  0.56604259284E+03  0.26298153654E+03 0.  0.
         25    1    3    3    0    0 -0.68483887129E+02  0.96418330847E+02  0.21268727761E+03  0.27362368954E+03  0.12509000000E+03 0.  0.
         25    1    4    4    0    0  0.31088137522E+02 -0.79898852793E+01  0.19068906772E+03  0.23030444896E+03  0.12509000000E+03 0.  0.
         25    1    4    4    0    0  0.37395749608E+02 -0.88428445568E+02  0.29640270087E+03  0.33573814388E+03  0.12509000000E+03 0.  0.
<mgrwt>
<rscale>  2 0.46405684E+03</rscale>
<asrwt>0</asrwt>
<pdfrwt beam="1">  1       21 0.11319450E+00 0.46405684E+03</pdfrwt>
<pdfrwt beam="2">  1       21 0.10285827E-01 0.46405684E+03</pdfrwt>
<totfact> 0.42783259E+04</totfact>
</mgrwt>
</event>
<event>
 7    0  0.4707675E-002  0.4280907E+03  0.7546771E-02  0.1034465E+00
         21   -1    0    0  502  501  0.00000000000E+00  0.00000000000E+00  0.81604605305E+03  0.81604605305E+03  0.00000000000E+00 0.  1.
         21   -1    0    0  501  502 -0.00000000000E+00 -0.00000000000E+00 -0.56143165745E+02  0.56143165745E+02  0.00000000000E+00 0.  1.
      99926    2    1    2    0    0  0.00000000000E+00  0.00000000000E+00  0.75990288730E+03  0.87218921879E+03  0.42809068577E+03 0.  0.
      99925    2    3    3    0    0  0.39355233721E+02 -0.58610947391E+02  0.39271048031E+03  0.47790271201E+03  0.26303118300E+03 0.  0.
         25    1    4    4    0    0 -0.18433610394E+02 -0.12711471268E+02  0.18001098709E+03  0.22034709680E+03  0.12509000000E+03 0.  0.
         25    1    4    4    0    0  0.57788844115E+02 -0.45899476123E+02  0.21269949322E+03  0.25755561522E+03  0.12509000000E+03 0.  0.
         25    1    3    3    0    0 -0.39355233721E+02  0.58610947391E+02  0.36719240699E+03  0.39428650678E+03  0.12509000000E+03 0.  0.
<mgrwt>
<rscale>  2 0.42809069E+03</rscale>
<asrwt>0</asrwt>
<pdfrwt beam="1">  1       21 0.12000677E+00 0.42809069E+03</pdfrwt>
<pdfrwt beam="2">  1       21 0.82563484E-02 0.42809069E+03</pdfrwt>
<totfact> 0.55202546E+04</totfact>
</mgrwt>
</event>
<event>
 7    0  0.4707675E-002  0.4568996E+03  0.7546771E-02  0.1025684E+00
         21   -1    0    0  502  501  0.00000000000E+00  0.00000000000E+00  0.27690304675E+02  0.27690304675E+02  0.00000000000E+00 0. -1.
         21   -1    0    0  501  502 -0.00000000000E+00 -0.00000000000E+00 -0.18847505548E+04  0.18847505548E+04  0.00000000000E+00 0. -1.
      99926    2    1    2    0    0  0.00000000000E+00  0.00000000000E+00 -0.18570602501E+04  0.19124408595E+04  0.45689962617E+03 0.  0.
      99925    2    3    3    0    0  0.29551771844E+02 -0.59218900742E+02 -0.77533109825E+03  0.82149372439E+03  0.26331244156E+03 0.  0.
         25    1    4    4    0    0 -0.15527263921E+02 -0.45359207292E+02 -0.31909006658E+03  0.34607012628E+03  0.12509000000E+03 0.  0.
         25    1    3    3    0    0 -0.29551771844E+02  0.59218900742E+02 -0.10817291519E+04  0.10909471351E+04  0.12509000000E+03 0.  0.
         25    1    4    4    0    0  0.45079035765E+02 -0.13859693450E+02 -0.45624103167E+03  0.47542359811E+03  0.12509000000E+03 0.  0.
<mgrwt>
<rscale>  2 0.45689963E+03</rscale>
<asrwt>0</asrwt>
<pdfrwt beam="1">  1       21 0.40721034E-02 0.45689963E+03</pdfrwt>
<pdfrwt beam="2">  1       21 0.27716921E+00 0.45689963E+03</pdfrwt>
<totfact> 0.14970477E+04</totfact>
</mgrwt>
</event>
<event>
 7    0  0.4707675E-002  0.4589599E+03  0.7546771E-02  0.1025083E+00
         21   -1    0    0  502  501  0.00000000000E+00  0.00000000000E+00  0.13483620604E+04  0.13483620604E+04  0.00000000000E+00 0. -1.
         21   -1    0    0  501  502 -0.00000000000E+00 -0.00000000000E+00 -0.39055566025E+02  0.39055566025E+02  0.00000000000E+00 0. -1.
      99926    2    1    2    0    0  0.00000000000E+00  0.00000000000E+00  0.13093064944E+04  0.13874176265E+04  0.45895988268E+03 0.  0.
      99925    2    3    3    0    0 -0.22473598426E+02  0.70788925594E+02  0.54548877255E+03  0.60986945757E+03  0.26242450283E+03 0.  0.
         25    1    4    4    0    0 -0.49664122281E+02  0.40768144037E+02  0.30241263913E+03  0.33351083793E+03  0.12509000000E+03 0.  0.
         25    1    4    4    0    0  0.27190523855E+02  0.30020781557E+02  0.24307613342E+03  0.27635861964E+03  0.12509000000E+03 0.  0.
         25    1    3    3    0    0  0.22473598426E+02 -0.70788925594E+02  0.76381772185E+03  0.77754816888E+03  0.12509000000E+03 0.  0.
<mgrwt>
<rscale>  2 0.45895988E+03</rscale>
<asrwt>0</asrwt>
<pdfrwt beam="1">  1       21 0.19828851E+00 0.45895988E+03</pdfrwt>
<pdfrwt beam="2">  1       21 0.57434665E-02 0.45895988E+03</pdfrwt>
<totfact> 0.25864077E+04</totfact>
</mgrwt>
</event>
<event>
 7    0  0.4707675E-002  0.4516947E+03  0.7546771E-02  0.1027218E+00
         21   -1    0    0  502  501  0.00000000000E+00  0.00000000000E+00  0.24181055781E+03  0.24181055781E+03  0.00000000000E+00 0. -1.
         21   -1    0    0  501  502 -0.00000000000E+00 -0.00000000000E+00 -0.21093796978E+03  0.21093796978E+03  0.00000000000E+00 0. -1.
      99926    2    1    2    0    0  0.35527136788E-14 -0.17763568394E-14  0.30872588034E+02  0.45274852759E+03  0.45169471166E+03 0.  0.
      99925    2    3    3    0    0 -0.20762889092E+02  0.10097789036E+02  0.12709197666E+03  0.29325325570E+03  0.26327179595E+03 0.  0.
         25    1    4    4    0    0 -0.15658445644E+02  0.18506620588E+01  0.10865723412E+03  0.16644072368E+03  0.12509000000E+03 0.  0.
         25    1    4    4    0    0 -0.51044434483E+01  0.82471269773E+01  0.18434742533E+02  0.12681253202E+03  0.12509000000E+03 0.  0.
         25    1    3    3    0    0  0.20762889092E+02 -0.10097789036E+02 -0.96219388624E+02  0.15949527189E+03  0.12509000000E+03 0.  0.
<mgrwt>
<rscale>  2 0.45169471E+03</rscale>
<asrwt>0</asrwt>
<pdfrwt beam="1">  1       21 0.35560376E-01 0.45169471E+03</pdfrwt>
<pdfrwt beam="2">  1       21 0.31020290E-01 0.45169471E+03</pdfrwt>
<totfact> 0.70553453E+04</totfact>
</mgrwt>
</event>
<event>
 7    0  0.4707675E-002  0.4594014E+03  0.7546771E-02  0.1024955E+00
         21   -1    0    0  502  501  0.00000000000E+00  0.00000000000E+00  0.25128617545E+03  0.25128617545E+03  0.00000000000E+00 0. -1.
         21   -1    0    0  501  502 -0.00000000000E+00 -0.00000000000E+00 -0.20996943346E+03  0.20996943346E+03  0.00000000000E+00 0. -1.
      99926    2    1    2    0    0  0.00000000000E+00  0.17763568394E-14  0.41316741986E+02  0.46125560891E+03  0.45940141879E+03 0.  0.
      99925    2    3    3    0    0 -0.93226962250E+02 -0.10065219978E+02  0.96530521013E+02  0.29545861063E+03  0.26303055710E+03 0.  0.
         25    1    3    3    0    0  0.93226962250E+02  0.10065219978E+02 -0.55213779028E+02  0.16579699828E+03  0.12509000000E+03 0.  0.
         25    1    4    4    0    0 -0.37712913452E+02  0.73153627862E+00  0.88774130233E+02  0.15795934061E+03  0.12509000000E+03 0.  0.
         25    1    4    4    0    0 -0.55514048799E+02 -0.10796756257E+02  0.77563907806E+01  0.13749927003E+03  0.12509000000E+03 0.  0.
<mgrwt>
<rscale>  2 0.45940142E+03</rscale>
<asrwt>0</asrwt>
<pdfrwt beam="1">  1       21 0.36953849E-01 0.45940142E+03</pdfrwt>
<pdfrwt beam="2">  1       21 0.30877858E-01 0.45940142E+03</pdfrwt>
<totfact> 0.65750443E+04</totfact>
</mgrwt>
</event>
<event>
 7    0  0.4707675E-002  0.4615503E+03  0.7546771E-02  0.1024333E+00
         21   -1    0    0  502  501  0.00000000000E+00  0.00000000000E+00  0.32126696501E+03  0.32126696501E+03  0.00000000000E+00 0. -1.
         21   -1    0    0  501  502 -0.00000000000E+00 -0.00000000000E+00 -0.16577232226E+03  0.16577232226E+03  0.00000000000E+00 0. -1.
      99926    2    1    2    0    0  0.00000000000E+00 -0.71054273576E-14  0.15549464275E+03  0.48703928727E+03  0.46155030433E+03 0.  0.
      99925    2    3    3    0    0  0.52271761640E+02 -0.50874999858E+02 -0.20580925469E+01  0.27305102784E+03  0.26311979284E+03 0.  0.
         25    1    4    4    0    0  0.62362407807E+02 -0.13178459309E+02  0.13751357690E+02  0.14106505462E+03  0.12509000000E+03 0.  0.
         25    1    4    4    0    0 -0.10090646167E+02 -0.37696540548E+02 -0.15809450237E+02  0.13198597322E+03  0.12509000000E+03 0.  0.
         25    1    3    3    0    0 -0.52271761640E+02  0.50874999858E+02  0.15755273530E+03  0.21398825943E+03  0.12509000000E+03 0.  0.
<mgrwt>
<rscale>  2 0.46155030E+03</rscale>
<asrwt>0</asrwt>
<pdfrwt beam="1">  1       21 0.47245142E-01 0.46155030E+03</pdfrwt>
<pdfrwt beam="2">  1       21 0.24378283E-01 0.46155030E+03</pdfrwt>
<totfact> 0.62858572E+04</totfact>
</mgrwt>
</event>
<event>
 7    0  0.4707675E-002  0.4378493E+03  0.7546771E-02  0.1031409E+00
         21   -1    0    0  502  501  0.00000000000E+00  0.00000000000E+00  0.22820020738E+03  0.22820020738E+03  0.00000000000E+00 0.  1.
         21   -1    0    0  501  502 -0.00000000000E+00 -0.00000000000E+00 -0.21002615065E+03  0.21002615065E+03  0.00000000000E+00 0.  1.
      99926    2    1    2    0    0  0.71054273576E-14 -0.71054273576E-14  0.18174056726E+02  0.43822635803E+03  0.43784933999E+03 0.  0.
      99925    2    3    3    0    0 -0.37306618581E+02  0.41658606483E+02  0.89832569147E+02  0.28359882559E+03  0.26311818659E+03 0.  0.
         25    1    4    4    0    0 -0.38468471231E+01  0.28832856331E+02  0.55125224884E+01  0.12854582001E+03  0.12509000000E+03 0.  0.
         25    1    3    3    0    0  0.37306618581E+02 -0.41658606483E+02 -0.71658512421E+02  0.15462753243E+03  0.12509000000E+03 0.  0.
         25    1    4    4    0    0 -0.33459771458E+02  0.12825750152E+02  0.84320046658E+02  0.15505300559E+03  0.12509000000E+03 0.  0.
<mgrwt>
<rscale>  2 0.43784934E+03</rscale>
<asrwt>0</asrwt>
<pdfrwt beam="1">  1       21 0.33558854E-01 0.43784934E+03</pdfrwt>
<pdfrwt beam="2">  1       21 0.30886199E-01 0.43784934E+03</pdfrwt>
<totfact> 0.80220905E+04</totfact>
</mgrwt>
</event>
<event>
 7    0  0.4707675E-002  0.4513139E+03  0.7546771E-02  0.1027331E+00
         21   -1    0    0  502  501  0.00000000000E+00  0.00000000000E+00  0.39329240255E+02  0.39329240255E+02  0.00000000000E+00 0. -1.
         21   -1    0    0  501  502 -0.00000000000E+00 -0.00000000000E+00 -0.12947381034E+04  0.12947381034E+04  0.00000000000E+00 0. -1.
      99926    2    1    2    0    0  0.00000000000E+00  0.00000000000E+00 -0.12554088632E+04  0.13340673437E+04  0.45131393037E+03 0.  0.
      99925    2    3    3    0    0 -0.89472241605E+02  0.44959302654E+02 -0.92478997243E+03  0.96666704437E+03  0.26302482899E+03 0.  0.
         25    1    3    3    0    0  0.89472241605E+02 -0.44959302654E+02 -0.33061889073E+03  0.36740029929E+03  0.12509000000E+03 0.  0.
         25    1    4    4    0    0 -0.86712382945E+02  0.16907877582E+02 -0.49241947941E+03  0.51568339655E+03  0.12509000000E+03 0.  0.
         25    1    4    4    0    0 -0.27598586597E+01  0.28051425073E+02 -0.43237049302E+03  0.45098364782E+03  0.12509000000E+03 0.  0.
<mgrwt>
<rscale>  2 0.45131393E+03</rscale>
<asrwt>0</asrwt>
<pdfrwt beam="1">  1       21 0.57837123E-02 0.45131393E+03</pdfrwt>
<pdfrwt beam="2">  1       21 0.19040264E+00 0.45131393E+03</pdfrwt>
<totfact> 0.28962411E+04</totfact>
</mgrwt>
</event>
<event>
 7    0  0.4707675E-002  0.4528503E+03  0.7546771E-02  0.1026875E+00
         21   -1    0    0  502  501  0.00000000000E+00  0.00000000000E+00  0.54299946670E+03  0.54299946670E+03  0.00000000000E+00 0.  1.
         21   -1    0    0  501  502 -0.00000000000E+00 -0.00000000000E+00 -0.94416923508E+02  0.94416923508E+02  0.00000000000E+00 0.  1.
      99926    2    1    2    0    0 -0.26645352591E-14  0.00000000000E+00  0.44858254319E+03  0.63741639021E+03  0.45285025831E+03 0.  0.
      99925    2    3    3    0    0 -0.78827934560E+01  0.60386449682E+02  0.15161634273E+03  0.30947570342E+03  0.26282890610E+03 0.  0.
         25    1    3    3    0    0  0.78827934560E+01 -0.60386449682E+02  0.29696620046E+03  0.32794068679E+03  0.12509000000E+03 0.  0.
         25    1    4    4    0    0 -0.17298058572E+02 -0.87036269874E+01  0.70909551257E+02  0.14508841619E+03  0.12509000000E+03 0.  0.
         25    1    4    4    0    0  0.94152651157E+01  0.69090076669E+02  0.80706791476E+02  0.16438728723E+03  0.12509000000E+03 0.  0.
<mgrwt>
<rscale>  2 0.45285026E+03</rscale>
<asrwt>0</asrwt>
<pdfrwt beam="1">  1       21 0.79852862E-01 0.45285026E+03</pdfrwt>
<pdfrwt beam="2">  1       21 0.13884842E-01 0.45285026E+03</pdfrwt>
<totfact> 0.57399976E+04</totfact>
</mgrwt>
</event>
<event>
 7    0  0.4707675E-002  0.4551614E+03  0.7546771E-02  0.1026194E+00
         21   -1    0    0  502  501  0.00000000000E+00  0.00000000000E+00  0.47505049866E+02  0.47505049866E+02  0.00000000000E+00 0. -1.
         21   -1    0    0  501  502 -0.00000000000E+00 -0.00000000000E+00 -0.10902623797E+04  0.10902623797E+04  0.00000000000E+00 0. -1.
      99926    2    1    2    0    0 -0.14210854715E-13 -0.44408920985E-15 -0.10427573298E+04  0.11377674295E+04  0.45516137232E+03 0.  0.
      99925    2    3    3    0    0  0.11277961468E+03  0.20769793094E+01 -0.68566793580E+03  0.74294607913E+03  0.26287792409E+03 0.  0.
         25    1    3    3    0    0 -0.11277961468E+03 -0.20769793094E+01 -0.35708939400E+03  0.39482135041E+03  0.12509000000E+03 0.  0.
         25    1    4    4    0    0  0.65926293885E+02  0.39780096678E+02 -0.33358279365E+03  0.36449104329E+03  0.12509000000E+03 0.  0.
         25    1    4    4    0    0  0.46853320794E+02 -0.37703117369E+02 -0.35208514215E+03  0.37845503584E+03  0.12509000000E+03 0.  0.
<mgrwt>
<rscale>  2 0.45516137E+03</rscale>
<asrwt>0</asrwt>
<pdfrwt beam="1">  1       21 0.69860365E-02 0.45516137E+03</pdfrwt>
<pdfrwt beam="2">  1       21 0.16033271E+00 0.45516137E+03</pdfrwt>
<totfact> 0.34150446E+04</totfact>
</mgrwt>
</event>
<event>
 7    0  0.4707675E-002  0.4605386E+03  0.7546771E-02  0.1024625E+00
         21   -1    0    0  502  501  0.00000000000E+00  0.00000000000E+00  0.22333748230E+03  0.22333748230E+03  0.00000000000E+00 0. -1.
         21   -1    0    0  501  502 -0.00000000000E+00 -0.00000000000E+00 -0.23741624588E+03  0.23741624588E+03  0.00000000000E+00 0. -1.
      99926    2    1    2    0    0  0.00000000000E+00  0.00000000000E+00 -0.14078763572E+02  0.46075372818E+03  0.46053858302E+03 0.  0.
      99925    2    3    3    0    0 -0.76644717329E+02  0.15245544098E+02  0.79933255797E+02  0.28584630354E+03  0.26308163097E+03 0.  0.
         25    1    4    4    0    0 -0.40676709939E+02  0.46577167096E+02  0.28444762348E+02  0.14241011141E+03  0.12509000000E+03 0.  0.
         25    1    4    4    0    0 -0.35968007390E+02 -0.31331622998E+02  0.51488493449E+02  0.14343619213E+03  0.12509000000E+03 0.  0.
         25    1    3    3    0    0  0.76644717329E+02 -0.15245544098E+02 -0.94012019370E+02  0.17490742464E+03  0.12509000000E+03 0.  0.
<mgrwt>
<rscale>  2 0.46053858E+03</rscale>
<asrwt>0</asrwt>
<pdfrwt beam="1">  1       21 0.32843747E-01 0.46053858E+03</pdfrwt>
<pdfrwt beam="2">  1       21 0.34914154E-01 0.46053858E+03</pdfrwt>
<totfact> 0.65197153E+04</totfact>
</mgrwt>
</event>
<event>
 7    0  0.4707675E-002  0.4554625E+03  0.7546771E-02  0.1026105E+00
         21   -1    0    0  502  501  0.00000000000E+00  0.00000000000E+00  0.11298124215E+03  0.11298124215E+03  0.00000000000E+00 0. -1.
         21   -1    0    0  501  502 -0.00000000000E+00 -0.00000000000E+00 -0.45902776840E+03  0.45902776840E+03  0.00000000000E+00 0. -1.
      99926    2    1    2    0    0  0.14210854715E-13 -0.35527136788E-14 -0.34604652625E+03  0.57200901055E+03  0.45546252296E+03 0.  0.
      99925    2    3    3    0    0 -0.11252832689E+03 -0.15750222969E+02 -0.21868436684E+03  0.36039775937E+03  0.26296957767E+03 0.  0.
         25    1    4    4    0    0 -0.73775438617E+02 -0.40460302872E+02 -0.92509507169E+02  0.17687670414E+03  0.12509000000E+03 0.  0.
         25    1    3    3    0    0  0.11252832689E+03  0.15750222969E+02 -0.12736215940E+03  0.21161125117E+03  0.12509000000E+03 0.  0.
         25    1    4    4    0    0 -0.38752888274E+02  0.24710079903E+02 -0.12617485968E+03  0.18352105523E+03  0.12509000000E+03 0.  0.
<mgrwt>
<rscale>  2 0.45546252E+03</rscale>
<asrwt>0</asrwt>
<pdfrwt beam="1">  1       21 0.16614889E-01 0.45546252E+03</pdfrwt>
<pdfrwt beam="2">  1       21 0.67504081E-01 0.45546252E+03</pdfrwt>
<totfact> 0.60214610E+04</totfact>
</mgrwt>
</event>
<event>
 7    0  0.4707675E-002  0.4541125E+03  0.7546771E-02  0.1026503E+00
         21   -1    0    0  502  501  0.00000000000E+00  0.00000000000E+00  0.14327812103E+03  0.14327812103E+03  0.00000000000E+00 0. -1.
         21   -1    0    0  501  502 -0.00000000000E+00 -0.00000000000E+00 -0.35982141722E+03  0.35982141722E+03  0.00000000000E+00 0. -1.
      99926    2    1    2    0    0  0.00000000000E+00  0.17763568394E-14 -0.21654329619E+03  0.50309953825E+03  0.45411248195E+03 0.  0.
      99925    2    3    3    0    0  0.65906191006E+02  0.14677927310E+02 -0.23564976801E+03  0.35967139273E+03  0.26319884122E+03 0.  0.
         25    1    4    4    0    0  0.39337012832E+02  0.24812051040E+02 -0.71693961080E+02  0.15149445736E+03  0.12509000000E+03 0.  0.
         25    1    3    3    0    0 -0.65906191006E+02 -0.14677927310E+02  0.19106471825E+02  0.14342814552E+03  0.12509000000E+03 0.  0.
         25    1    4    4    0    0  0.26569178174E+02 -0.10134123730E+02 -0.16395580693E+03  0.20817693537E+03  0.12509000000E+03 0.  0.
<mgrwt>
<rscale>  2 0.45411248E+03</rscale>
<asrwt>0</asrwt>
<pdfrwt beam="1">  1       21 0.21070312E-01 0.45411248E+03</pdfrwt>
<pdfrwt beam="2">  1       21 0.52914914E-01 0.45411248E+03</pdfrwt>
<totfact> 0.65513765E+04</totfact>
</mgrwt>
</event>
<event>
 7    0  0.4707675E-002  0.4547304E+03  0.7546771E-02  0.1026321E+00
         21   -1    0    0  502  501  0.00000000000E+00  0.00000000000E+00  0.69392937159E+03  0.69392937159E+03  0.00000000000E+00 0. -1.
         21   -1    0    0  501  502 -0.00000000000E+00 -0.00000000000E+00 -0.74495953631E+02  0.74495953631E+02  0.00000000000E+00 0. -1.
      99926    2    1    2    0    0 -0.14210854715E-13  0.00000000000E+00  0.61943341796E+03  0.76842532522E+03  0.45473038293E+03 0.  0.
      99925    2    3    3    0    0 -0.81577980906E+02 -0.52110777577E+02  0.48791965436E+03  0.56272195086E+03  0.26309675931E+03 0.  0.
         25    1    3    3    0    0  0.81577980906E+02  0.52110777577E+02  0.13151376360E+03  0.20570337436E+03  0.12509000000E+03 0.  0.
         25    1    4    4    0    0 -0.57014381346E+02 -0.48463277758E+02  0.19687604092E+03  0.24496328819E+03  0.12509000000E+03 0.  0.
         25    1    4    4    0    0 -0.24563599560E+02 -0.36474998186E+01  0.29104361344E+03  0.31775866267E+03  0.12509000000E+03 0.  0.
<mgrwt>
<rscale>  2 0.45473038E+03</rscale>
<asrwt>0</asrwt>
<pdfrwt beam="1">  1       21 0.10204843E+00 0.45473038E+03</pdfrwt>
<pdfrwt beam="2">  1       21 0.10955288E-01 0.45473038E+03</pdfrwt>
<totfact> 0.49434416E+04</totfact>
</mgrwt>
</event>
<event>
 7    0  0.4707675E-002  0.4271469E+03  0.7546771E-02  0.1034765E+00
         21   -1    0    0  502  501  0.00000000000E+00  0.00000000000E+00  0.57551419272E+03  0.57551419272E+03  0.00000000000E+00 0. -1.
         21   -1    0    0  501  502 -0.00000000000E+00 -0.00000000000E+00 -0.79257138961E+02  0.79257138961E+02  0.00000000000E+00 0. -1.
      99926    2    1    2    0    0  0.00000000000E+00 -0.71054273576E-14  0.49625705375E+03  0.65477133168E+03  0.42714685225E+03 0.  0.
      99925    2    3    3    0    0  0.74437877134E+02 -0.38814300518E+02  0.33489877818E+03  0.43401909800E+03  0.26299779148E+03 0.  0.
         25    1    4    4    0    0  0.77570525756E+01 -0.33389793451E+02  0.19923795180E+03  0.23773581915E+03  0.12509000000E+03 0.  0.
         25    1    3    3    0    0 -0.74437877134E+02  0.38814300518E+02  0.16135827557E+03  0.22075223368E+03  0.12509000000E+03 0.  0.
         25    1    4    4    0    0  0.66680824558E+02 -0.54245070669E+01  0.13566082638E+03  0.19628327885E+03  0.12509000000E+03 0.  0.
<mgrwt>
<rscale>  2 0.42714685E+03</rscale>
<asrwt>0</asrwt>
<pdfrwt beam="1">  1       21 0.84634438E-01 0.42714685E+03</pdfrwt>
<pdfrwt beam="2">  1       21 0.11655462E-01 0.42714685E+03</pdfrwt>
<totfact> 0.69466633E+04</totfact>
</mgrwt>
</event>
<event>
 7    0  0.4707675E-002  0.4525022E+03  0.7546771E-02  0.1026978E+00
         21   -1    0    0  502  501  0.00000000000E+00  0.00000000000E+00  0.73837944208E+02  0.73837944208E+02  0.00000000000E+00 0. -1.
         21   -1    0    0  501  502 -0.00000000000E+00 -0.00000000000E+00 -0.69326897390E+03  0.69326897390E+03  0.00000000000E+00 0. -1.
      99926    2    1    2    0    0  0.00000000000E+00  0.00000000000E+00 -0.61943102969E+03  0.76710691810E+03  0.45250218040E+03 0.  0.
      99925    2    3    3    0    0  0.41491893125E+02  0.66190668516E+02 -0.25744179028E+03  0.37622778162E+03  0.26299864350E+03 0.  0.
         25    1    4    4    0    0  0.31388288085E+02  0.22409916049E+02 -0.76172315733E+02  0.15145018571E+03  0.12509000000E+03 0.  0.
         25    1    3    3    0    0 -0.41491893125E+02 -0.66190668516E+02 -0.36198923941E+03  0.39087913649E+03  0.12509000000E+03 0.  0.
         25    1    4    4    0    0  0.10103605040E+02  0.43780752467E+02 -0.18126947455E+03  0.22477759591E+03  0.12509000000E+03 0.  0.
<mgrwt>
<rscale>  2 0.45250218E+03</rscale>
<asrwt>0</asrwt>
<pdfrwt beam="1">  1       21 0.10858521E-01 0.45250218E+03</pdfrwt>
<pdfrwt beam="2">  1       21 0.10195132E+00 0.45250218E+03</pdfrwt>
<totfact> 0.50377446E+04</totfact>
</mgrwt>
</event>
<event>
 7    0  0.4707675E-002  0.4635940E+03  0.7546771E-02  0.1023744E+00
         21   -1    0    0  502  501  0.00000000000E+00  0.00000000000E+00  0.18894081318E+03  0.18894081318E+03  0.00000000000E+00 0.  1.
         21   -1    0    0  501  502 -0.00000000000E+00 -0.00000000000E+00 -0.28437393738E+03  0.28437393738E+03  0.00000000000E+00 0.  1.
      99926    2    1    2    0    0  0.00000000000E+00  0.00000000000E+00 -0.95433124205E+02  0.47331475056E+03  0.46359397310E+03 0.  0.
      99925    2    3    3    0    0 -0.16521399227E+02  0.11968172337E+03 -0.51725472220E+02  0.29399788442E+03  0.26298775641E+03 0.  0.
         25    1    3    3    0    0  0.16521399227E+02 -0.11968172337E+03 -0.43707651985E+02  0.17931686614E+03  0.12509000000E+03 0.  0.
         25    1    4    4    0    0 -0.27269517863E+02  0.78410881215E+02 -0.59773419951E+02  0.16159289195E+03  0.12509000000E+03 0.  0.
         25    1    4    4    0    0  0.10748118635E+02  0.41270842152E+02  0.80479477310E+01  0.13240499246E+03  0.12509000000E+03 0.  0.
<mgrwt>
<rscale>  2 0.46359397E+03</rscale>
<asrwt>0</asrwt>
<pdfrwt beam="1">  1       21 0.27785414E-01 0.46359397E+03</pdfrwt>
<pdfrwt beam="2">  1       21 0.41819696E-01 0.46359397E+03</pdfrwt>
<totfact> 0.62796660E+04</totfact>
</mgrwt>
</event>
<event>
 7    0  0.4707675E-002  0.4485095E+03  0.7546771E-02  0.1028167E+00
         21   -1    0    0  502  501  0.00000000000E+00  0.00000000000E+00  0.13846812708E+03  0.13846812708E+03  0.00000000000E+00 0. -1.
         21   -1    0    0  501  502 -0.00000000000E+00 -0.00000000000E+00 -0.36318961087E+03  0.36318961087E+03  0.00000000000E+00 0. -1.
      99926    2    1    2    0    0 -0.71054273576E-14 -0.14210854715E-13 -0.22472148380E+03  0.50165773795E+03  0.44850946564E+03 0.  0.
      99925    2    3    3    0    0  0.54622881389E+02  0.74091380326E+02 -0.20341568394E+03  0.34489474162E+03  0.26287116715E+03 0.  0.
         25    1    4    4    0    0  0.16882641951E+02  0.65088632328E+02 -0.71480765464E+02  0.15899233186E+03  0.12509000000E+03 0.  0.
         25    1    3    3    0    0 -0.54622881389E+02 -0.74091380326E+02 -0.21305799856E+02  0.15676299633E+03  0.12509000000E+03 0.  0.
         25    1    4    4    0    0  0.37740239437E+02  0.90027479971E+01 -0.13193491848E+03  0.18590240977E+03  0.12509000000E+03 0.  0.
<mgrwt>
<rscale>  2 0.44850947E+03</rscale>
<asrwt>0</asrwt>
<pdfrwt beam="1">  1       21 0.20362960E-01 0.44850947E+03</pdfrwt>
<pdfrwt beam="2">  1       21 0.53410236E-01 0.44850947E+03</pdfrwt>
<totfact> 0.68621978E+04</totfact>
</mgrwt>
</event>
<event>
 7    0  0.4707675E-002  0.4634244E+03  0.7546771E-02  0.1023793E+00
         21   -1    0    0  502  501  0.00000000000E+00  0.00000000000E+00  0.39236899448E+03  0.39236899448E+03  0.00000000000E+00 0. -1.
         21   -1    0    0  501  502 -0.00000000000E+00 -0.00000000000E+00 -0.13683688339E+03  0.13683688339E+03  0.00000000000E+00 0. -1.
      99926    2    1    2    0    0  0.00000000000E+00  0.00000000000E+00  0.25553211108E+03  0.52920587787E+03  0.46342442898E+03 0.  0.
      99925    2    3    3    0    0 -0.38001805181E+02 -0.35406053420E+02  0.28422568705E+03  0.39075532634E+03  0.26307367422E+03 0.  0.
         25    1    3    3    0    0  0.38001805181E+02  0.35406053420E+02 -0.28693575971E+02  0.13845055153E+03  0.12509000000E+03 0.  0.
         25    1    4    4    0    0  0.16269807168E+02 -0.35269079191E+02  0.12405798681E+03  0.18040650422E+03  0.12509000000E+03 0.  0.
         25    1    4    4    0    0 -0.54271612350E+02 -0.13697422930E+00  0.16016770024E+03  0.21034882213E+03  0.12509000000E+03 0.  0.
<mgrwt>
<rscale>  2 0.46342443E+03</rscale>
<asrwt>0</asrwt>
<pdfrwt beam="1">  1       21 0.57701323E-01 0.46342443E+03</pdfrwt>
<pdfrwt beam="2">  1       21 0.20123071E-01 0.46342443E+03</pdfrwt>
<totfact> 0.59206366E+04</totfact>
</mgrwt>
</event>
<event>
 7    0  0.4707675E-002  0.4469830E+03  0.7546771E-02  0.1028626E+00
         21   -1    0    0  502  501  0.00000000000E+00  0.00000000000E+00  0.26770930862E+04  0.26770930862E+04  0.00000000000E+00 0.  1.
         21   -1    0    0  501  502 -0.00000000000E+00 -0.00000000000E+00 -0.18657722696E+02  0.18657722696E+02  0.00000000000E+00 0.  1.
      99926    2    1    2    0    0 -0.17763568394E-14  0.00000000000E+00  0.26584353635E+04  0.26957508089E+04  0.44698304412E+03 0.  0.
      99925    2    3    3    0    0  0.89087477900E+01  0.32823422734E+02  0.22833907497E+04  0.22989350919E+04  0.26471210351E+03 0.  0.
         25    1    4    4    0    0 -0.24084550747E+02  0.45626299696E+02  0.10395699216E+04  0.10483391412E+04  0.12509000000E+03 0.  0.
         25    1    4    4    0    0  0.32993298537E+02 -0.12802876961E+02  0.12438208281E+04  0.12505959507E+04  0.12509000000E+03 0.  0.
         25    1    3    3    0    0 -0.89087477900E+01 -0.32823422734E+02  0.37504461371E+03  0.39681571698E+03  0.12509000000E+03 0.  0.
<mgrwt>
<rscale>  2 0.44698304E+03</rscale>
<asrwt>0</asrwt>
<pdfrwt beam="1">  1       21 0.39368989E+00 0.44698304E+03</pdfrwt>
<pdfrwt beam="2">  1       21 0.27437846E-02 0.44698304E+03</pdfrwt>
<totfact> 0.56749285E+03</totfact>
</mgrwt>
</event>
<event>
 7    0  0.4707675E-002  0.4517454E+03  0.7546771E-02  0.1027203E+00
         21   -1    0    0  502  501  0.00000000000E+00  0.00000000000E+00  0.22516074290E+03  0.22516074290E+03  0.00000000000E+00 0.  1.
         21   -1    0    0  501  502 -0.00000000000E+00 -0.00000000000E+00 -0.22658694064E+03  0.22658694064E+03  0.00000000000E+00 0.  1.
      99926    2    1    2    0    0  0.17763568394E-14  0.00000000000E+00 -0.14261977365E+01  0.45174768355E+03  0.45174543224E+03 0.  0.
      99925    2    3    3    0    0 -0.13214987654E+02  0.10267743609E+03  0.36787387192E+02  0.28493917671E+03  0.26290631561E+03 0.  0.
         25    1    4    4    0    0 -0.46136002463E+01  0.30709766767E+02  0.53208688704E+02  0.13943832951E+03  0.12509000000E+03 0.  0.
         25    1    4    4    0    0 -0.86013874075E+01  0.71967669322E+02 -0.16421301512E+02  0.14550084720E+03  0.12509000000E+03 0.  0.
         25    1    3    3    0    0  0.13214987654E+02 -0.10267743609E+03 -0.38213584929E+02  0.16680850684E+03  0.12509000000E+03 0.  0.
<mgrwt>
<rscale>  2 0.45174543E+03</rscale>
<asrwt>0</asrwt>
<pdfrwt beam="1">  1       21 0.33111874E-01 0.45174543E+03</pdfrwt>
<pdfrwt beam="2">  1       21 0.33321609E-01 0.45174543E+03</pdfrwt>
<totfact> 0.70600330E+04</totfact>
</mgrwt>
</event>
<event>
 7    0  0.4707675E-002  0.4553585E+03  0.7546771E-02  0.1026136E+00
         21   -1    0    0  502  501  0.00000000000E+00  0.00000000000E+00  0.27422942593E+03  0.27422942593E+03  0.00000000000E+00 0. -1.
         21   -1    0    0  501  502 -0.00000000000E+00 -0.00000000000E+00 -0.18903088730E+03  0.18903088730E+03  0.00000000000E+00 0. -1.
      99926    2    1    2    0    0 -0.14210854715E-13  0.00000000000E+00  0.85198538626E+02  0.46326031323E+03  0.45535845972E+03 0.  0.
      99925    2    3    3    0    0  0.10692129749E+03 -0.14205078752E+02  0.17512747667E+02  0.28475870956E+03  0.26295794002E+03 0.  0.
         25    1    4    4    0    0  0.24429886814E+02 -0.12744331775E+01 -0.21793342739E+02  0.12930932463E+03  0.12509000000E+03 0.  0.
         25    1    3    3    0    0 -0.10692129749E+03  0.14205078752E+02  0.67685790958E+02  0.17850160368E+03  0.12509000000E+03 0.  0.
         25    1    4    4    0    0  0.82491410671E+02 -0.12930645574E+02  0.39306090406E+02  0.15544938492E+03  0.12509000000E+03 0.  0.
<mgrwt>
<rscale>  2 0.45535846E+03</rscale>
<asrwt>0</asrwt>
<pdfrwt beam="1">  1       21 0.40327857E-01 0.45535846E+03</pdfrwt>
<pdfrwt beam="2">  1       21 0.27798660E-01 0.45535846E+03</pdfrwt>
<totfact> 0.67746243E+04</totfact>
</mgrwt>
</event>
<event>
 7    0  0.4707675E-002  0.4541181E+03  0.7546771E-02  0.1026501E+00
         21   -1    0    0  502  501  0.00000000000E+00  0.00000000000E+00  0.11791808796E+03  0.11791808796E+03  0.00000000000E+00 0. -1.
         21   -1    0    0  501  502 -0.00000000000E+00 -0.00000000000E+00 -0.43721722343E+03  0.43721722343E+03  0.00000000000E+00 0. -1.
      99926    2    1    2    0    0  0.00000000000E+00  0.00000000000E+00 -0.31929913547E+03  0.55513531139E+03  0.45411813006E+03 0.  0.
      99925    2    3    3    0    0 -0.73268524514E+02  0.61648299168E+02 -0.12905700845E+03  0.30813659790E+03  0.26291379207E+03 0.  0.
         25    1    4    4    0    0 -0.62975836394E+02  0.53841534990E+02 -0.95945366029E+02  0.17809516619E+03  0.12509000000E+03 0.  0.
         25    1    4    4    0    0 -0.10292688120E+02  0.78067641778E+01 -0.33111642417E+02  0.13004143170E+03  0.12509000000E+03 0.  0.
         25    1    3    3    0    0  0.73268524514E+02 -0.61648299168E+02 -0.19024212702E+03  0.24699871350E+03  0.12509000000E+03 0.  0.
<mgrwt>
<rscale>  2 0.45411813E+03</rscale>
<asrwt>0</asrwt>
<pdfrwt beam="1">  1       21 0.17340895E-01 0.45411813E+03</pdfrwt>
<pdfrwt beam="2">  1       21 0.64296650E-01 0.45411813E+03</pdfrwt>
<totfact> 0.61959558E+04</totfact>
</mgrwt>
</event>
<event>
 7    0  0.4707675E-002  0.4385586E+03  0.7546771E-02  0.1031190E+00
         21   -1    0    0  502  501  0.00000000000E+00  0.00000000000E+00  0.11209185525E+04  0.11209185525E+04  0.00000000000E+00 0. -1.
         21   -1    0    0  501  502 -0.00000000000E+00 -0.00000000000E+00 -0.42896442056E+02  0.42896442056E+02  0.00000000000E+00 0. -1.
      99926    2    1    2    0    0  0.00000000000E+00 -0.71054273576E-14  0.10780221104E+04  0.11638149945E+04  0.43855862886E+03 0.  0.
      99925    2    3    3    0    0  0.76639072431E+02  0.59065985988E+02  0.70071976517E+03  0.75470998851E+03  0.26309055348E+03 0.  0.
         25    1    3    3    0    0 -0.76639072431E+02 -0.59065985988E+02  0.37730234526E+03  0.40910500604E+03  0.12509000000E+03 0.  0.
         25    1    4    4    0    0  0.34649719377E+02  0.59645303619E+02  0.43817672313E+03  0.46087364222E+03  0.12509000000E+03 0.  0.
         25    1    4    4    0    0  0.41989353054E+02 -0.57931763102E+00  0.26254304204E+03  0.29383634629E+03  0.12509000000E+03 0.  0.
<mgrwt>
<rscale>  2 0.43855863E+03</rscale>
<asrwt>0</asrwt>
<pdfrwt beam="1">  1       21 0.16484094E+00 0.43855863E+03</pdfrwt>
<pdfrwt beam="2">  1       21 0.63083010E-02 0.43855863E+03</pdfrwt>
<totfact> 0.37959625E+04</totfact>
</mgrwt>
</event>
<event>
 7    0  0.4707675E-002  0.4481937E+03  0.7546771E-02  0.1028262E+00
         21   -1    0    0  502  501  0.00000000000E+00  0.00000000000E+00  0.32557262787E+03  0.32557262787E+03  0.00000000000E+00 0.  1.
         21   -1    0    0  501  502 -0.00000000000E+00 -0.00000000000E+00 -0.15424943322E+03  0.15424943322E+03  0.00000000000E+00 0.  1.
      99926    2    1    2    0    0  0.00000000000E+00 -0.35527136788E-14  0.17132319465E+03  0.47982206110E+03  0.44819367833E+03 0.  0.
      99925    2    3    3    0    0  0.91307669400E+02 -0.13728979798E+02  0.16593179533E+03  0.32425165690E+03  0.26283112624E+03 0.  0.
         25    1    4    4    0    0  0.12300537963E+02 -0.29564374932E+02  0.88231169205E+02  0.15638926695E+03  0.12509000000E+03 0.  0.
         25    1    4    4    0    0  0.79007131437E+02  0.15835395134E+02  0.77700626121E+02  0.16786238994E+03  0.12509000000E+03 0.  0.
         25    1    3    3    0    0 -0.91307669400E+02  0.13728979798E+02  0.53913993227E+01  0.15557040420E+03  0.12509000000E+03 0.  0.
<mgrwt>
<rscale>  2 0.44819368E+03</rscale>
<asrwt>0</asrwt>
<pdfrwt beam="1">  1       21 0.47878328E-01 0.44819368E+03</pdfrwt>
<pdfrwt beam="2">  1       21 0.22683740E-01 0.44819368E+03</pdfrwt>
<totfact> 0.70442811E+04</totfact>
</mgrwt>
</event>
<event>
 7    0  0.4707675E-002  0.4746730E+03  0.7546771E-02  0.1020610E+00
         21   -1    0    0  502  501  0.00000000000E+00  0.00000000000E+00  0.58426178862E+02  0.58426178862E+02  0.00000000000E+00 0.  1.
         21   -1    0    0  501  502 -0.00000000000E+00 -0.00000000000E+00 -0.96409876442E+03  0.96409876442E+03  0.00000000000E+00 0.  1.
      99926    2    1    2    0    0  0.00000000000E+00  0.00000000000E+00 -0.90567258556E+03  0.10225249433E+04  0.47467296890E+03 0.  0.
      99925    2    3    3    0    0 -0.11800531158E+03  0.56191900000E+02 -0.57051721650E+03  0.64165828329E+03  0.26296896205E+03 0.  0.
         25    1    4    4    0    0 -0.71222991084E+02  0.89870897868E+01 -0.21431702906E+03  0.25832688456E+03  0.12509000000E+03 0.  0.
         25    1    3    3    0    0  0.11800531158E+03 -0.56191900000E+02 -0.33515536905E+03  0.38086665999E+03  0.12509000000E+03 0.  0.
         25    1    4    4    0    0 -0.46782320494E+02  0.47204810213E+02 -0.35620018745E+03  0.38333139874E+03  0.12509000000E+03 0.  0.
<mgrwt>
<rscale>  2 0.47467297E+03</rscale>
<asrwt>0</asrwt>
<pdfrwt beam="1">  1       21 0.85920854E-02 0.47467297E+03</pdfrwt>
<pdfrwt beam="2">  1       21 0.14177923E+00 0.47467297E+03</pdfrwt>
<totfact> 0.32943242E+04</totfact>
</mgrwt>
</event>
<event>
 7    0  0.4707675E-002  0.4422891E+03  0.7546771E-02  0.1030047E+00
         21   -1    0    0  502  501  0.00000000000E+00  0.00000000000E+00  0.54498665429E+02  0.54498665429E+02  0.00000000000E+00 0.  1.
         21   -1    0    0  501  502 -0.00000000000E+00 -0.00000000000E+00 -0.89735961186E+03  0.89735961186E+03  0.00000000000E+00 0.  1.
      99926    2    1    2    0    0  0.00000000000E+00  0.00000000000E+00 -0.84286094643E+03  0.95185827729E+03  0.44228905144E+03 0.  0.
      99925    2    3    3    0    0 -0.76140119058E+02  0.27577782792E+02 -0.40701660757E+03  0.49124385323E+03  0.26286907894E+03 0.  0.
         25    1    3    3    0    0  0.76140119058E+02 -0.27577782792E+02 -0.43584433886E+03  0.46061442406E+03  0.12509000000E+03 0.  0.
         25    1    4    4    0    0  0.15100524157E+00  0.11212271553E+01 -0.20759992423E+03  0.24237680704E+03  0.12509000000E+03 0.  0.
         25    1    4    4    0    0 -0.76291124299E+02  0.26456555636E+02 -0.19941668334E+03  0.24886704619E+03  0.12509000000E+03 0.  0.
<mgrwt>
<rscale>  2 0.44228905E+03</rscale>
<asrwt>0</asrwt>
<pdfrwt beam="1">  1       21 0.80145099E-02 0.44228905E+03</pdfrwt>
<pdfrwt beam="2">  1       21 0.13196464E+00 0.44228905E+03</pdfrwt>
<totfact> 0.45414282E+04</totfact>
</mgrwt>
</event>
<event>
 7    0  0.4707675E-002  0.4810443E+03  0.7546771E-02  0.1018849E+00
         21   -1    0    0  502  501  0.00000000000E+00  0.00000000000E+00  0.22459433618E+02  0.22459433618E+02  0.00000000000E+00 0.  1.
         21   -1    0    0  501  502 -0.00000000000E+00 -0.00000000000E+00 -0.25757955079E+04  0.25757955079E+04  0.00000000000E+00 0.  1.
      99926    2    1    2    0    0  0.00000000000E+00  0.00000000000E+00 -0.25533360743E+04  0.25982549415E+04  0.48104431489E+03 0.  0.
      99925    2    3    3    0    0  0.43303830453E+02 -0.12801998760E+03 -0.14793689301E+04  0.15086140493E+04  0.26290602818E+03 0.  0.
         25    1    4    4    0    0  0.58585671431E+02 -0.77443704694E+02 -0.72123804498E+03  0.73841833260E+03  0.12509000000E+03 0.  0.
         25    1    4    4    0    0 -0.15281840978E+02 -0.50576282909E+02 -0.75813088507E+03  0.77019571672E+03  0.12509000000E+03 0.  0.
         25    1    3    3    0    0 -0.43303830453E+02  0.12801998760E+03 -0.10739671442E+04  0.10896408922E+04  0.12509000000E+03 0.  0.
<mgrwt>
<rscale>  2 0.48104431E+03</rscale>
<asrwt>0</asrwt>
<pdfrwt beam="1">  1       21 0.33028556E-02 0.48104431E+03</pdfrwt>
<pdfrwt beam="2">  1       21 0.37879372E+00 0.48104431E+03</pdfrwt>
<totfact> 0.50705858E+03</totfact>
</mgrwt>
</event>
<event>
 7    0  0.4707675E-002  0.4524925E+03  0.7546771E-02  0.1026981E+00
         21   -1    0    0  502  501  0.00000000000E+00  0.00000000000E+00  0.25411129377E+03  0.25411129377E+03  0.00000000000E+00 0. -1.
         21   -1    0    0  501  502 -0.00000000000E+00 -0.00000000000E+00 -0.20143681983E+03  0.20143681983E+03  0.00000000000E+00 0. -1.
      99926    2    1    2    0    0  0.00000000000E+00  0.00000000000E+00  0.52674473936E+02  0.45554811361E+03  0.45249252326E+03 0.  0.
      99925    2    3    3    0    0  0.49770933626E+02 -0.49988714761E+02  0.11921175993E+03  0.29727387071E+03  0.26302907266E+03 0.  0.
         25    1    3    3    0    0 -0.49770933626E+02  0.49988714761E+02 -0.66537285995E+02  0.15827424290E+03  0.12509000000E+03 0.  0.
         25    1    4    4    0    0  0.22069871510E+02 -0.13814288819E+02  0.10107259942E+03  0.16291437094E+03  0.12509000000E+03 0.  0.
         25    1    4    4    0    0  0.27701062116E+02 -0.36174425942E+02  0.18139160511E+02  0.13435949977E+03  0.12509000000E+03 0.  0.
<mgrwt>
<rscale>  2 0.45249252E+03</rscale>
<asrwt>0</asrwt>
<pdfrwt beam="1">  1       21 0.37369308E-01 0.45249252E+03</pdfrwt>
<pdfrwt beam="2">  1       21 0.29623062E-01 0.45249252E+03</pdfrwt>
<totfact> 0.69893399E+04</totfact>
</mgrwt>
</event>
<event>
 7    0  0.4707675E-002  0.4396280E+03  0.7546771E-02  0.1030861E+00
         21   -1    0    0  502  501  0.00000000000E+00  0.00000000000E+00  0.78586251226E+03  0.78586251226E+03  0.00000000000E+00 0. -1.
         21   -1    0    0  501  502 -0.00000000000E+00 -0.00000000000E+00 -0.61484278875E+02  0.61484278875E+02  0.00000000000E+00 0. -1.
      99926    2    1    2    0    0 -0.13322676296E-14 -0.14210854715E-13  0.72437823339E+03  0.84734679114E+03  0.43962797846E+03 0.  0.
      99925    2    3    3    0    0 -0.18981833492E+01 -0.97347366477E+02  0.47746001497E+03  0.55392520443E+03  0.26341023774E+03 0.  0.
         25    1    4    4    0    0  0.18313925759E+02 -0.50778476913E+02  0.16798844696E+03  0.21629026794E+03  0.12509000000E+03 0.  0.
         25    1    3    3    0    0  0.18981833492E+01  0.97347366477E+02  0.24691821842E+03  0.29342158671E+03  0.12509000000E+03 0.  0.
         25    1    4    4    0    0 -0.20212109108E+02 -0.46568889564E+02  0.30947156801E+03  0.33763493649E+03  0.12509000000E+03 0.  0.
<mgrwt>
<rscale>  2 0.43962798E+03</rscale>
<asrwt>0</asrwt>
<pdfrwt beam="1">  1       21 0.11556801E+00 0.43962798E+03</pdfrwt>
<pdfrwt beam="2">  1       21 0.90418062E-02 0.43962798E+03</pdfrwt>
<totfact> 0.51492363E+04</totfact>
</mgrwt>
</event>
<event>
 7    0  0.4707675E-002  0.4557029E+03  0.7546771E-02  0.1026035E+00
         21   -1    0    0  502  501  0.00000000000E+00  0.00000000000E+00  0.78892723828E+03  0.78892723828E+03  0.00000000000E+00 0. -1.
         21   -1    0    0  501  502 -0.00000000000E+00 -0.00000000000E+00 -0.65806171078E+02  0.65806171078E+02  0.00000000000E+00 0. -1.
      99926    2    1    2    0    0 -0.14210854715E-13  0.00000000000E+00  0.72312106720E+03  0.85473340936E+03  0.45570288922E+03 0.  0.
      99925    2    3    3    0    0  0.82911848820E+02  0.76092731438E+02  0.42271238606E+03  0.51041181222E+03  0.26300185982E+03 0.  0.
         25    1    3    3    0    0 -0.82911848820E+02 -0.76092731438E+02  0.30040868114E+03  0.34432159714E+03  0.12509000000E+03 0.  0.
         25    1    4    4    0    0  0.63910769412E+00  0.39513286691E+02  0.17593587658E+03  0.21945990306E+03  0.12509000000E+03 0.  0.
         25    1    4    4    0    0  0.82272741125E+02  0.36579444748E+02  0.24677650948E+03  0.29095190916E+03  0.12509000000E+03 0.  0.
<mgrwt>
<rscale>  2 0.45570289E+03</rscale>
<asrwt>0</asrwt>
<pdfrwt beam="1">  1       21 0.11601871E+00 0.45570289E+03</pdfrwt>
<pdfrwt beam="2">  1       21 0.96773785E-02 0.45570289E+03</pdfrwt>
<totfact> 0.44979855E+04</totfact>
</mgrwt>
</event>
<event>
 7    0  0.4707675E-002  0.4304112E+03  0.7546771E-02  0.1033730E+00
         21   -1    0    0  502  501  0.00000000000E+00  0.00000000000E+00  0.42394734970E+03  0.42394734970E+03  0.00000000000E+00 0. -1.
         21   -1    0    0  501  502 -0.00000000000E+00 -0.00000000000E+00 -0.10924340462E+03  0.10924340462E+03  0.00000000000E+00 0. -1.
      99926    2    1    2    0    0  0.00000000000E+00  0.00000000000E+00  0.31470394508E+03  0.53319075433E+03  0.43041120739E+03 0.  0.
      99925    2    3    3    0    0  0.37611171235E+02 -0.79397377718E+02  0.19293352018E+03  0.33775767558E+03  0.26294174338E+03 0.  0.
         25    1    4    4    0    0  0.19661229716E+02 -0.15146090811E+02  0.51590701939E+02  0.13756844350E+03  0.12509000000E+03 0.  0.
         25    1    3    3    0    0 -0.37611171235E+02  0.79397377718E+02  0.12177042489E+03  0.19543307875E+03  0.12509000000E+03 0.  0.
         25    1    4    4    0    0  0.17949941519E+02 -0.64251286906E+02  0.14134281824E+03  0.20018923208E+03  0.12509000000E+03 0.  0.
<mgrwt>
<rscale>  2 0.43041121E+03</rscale>
<asrwt>0</asrwt>
<pdfrwt beam="1">  1       21 0.62345198E-01 0.43041121E+03</pdfrwt>
<pdfrwt beam="2">  1       21 0.16065207E-01 0.43041121E+03</pdfrwt>
<totfact> 0.76900212E+04</totfact>
</mgrwt>
</event>
<event>
 7    0  0.4707675E-002  0.4589430E+03  0.7546771E-02  0.1025088E+00
         21   -1    0    0  502  501  0.00000000000E+00  0.00000000000E+00  0.90886213119E+03  0.90886213119E+03  0.00000000000E+00 0. -1.
         21   -1    0    0  501  502 -0.00000000000E+00 -0.00000000000E+00 -0.57937454311E+02  0.57937454311E+02  0.00000000000E+00 0. -1.
      99926    2    1    2    0    0 -0.71054273576E-14  0.00000000000E+00  0.85092467688E+03  0.96679958551E+03  0.45894295158E+03 0.  0.
      99925    2    3    3    0    0 -0.59572469892E+02  0.70025879920E+02  0.68558981604E+03  0.74000534542E+03  0.26291065471E+03 0.  0.
         25    1    4    4    0    0 -0.20953240067E+01  0.11431407308E+02  0.37001954931E+03  0.39076468933E+03  0.12509000000E+03 0.  0.
         25    1    3    3    0    0  0.59572469892E+02 -0.70025879920E+02  0.16533486084E+03  0.22679424009E+03  0.12509000000E+03 0.  0.
         25    1    4    4    0    0 -0.57477145885E+02  0.58594472612E+02  0.31557026673E+03  0.34924065609E+03  0.12509000000E+03 0.  0.
<mgrwt>
<rscale>  2 0.45894295E+03</rscale>
<asrwt>0</asrwt>
<pdfrwt beam="1">  1       21 0.13365619E+00 0.45894295E+03</pdfrwt>
<pdfrwt beam="2">  1       21 0.85202144E-02 0.45894295E+03</pdfrwt>
<totfact> 0.39244125E+04</totfact>
</mgrwt>
</event>
<event>
 7    0  0.4707675E-002  0.4336346E+03  0.7546771E-02  0.1032718E+00
         21   -1    0    0  502  501  0.00000000000E+00  0.00000000000E+00  0.12163566904E+03  0.12163566904E+03  0.00000000000E+00 0. -1.
         21   -1    0    0  501  502 -0.00000000000E+00 -0.00000000000E+00 -0.38647984795E+03  0.38647984795E+03  0.00000000000E+00 0. -1.
      99926    2    1    2    0    0  0.00000000000E+00  0.00000000000E+00 -0.26484417891E+03  0.50811551698E+03  0.43363456908E+03 0.  0.
      99925    2    3    3    0    0  0.17804182857E+02 -0.32552480660E+02 -0.71743212804E+02  0.27506585675E+03  0.26294007690E+03 0.  0.
         25    1    3    3    0    0 -0.17804182857E+02  0.32552480660E+02 -0.19310096610E+03  0.23304966023E+03  0.12509000000E+03 0.  0.
         25    1    4    4    0    0  0.43465142662E+02 -0.34064643415E+02 -0.49605830137E+02  0.14545743378E+03  0.12509000000E+03 0.  0.
         25    1    4    4    0    0 -0.25660959805E+02  0.15121627547E+01 -0.22137382667E+02  0.12960842297E+03  0.12509000000E+03 0.  0.
<mgrwt>
<rscale>  2 0.43363457E+03</rscale>
<asrwt>0</asrwt>
<pdfrwt beam="1">  1       21 0.17887599E-01 0.43363457E+03</pdfrwt>
<pdfrwt beam="2">  1       21 0.56835271E-01 0.43363457E+03</pdfrwt>
<totfact> 0.76936920E+04</totfact>
</mgrwt>
</event>
<event>
 7    0  0.4707675E-002  0.4531342E+03  0.7546771E-02  0.1026791E+00
         21   -1    0    0  502  501  0.00000000000E+00  0.00000000000E+00  0.67362295430E+02  0.67362295430E+02  0.00000000000E+00 0. -1.
         21   -1    0    0  501  502 -0.00000000000E+00 -0.00000000000E+00 -0.76203832500E+03  0.76203832500E+03  0.00000000000E+00 0. -1.
      99926    2    1    2    0    0 -0.23314683517E-14  0.00000000000E+00 -0.69467602957E+03  0.82940062043E+03  0.45313419989E+03 0.  0.
      99925    2    3    3    0    0  0.75192026812E+00 -0.59274404437E+02 -0.26533676319E+03  0.37829782265E+03  0.26304300850E+03 0.  0.
         25    1    3    3    0    0 -0.75192026812E+00  0.59274404437E+02 -0.42933926638E+03  0.45110279778E+03  0.12509000000E+03 0.  0.
         25    1    4    4    0    0  0.32072837072E+02 -0.37635982413E+01 -0.12328674656E+03  0.17857760645E+03  0.12509000000E+03 0.  0.
         25    1    4    4    0    0 -0.31320916804E+02 -0.55510806196E+02 -0.14205001663E+03  0.19972021620E+03  0.12509000000E+03 0.  0.
<mgrwt>
<rscale>  2 0.45313420E+03</rscale>
<asrwt>0</asrwt>
<pdfrwt beam="1">  1       21 0.99062203E-02 0.45313420E+03</pdfrwt>
<pdfrwt beam="2">  1       21 0.11206446E+00 0.45313420E+03</pdfrwt>
<totfact> 0.47060545E+04</totfact>
</mgrwt>
</event>
<event>
 7    0  0.4707675E-002  0.4599147E+03  0.7546771E-02  0.1024806E+00
         21   -1    0    0  502  501  0.00000000000E+00  0.00000000000E+00  0.81125836850E+02  0.81125836850E+02  0.00000000000E+00 0. -1.
         21   -1    0    0  501  502 -0.00000000000E+00 -0.00000000000E+00 -0.65183147558E+03  0.65183147558E+03  0.00000000000E+00 0. -1.
      99926    2    1    2    0    0  0.00000000000E+00  0.00000000000E+00 -0.57070563873E+03  0.73295731243E+03  0.45991466140E+03 0.  0.
      99925    2    3    3    0    0  0.80179798775E+02 -0.55077730236E+02 -0.46321457428E+03  0.54147834874E+03  0.26299943694E+03 0.  0.
         25    1    4    4    0    0  0.28475531313E+02 -0.49004031473E+02 -0.17051950464E+03  0.21894442342E+03  0.12509000000E+03 0.  0.
         25    1    3    3    0    0 -0.80179798775E+02  0.55077730236E+02 -0.10749106445E+03  0.19147896369E+03  0.12509000000E+03 0.  0.
         25    1    4    4    0    0  0.51704267461E+02 -0.60736987638E+01 -0.29269506964E+03  0.32253392532E+03  0.12509000000E+03 0.  0.
<mgrwt>
<rscale>  2 0.45991466E+03</rscale>
<asrwt>0</asrwt>
<pdfrwt beam="1">  1       21 0.11930270E-01 0.45991466E+03</pdfrwt>
<pdfrwt beam="2">  1       21 0.95857571E-01 0.45991466E+03</pdfrwt>
<totfact> 0.49220061E+04</totfact>
</mgrwt>
</event>
<event>
 7    0  0.4707675E-002  0.4520226E+03  0.7546771E-02  0.1027121E+00
         21   -1    0    0  502  501  0.00000000000E+00  0.00000000000E+00  0.18290238475E+03  0.18290238475E+03  0.00000000000E+00 0.  1.
         21   -1    0    0  501  502 -0.00000000000E+00 -0.00000000000E+00 -0.27928073768E+03  0.27928073768E+03  0.00000000000E+00 0.  1.
      99926    2    1    2    0    0  0.00000000000E+00  0.00000000000E+00 -0.96378352927E+02  0.46218312243E+03  0.45202262304E+03 0.  0.
      99925    2    3    3    0    0 -0.25611861101E+02 -0.43753284812E+02  0.39432683604E+02  0.27070867738E+03  0.26297896135E+03 0.  0.
         25    1    3    3    0    0  0.25611861101E+02  0.43753284812E+02 -0.13581103653E+03  0.19147444504E+03  0.12509000000E+03 0.  0.
         25    1    4    4    0    0 -0.12183161701E+02 -0.60666193615E+02  0.72172104615E+01  0.13974409721E+03  0.12509000000E+03 0.  0.
         25    1    4    4    0    0 -0.13428699399E+02  0.16912908804E+02  0.32215473142E+02  0.13096458018E+03  0.12509000000E+03 0.  0.
<mgrwt>
<rscale>  2 0.45202262E+03</rscale>
<asrwt>0</asrwt>
<pdfrwt beam="1">  1       21 0.26897410E-01 0.45202262E+03</pdfrwt>
<pdfrwt beam="2">  1       21 0.41070696E-01 0.45202262E+03</pdfrwt>
<totfact> 0.69652644E+04</totfact>
</mgrwt>
</event>
<event>
 7    0  0.4707675E-002  0.4487267E+03  0.7546771E-02  0.1028102E+00
         21   -1    0    0  502  501  0.00000000000E+00  0.00000000000E+00  0.44782575057E+03  0.44782575057E+03  0.00000000000E+00 0. -1.
         21   -1    0    0  501  502 -0.00000000000E+00 -0.00000000000E+00 -0.11240735860E+03  0.11240735860E+03  0.00000000000E+00 0. -1.
      99926    2    1    2    0    0  0.00000000000E+00  0.00000000000E+00  0.33541839197E+03  0.56023310917E+03  0.44872668623E+03 0.  0.
      99925    2    3    3    0    0 -0.57446187593E+02  0.71105377151E+02  0.28161388333E+03  0.39622557160E+03  0.26331024510E+03 0.  0.
         25    1    4    4    0    0 -0.46552177745E+02  0.23191205074E+02  0.91779300039E+02  0.16363338676E+03  0.12509000000E+03 0.  0.
         25    1    4    4    0    0 -0.10894009848E+02  0.47914172077E+02  0.18983458329E+03  0.23259218484E+03  0.12509000000E+03 0.  0.
         25    1    3    3    0    0  0.57446187593E+02 -0.71105377151E+02  0.53804508644E+02  0.16400753757E+03  0.12509000000E+03 0.  0.
<mgrwt>
<rscale>  2 0.44872669E+03</rscale>
<asrwt>0</asrwt>
<pdfrwt beam="1">  1       21 0.65856727E-01 0.44872669E+03</pdfrwt>
<pdfrwt beam="2">  1       21 0.16530494E-01 0.44872669E+03</pdfrwt>
<totfact> 0.64328384E+04</totfact>
</mgrwt>
</event>
<event>
 7    0  0.4707675E-002  0.4229907E+03  0.7546771E-02  0.1036097E+00
         21   -1    0    0  502  501  0.00000000000E+00  0.00000000000E+00  0.27012113388E+03  0.27012113388E+03  0.00000000000E+00 0. -1.
         21   -1    0    0  501  502 -0.00000000000E+00 -0.00000000000E+00 -0.16559342252E+03  0.16559342252E+03  0.00000000000E+00 0. -1.
      99926    2    1    2    0    0  0.00000000000E+00  0.14210854715E-13  0.10452771136E+03  0.43571455640E+03  0.42299069992E+03 0.  0.
      99925    2    3    3    0    0 -0.25054207357E+02 -0.63438090138E+02  0.10997339223E+03  0.29313381392E+03  0.26302315730E+03 0.  0.
         25    1    4    4    0    0  0.10366427501E+02 -0.80171588582E+00  0.33989940580E+02  0.13004203062E+03  0.12509000000E+03 0.  0.
         25    1    3    3    0    0  0.25054207357E+02  0.63438090138E+02 -0.54456808714E+01  0.14258074248E+03  0.12509000000E+03 0.  0.
         25    1    4    4    0    0 -0.35420634859E+02 -0.62636374253E+02  0.75983451652E+02  0.16309178329E+03  0.12509000000E+03 0.  0.
<mgrwt>
<rscale>  2 0.42299070E+03</rscale>
<asrwt>0</asrwt>
<pdfrwt beam="1">  1       21 0.39723696E-01 0.42299070E+03</pdfrwt>
<pdfrwt beam="2">  1       21 0.24351974E-01 0.42299070E+03</pdfrwt>
<totfact> 0.91095135E+04</totfact>
</mgrwt>
</event>
<event>
 7    0  0.4707675E-002  0.4546589E+03  0.7546771E-02  0.1026342E+00
         21   -1    0    0  502  501  0.00000000000E+00  0.00000000000E+00  0.31167913388E+03  0.31167913388E+03  0.00000000000E+00 0.  1.
         21   -1    0    0  501  502 -0.00000000000E+00 -0.00000000000E+00 -0.16580731460E+03  0.16580731460E+03  0.00000000000E+00 0.  1.
      99926    2    1    2    0    0  0.00000000000E+00  0.14210854715E-13  0.14587181928E+03  0.47748644847E+03  0.45465890601E+03 0.  0.
      99925    2    3    3    0    0 -0.64346453703E+02  0.92462827392E+02  0.85856378797E+02  0.29877102734E+03  0.26306457087E+03 0.  0.
         25    1    4    4    0    0 -0.50633613910E+02  0.85852207282E+02  0.53735713585E+02  0.16872877457E+03  0.12509000000E+03 0.  0.
         25    1    3    3    0    0  0.64346453703E+02 -0.92462827392E+02  0.60015440481E+02  0.17871542113E+03  0.12509000000E+03 0.  0.
         25    1    4    4    0    0 -0.13712839793E+02  0.66106201099E+01  0.32120665212E+02  0.13004225278E+03  0.12509000000E+03 0.  0.
<mgrwt>
<rscale>  2 0.45465891E+03</rscale>
<asrwt>0</asrwt>
<pdfrwt beam="1">  1       21 0.45835167E-01 0.45465891E+03</pdfrwt>
<pdfrwt beam="2">  1       21 0.24383429E-01 0.45465891E+03</pdfrwt>
<totfact> 0.67064896E+04</totfact>
</mgrwt>
</event>
<event>
 7    0  0.4707675E-002  0.4503785E+03  0.7546771E-02  0.1027609E+00
         21   -1    0    0  502  501  0.00000000000E+00  0.00000000000E+00  0.16227720498E+04  0.16227720498E+04  0.00000000000E+00 0. -1.
         21   -1    0    0  501  502 -0.00000000000E+00 -0.00000000000E+00 -0.31249125737E+02  0.31249125737E+02  0.00000000000E+00 0. -1.
      99926    2    1    2    0    0  0.00000000000E+00 -0.17763568394E-14  0.15915229241E+04  0.16540211756E+04  0.45037854224E+03 0.  0.
      99925    2    3    3    0    0  0.64677467503E+02 -0.79115677016E+01  0.13256841441E+04  0.13530834200E+04  0.26296487166E+03 0.  0.
         25    1    4    4    0    0  0.15848758204E+02  0.13969330338E+02  0.47788971806E+03  0.49444151935E+03  0.12509000000E+03 0.  0.
         25    1    3    3    0    0 -0.64677467503E+02  0.79115677016E+01  0.26583877999E+03  0.30093775561E+03  0.12509000000E+03 0.  0.
         25    1    4    4    0    0  0.48828709299E+02 -0.21880898040E+02  0.84779442606E+03  0.85864190062E+03  0.12509000000E+03 0.  0.
<mgrwt>
<rscale>  2 0.45037854E+03</rscale>
<asrwt>0</asrwt>
<pdfrwt beam="1">  1       21 0.23864289E+00 0.45037854E+03</pdfrwt>
<pdfrwt beam="2">  1       21 0.45954608E-02 0.45037854E+03</pdfrwt>
<totfact> 0.20978870E+04</totfact>
</mgrwt>
</event>
<event>
 7    0  0.4707675E-002  0.4522033E+03  0.7546771E-02  0.1027067E+00
         21   -1    0    0  502  501  0.00000000000E+00  0.00000000000E+00  0.14186708841E+03  0.14186708841E+03  0.00000000000E+00 0. -1.
         21   -1    0    0  501  502 -0.00000000000E+00 -0.00000000000E+00 -0.36035112953E+03  0.36035112953E+03  0.00000000000E+00 0. -1.
      99926    2    1    2    0    0  0.00000000000E+00  0.00000000000E+00 -0.21848404111E+03  0.50221821794E+03  0.45220334166E+03 0.  0.
      99925    2    3    3    0    0 -0.62088917401E+02 -0.31663480722E+02 -0.23349949041E+03  0.35823703343E+03  0.26259122305E+03 0.  0.
         25    1    4    4    0    0 -0.19402051352E+02 -0.21416717552E+02 -0.16485601287E+03  0.20895006214E+03  0.12509000000E+03 0.  0.
         25    1    3    3    0    0  0.62088917401E+02  0.31663480722E+02  0.15015449297E+02  0.14398118451E+03  0.12509000000E+03 0.  0.
         25    1    4    4    0    0 -0.42686866049E+02 -0.10246763170E+02 -0.68643477542E+02  0.14928697129E+03  0.12509000000E+03 0.  0.
<mgrwt>
<rscale>  2 0.45220334E+03</rscale>
<asrwt>0</asrwt>
<pdfrwt beam="1">  1       21 0.20862807E-01 0.45220334E+03</pdfrwt>
<pdfrwt beam="2">  1       21 0.52992813E-01 0.45220334E+03</pdfrwt>
<totfact> 0.66580867E+04</totfact>
</mgrwt>
</event>
<event>
 7    0  0.4707675E-002  0.4478410E+03  0.7546771E-02  0.1028368E+00
         21   -1    0    0  502  501  0.00000000000E+00  0.00000000000E+00  0.13832173294E+03  0.13832173294E+03  0.00000000000E+00 0.  1.
         21   -1    0    0  501  502 -0.00000000000E+00 -0.00000000000E+00 -0.36249102935E+03  0.36249102935E+03  0.00000000000E+00 0.  1.
      99926    2    1    2    0    0  0.14210854715E-13  0.35527136788E-14 -0.22416929641E+03  0.50081276229E+03  0.44784098675E+03 0.  0.
      99925    2    3    3    0    0 -0.96605199418E+02 -0.12605799213E+02 -0.18961538996E+03  0.33853845354E+03  0.26298824629E+03 0.  0.
         25    1    4    4    0    0 -0.35057669498E+02  0.28641536911E+02 -0.11101333229E+03  0.17326524716E+03  0.12509000000E+03 0.  0.
         25    1    4    4    0    0 -0.61547529920E+02 -0.41247336124E+02 -0.78602057662E+02  0.16527320637E+03  0.12509000000E+03 0.  0.
         25    1    3    3    0    0  0.96605199418E+02  0.12605799213E+02 -0.34553906458E+02  0.16227430875E+03  0.12509000000E+03 0.  0.
<mgrwt>
<rscale>  2 0.44784099E+03</rscale>
<asrwt>0</asrwt>
<pdfrwt beam="1">  1       21 0.20341432E-01 0.44784099E+03</pdfrwt>
<pdfrwt beam="2">  1       21 0.53307504E-01 0.44784099E+03</pdfrwt>
<totfact> 0.69054878E+04</totfact>
</mgrwt>
</event>
<event>
 7    0  0.4707675E-002  0.4508719E+03  0.7546771E-02  0.1027462E+00
         21   -1    0    0  502  501  0.00000000000E+00  0.00000000000E+00  0.17494923378E+04  0.17494923378E+04  0.00000000000E+00 0.  1.
         21   -1    0    0  501  502 -0.00000000000E+00 -0.00000000000E+00 -0.29049212634E+02  0.29049212634E+02  0.00000000000E+00 0.  1.
      99926    2    1    2    0    0  0.00000000000E+00  0.14210854715E-13  0.17204431252E+04  0.17785415504E+04  0.45087193270E+03 0.  0.
      99925    2    3    3    0    0  0.24068730901E+02 -0.72024278171E+02  0.13964865207E+04  0.14230669520E+04  0.26301738905E+03 0.  0.
         25    1    3    3    0    0 -0.24068730901E+02  0.72024278171E+02  0.32395660451E+03  0.35547459847E+03  0.12509000000E+03 0.  0.
         25    1    4    4    0    0  0.16662756560E+02 -0.10599192476E+02  0.50025948029E+03  0.51603977178E+03  0.12509000000E+03 0.  0.
         25    1    4    4    0    0  0.74059743410E+01 -0.61425085695E+02  0.89622704038E+03  0.90702718020E+03  0.12509000000E+03 0.  0.
<mgrwt>
<rscale>  2 0.45087193E+03</rscale>
<asrwt>0</asrwt>
<pdfrwt beam="1">  1       21 0.25727821E+00 0.45087193E+03</pdfrwt>
<pdfrwt beam="2">  1       21 0.42719442E-02 0.45087193E+03</pdfrwt>
<totfact> 0.18253460E+04</totfact>
</mgrwt>
</event>
<event>
 7    0  0.4707675E-002  0.4534938E+03  0.7546771E-02  0.1026685E+00
         21   -1    0    0  502  501  0.00000000000E+00  0.00000000000E+00  0.49291156062E+02  0.49291156062E+02  0.00000000000E+00 0.  1.
         21   -1    0    0  501  502 -0.00000000000E+00 -0.00000000000E+00 -0.10430707161E+04  0.10430707161E+04  0.00000000000E+00 0.  1.
      99926    2    1    2    0    0 -0.17763568394E-14 -0.71054273576E-14 -0.99377956008E+03  0.10923618722E+04  0.45349382114E+03 0.  0.
      99925    2    3    3    0    0 -0.12180143836E+02 -0.50144660376E+02 -0.86495560860E+03  0.90553050053E+03  0.26301034136E+03 0.  0.
         25    1    3    3    0    0  0.12180143836E+02  0.50144660376E+02 -0.12882395147E+03  0.18683137167E+03  0.12509000000E+03 0.  0.
         25    1    4    4    0    0  0.83512293070E+01 -0.52663371804E+02 -0.35784907869E+03  0.38281411283E+03  0.12509000000E+03 0.  0.
         25    1    4    4    0    0 -0.20531373143E+02  0.25187114283E+01 -0.50710652991E+03  0.52271638769E+03  0.12509000000E+03 0.  0.
<mgrwt>
<rscale>  2 0.45349382E+03</rscale>
<asrwt>0</asrwt>
<pdfrwt beam="1">  1       21 0.72486993E-02 0.45349382E+03</pdfrwt>
<pdfrwt beam="2">  1       21 0.15339275E+00 0.45349382E+03</pdfrwt>
<totfact> 0.36183560E+04</totfact>
</mgrwt>
</event>
<event>
 7    0  0.4707675E-002  0.4562728E+03  0.7546771E-02  0.1025868E+00
         21   -1    0    0  502  501  0.00000000000E+00  0.00000000000E+00  0.55701114950E+03  0.55701114950E+03  0.00000000000E+00 0.  1.
         21   -1    0    0  501  502 -0.00000000000E+00 -0.00000000000E+00 -0.93438386586E+02  0.93438386586E+02  0.00000000000E+00 0.  1.
      99926    2    1    2    0    0 -0.71054273576E-14  0.14210854715E-13  0.46357276291E+03  0.65044953609E+03  0.45627282680E+03 0.  0.
      99925    2    3    3    0    0 -0.51672041139E+02  0.87010693033E+02  0.21511632267E+03  0.35444451698E+03  0.26289736172E+03 0.  0.
         25    1    4    4    0    0 -0.25415359768E+02  0.55173651351E+02  0.61401105663E+02  0.15201209226E+03  0.12509000000E+03 0.  0.
         25    1    3    3    0    0  0.51672041139E+02 -0.87010693033E+02  0.24845644025E+03  0.29600501911E+03  0.12509000000E+03 0.  0.
         25    1    4    4    0    0 -0.26256681371E+02  0.31837041682E+02  0.15371521700E+03  0.20243242472E+03  0.12509000000E+03 0.  0.
<mgrwt>
<rscale>  2 0.45627283E+03</rscale>
<asrwt>0</asrwt>
<pdfrwt beam="1">  1       21 0.81913403E-01 0.45627283E+03</pdfrwt>
<pdfrwt beam="2">  1       21 0.13740939E-01 0.45627283E+03</pdfrwt>
<totfact> 0.55120039E+04</totfact>
</mgrwt>
</event>
<event>
 7    0  0.4707675E-002  0.4483682E+03  0.7546771E-02  0.1028210E+00
         21   -1    0    0  502  501  0.00000000000E+00  0.00000000000E+00  0.11508418378E+04  0.11508418378E+04  0.00000000000E+00 0. -1.
         21   -1    0    0  501  502 -0.00000000000E+00 -0.00000000000E+00 -0.43671081558E+02  0.43671081558E+02  0.00000000000E+00 0. -1.
      99926    2    1    2    0    0  0.00000000000E+00  0.14210854715E-13  0.11071707563E+04  0.11945129194E+04  0.44836818692E+03 0.  0.
      99925    2    3    3    0    0 -0.51336570143E+02 -0.93642865339E+02  0.70950887725E+03  0.76417943500E+03  0.26298846421E+03 0.  0.
         25    1    4    4    0    0 -0.58732610857E+02 -0.46366566873E+02  0.30427969316E+03  0.33739149051E+03  0.12509000000E+03 0.  0.
         25    1    4    4    0    0  0.73960407135E+01 -0.47276298466E+02  0.40522918410E+03  0.42678794449E+03  0.12509000000E+03 0.  0.
         25    1    3    3    0    0  0.51336570143E+02  0.93642865339E+02  0.39766187900E+03  0.43033348438E+03  0.12509000000E+03 0.  0.
<mgrwt>
<rscale>  2 0.44836819E+03</rscale>
<asrwt>0</asrwt>
<pdfrwt beam="1">  1       21 0.16924143E+00 0.44836819E+03</pdfrwt>
<pdfrwt beam="2">  1       21 0.64222186E-02 0.44836819E+03</pdfrwt>
<totfact> 0.34056081E+04</totfact>
</mgrwt>
</event>
<event>
 7    0  0.4707675E-002  0.4564266E+03  0.7546771E-02  0.1025823E+00
         21   -1    0    0  502  501  0.00000000000E+00  0.00000000000E+00  0.79511056905E+03  0.79511056905E+03  0.00000000000E+00 0. -1.
         21   -1    0    0  501  502 -0.00000000000E+00 -0.00000000000E+00 -0.65501963090E+02  0.65501963090E+02  0.00000000000E+00 0. -1.
      99926    2    1    2    0    0  0.00000000000E+00  0.17763568394E-14  0.72960860596E+03  0.86061253214E+03  0.45642656867E+03 0.  0.
      99925    2    3    3    0    0  0.11199685338E+03 -0.10619591996E+02  0.49888922906E+03  0.57506917312E+03  0.26297912484E+03 0.  0.
         25    1    4    4    0    0  0.38107640456E+02  0.68204587412E+00  0.16328954435E+03  0.20919761194E+03  0.12509000000E+03 0.  0.
         25    1    3    3    0    0 -0.11199685338E+03  0.10619591996E+02  0.23071937690E+03  0.28554335901E+03  0.12509000000E+03 0.  0.
         25    1    4    4    0    0  0.73889212924E+02 -0.11301637870E+02  0.33559968471E+03  0.36587156118E+03  0.12509000000E+03 0.  0.
<mgrwt>
<rscale>  2 0.45642657E+03</rscale>
<asrwt>0</asrwt>
<pdfrwt beam="1">  1       21 0.11692802E+00 0.45642657E+03</pdfrwt>
<pdfrwt beam="2">  1       21 0.96326421E-02 0.45642657E+03</pdfrwt>
<totfact> 0.44468612E+04</totfact>
</mgrwt>
</event>
<event>
 7    0  0.4707675E-002  0.4539981E+03  0.7546771E-02  0.1026536E+00
         21   -1    0    0  502  501  0.00000000000E+00  0.00000000000E+00  0.25565908787E+03  0.25565908787E+03  0.00000000000E+00 0.  1.
         21   -1    0    0  501  502 -0.00000000000E+00 -0.00000000000E+00 -0.20155190002E+03  0.20155190002E+03  0.00000000000E+00 0.  1.
      99926    2    1    2    0    0  0.00000000000E+00  0.00000000000E+00  0.54107187844E+02  0.45721098789E+03  0.45399812739E+03 0.  0.
      99925    2    3    3    0    0 -0.67383944178E+02 -0.87846383444E+02  0.16514983258E+02  0.28598521599E+03  0.26316765773E+03 0.  0.
         25    1    4    4    0    0 -0.59071464722E+02 -0.37834460626E+02 -0.23220394075E+02  0.14528447665E+03  0.12509000000E+03 0.  0.
         25    1    3    3    0    0  0.67383944178E+02  0.87846383444E+02  0.37592204586E+02  0.17122577190E+03  0.12509000000E+03 0.  0.
         25    1    4    4    0    0 -0.83124794559E+01 -0.50011922819E+02  0.39735377333E+02  0.14070073934E+03  0.12509000000E+03 0.  0.
<mgrwt>
<rscale>  2 0.45399813E+03</rscale>
<asrwt>0</asrwt>
<pdfrwt beam="1">  1       21 0.37596925E-01 0.45399813E+03</pdfrwt>
<pdfrwt beam="2">  1       21 0.29639985E-01 0.45399813E+03</pdfrwt>
<totfact> 0.68933369E+04</totfact>
</mgrwt>
</event>
<event>
 7    0  0.4707675E-002  0.4531910E+03  0.7546771E-02  0.1026775E+00
         21   -1    0    0  502  501  0.00000000000E+00  0.00000000000E+00  0.88305594518E+03  0.88305594518E+03  0.00000000000E+00 0.  1.
         21   -1    0    0  501  502 -0.00000000000E+00 -0.00000000000E+00 -0.58145255276E+02  0.58145255276E+02  0.00000000000E+00 0.  1.
      99926    2    1    2    0    0  0.00000000000E+00  0.00000000000E+00  0.82491068990E+03  0.94120120045E+03  0.45319096794E+03 0.  0.
      99925    2    3    3    0    0 -0.18262890251E+02 -0.51023373936E+02  0.72235388088E+03  0.77060716473E+03  0.26287517049E+03 0.  0.
         25    1    3    3    0    0  0.18262890251E+02  0.51023373936E+02  0.10255680902E+03  0.17059403572E+03  0.12509000000E+03 0.  0.
         25    1    4    4    0    0 -0.46730989075E+02 -0.12922669482E+02  0.38313531526E+03  0.40594452653E+03  0.12509000000E+03 0.  0.
         25    1    4    4    0    0  0.28468098824E+02 -0.38100704455E+02  0.33921856563E+03  0.36466263820E+03  0.12509000000E+03 0.  0.
<mgrwt>
<rscale>  2 0.45319097E+03</rscale>
<asrwt>0</asrwt>
<pdfrwt beam="1">  1       21 0.12986116E+00 0.45319097E+03</pdfrwt>
<pdfrwt beam="2">  1       21 0.85507734E-02 0.45319097E+03</pdfrwt>
<totfact> 0.42091503E+04</totfact>
</mgrwt>
</event>
<event>
 7    0  0.4707675E-002  0.4592394E+03  0.7546771E-02  0.1025002E+00
         21   -1    0    0  502  501  0.00000000000E+00  0.00000000000E+00  0.13873841351E+03  0.13873841351E+03  0.00000000000E+00 0.  1.
         21   -1    0    0  501  502 -0.00000000000E+00 -0.00000000000E+00 -0.38003328637E+03  0.38003328637E+03  0.00000000000E+00 0.  1.
      99926    2    1    2    0    0  0.14210854715E-13 -0.71054273576E-14 -0.24129487286E+03  0.51877169987E+03  0.45923943746E+03 0.  0.
      99925    2    3    3    0    0  0.84283675775E+02 -0.47604020669E+02 -0.76569780397E+02  0.29040413437E+03  0.26287211568E+03 0.  0.
         25    1    4    4    0    0  0.71696693026E+02 -0.30311419409E+02 -0.11476234327E+02  0.14777824600E+03  0.12509000000E+03 0.  0.
         25    1    4    4    0    0  0.12586982750E+02 -0.17292601259E+02 -0.65093546070E+02  0.14262588837E+03  0.12509000000E+03 0.  0.
         25    1    3    3    0    0 -0.84283675775E+02  0.47604020669E+02 -0.16472509247E+03  0.22836756550E+03  0.12509000000E+03 0.  0.
<mgrwt>
<rscale>  2 0.45923944E+03</rscale>
<asrwt>0</asrwt>
<pdfrwt beam="1">  1       21 0.20402708E-01 0.45923944E+03</pdfrwt>
<pdfrwt beam="2">  1       21 0.55887246E-01 0.45923944E+03</pdfrwt>
<totfact> 0.61863671E+04</totfact>
</mgrwt>
</event>
<event>
 7    0  0.4707675E-002  0.4692046E+03  0.7546771E-02  0.1022145E+00
         21   -1    0    0  502  501  0.00000000000E+00  0.00000000000E+00  0.70595246380E+03  0.70595246380E+03  0.00000000000E+00 0. -1.
         21   -1    0    0  501  502 -0.00000000000E+00 -0.00000000000E+00 -0.77963108095E+02  0.77963108095E+02  0.00000000000E+00 0. -1.
      99926    2    1    2    0    0  0.00000000000E+00 -0.14210854715E-13  0.62798935571E+03  0.78391557189E+03  0.46920463870E+03 0.  0.
      99925    2    3    3    0    0 -0.56178019051E+02 -0.11246027402E+03  0.37467985341E+03  0.47469640187E+03  0.26296083043E+03 0.  0.
         25    1    4    4    0    0 -0.49256066192E+02 -0.57620038105E+02  0.24994854806E+03  0.28959974729E+03  0.12509000000E+03 0.  0.
         25    1    4    4    0    0 -0.69219528588E+01 -0.54840235912E+02  0.12473130535E+03  0.18509665459E+03  0.12509000000E+03 0.  0.
         25    1    3    3    0    0  0.56178019051E+02  0.11246027402E+03  0.25330950229E+03  0.30921917002E+03  0.12509000000E+03 0.  0.
<mgrwt>
<rscale>  2 0.46920464E+03</rscale>
<asrwt>0</asrwt>
<pdfrwt beam="1">  1       21 0.10381654E+00 0.46920464E+03</pdfrwt>
<pdfrwt beam="2">  1       21 0.11465163E-01 0.46920464E+03</pdfrwt>
<totfact> 0.43496709E+04</totfact>
</mgrwt>
</event>
<event>
 7    0  0.4707675E-002  0.4514833E+03  0.7546771E-02  0.1027281E+00
         21   -1    0    0  502  501  0.00000000000E+00  0.00000000000E+00  0.26884833572E+04  0.26884833572E+04  0.00000000000E+00 0. -1.
         21   -1    0    0  501  502 -0.00000000000E+00 -0.00000000000E+00 -0.18954659055E+02  0.18954659055E+02  0.00000000000E+00 0. -1.
      99926    2    1    2    0    0  0.22204460493E-15  0.00000000000E+00  0.26695286982E+04  0.27074380163E+04  0.45148326841E+03 0.  0.
      99925    2    3    3    0    0 -0.17994738793E+01 -0.86115481221E+02  0.12800017268E+04  0.13096355172E+04  0.26329005498E+03 0.  0.
         25    1    4    4    0    0 -0.27081198632E+02 -0.19259383475E+02  0.50267043902E+03  0.51906588554E+03  0.12509000000E+03 0.  0.
         25    1    4    4    0    0  0.25281724752E+02 -0.66856097746E+02  0.77733128779E+03  0.79056963165E+03  0.12509000000E+03 0.  0.
         25    1    3    3    0    0  0.17994738793E+01  0.86115481221E+02  0.13895269714E+04  0.13978024991E+04  0.12509000000E+03 0.  0.
<mgrwt>
<rscale>  2 0.45148327E+03</rscale>
<asrwt>0</asrwt>
<pdfrwt beam="1">  1       21 0.39536494E+00 0.45148327E+03</pdfrwt>
<pdfrwt beam="2">  1       21 0.27874517E-02 0.45148327E+03</pdfrwt>
<totfact> 0.53794993E+03</totfact>
</mgrwt>
</event>
<event>
 6    0  0.4707675E-002  0.4551226E+03  0.7546771E-02  0.1026205E+00
         21   -1    0    0  502  501  0.00000000000E+00  0.00000000000E+00  0.21160494776E+04  0.21160494776E+04  0.00000000000E+00 0. -1.
         21   -1    0    0  501  502 -0.00000000000E+00 -0.00000000000E+00 -0.24472083441E+02  0.24472083441E+02  0.00000000000E+00 0. -1.
      99926    2    1    2    0    0  0.00000000000E+00  0.00000000000E+00  0.20915773941E+04  0.21405215610E+04  0.45512257417E+03 0.  0.
         25    1    3    3    0    0  0.30032769434E+02 -0.66556072557E+02  0.58307622758E+03  0.60079703171E+03  0.12509000000E+03 0.  0.
         25    1    3    3    0    0 -0.93159844840E+02  0.56590182814E+02  0.72629151471E+03  0.74500206571E+03  0.12509000000E+03 0.  0.
         25    1    3    3    0    0  0.63127075406E+02  0.99658897435E+01  0.78220965183E+03  0.79472246358E+03  0.12509000000E+03 0.  0.
<mgrwt>
<rscale>  2 0.45512257E+03</rscale>
<asrwt>0</asrwt>
<pdfrwt beam="1">  1       21 0.31118362E+00 0.45512257E+03</pdfrwt>
<pdfrwt beam="2">  1       21 0.35988372E-02 0.45512257E+03</pdfrwt>
<totfact> 0.11537257E+04</totfact>
</mgrwt>
</event>
<event>
 7    0  0.4707675E-002  0.4610038E+03  0.7546771E-02  0.1024491E+00
         21   -1    0    0  502  501  0.00000000000E+00  0.00000000000E+00  0.29395587042E+03  0.29395587042E+03  0.00000000000E+00 0. -1.
         21   -1    0    0  501  502 -0.00000000000E+00 -0.00000000000E+00 -0.18074521404E+03  0.18074521404E+03  0.00000000000E+00 0. -1.
      99926    2    1    2    0    0  0.00000000000E+00  0.00000000000E+00  0.11321065638E+03  0.47470108447E+03  0.46100376015E+03 0.  0.
      99925    2    3    3    0    0 -0.87367563695E+02  0.70053327352E+02  0.30129825220E+02  0.28737651997E+03  0.26293896250E+03 0.  0.
         25    1    3    3    0    0  0.87367563695E+02 -0.70053327352E+02  0.83080831159E+02  0.18732456450E+03  0.12509000000E+03 0.  0.
         25    1    4    4    0    0 -0.55319504191E+02  0.64145589225E+02  0.44055003703E+02  0.15736345069E+03  0.12509000000E+03 0.  0.
         25    1    4    4    0    0 -0.32048059505E+02  0.59077381277E+01 -0.13925178483E+02  0.13001306928E+03  0.12509000000E+03 0.  0.
<mgrwt>
<rscale>  2 0.46100376E+03</rscale>
<asrwt>0</asrwt>
<pdfrwt beam="1">  1       21 0.43228805E-01 0.46100376E+03</pdfrwt>
<pdfrwt beam="2">  1       21 0.26580178E-01 0.46100376E+03</pdfrwt>
<totfact> 0.63985410E+04</totfact>
</mgrwt>
</event>
<event>
 7    0  0.4707675E-002  0.4500714E+03  0.7546771E-02  0.1027701E+00
         21   -1    0    0  502  501  0.00000000000E+00  0.00000000000E+00  0.43404670249E+03  0.43404670249E+03  0.00000000000E+00 0.  1.
         21   -1    0    0  501  502 -0.00000000000E+00 -0.00000000000E+00 -0.11667190924E+03  0.11667190924E+03  0.00000000000E+00 0.  1.
      99926    2    1    2    0    0  0.00000000000E+00  0.00000000000E+00  0.31737479325E+03  0.55071861173E+03  0.45007136092E+03 0.  0.
      99925    2    3    3    0    0 -0.93462584993E+02  0.31947878100E+02  0.25550790179E+03  0.37974802342E+03  0.26299876750E+03 0.  0.
         25    1    3    3    0    0  0.93462584993E+02 -0.31947878100E+02  0.61866891460E+02  0.17097058831E+03  0.12509000000E+03 0.  0.
         25    1    4    4    0    0 -0.29246280183E+02  0.13249294938E+02  0.72168170289E+02  0.14794134521E+03  0.12509000000E+03 0.  0.
         25    1    4    4    0    0 -0.64216304811E+02  0.18698583162E+02  0.18333973150E+03  0.23180667821E+03  0.12509000000E+03 0.  0.
<mgrwt>
<rscale>  2 0.45007136E+03</rscale>
<asrwt>0</asrwt>
<pdfrwt beam="1">  1       21 0.63830397E-01 0.45007136E+03</pdfrwt>
<pdfrwt beam="2">  1       21 0.17157634E-01 0.45007136E+03</pdfrwt>
<totfact> 0.64289511E+04</totfact>
</mgrwt>
</event>
<event>
 7    0  0.4707675E-002  0.4528116E+03  0.7546771E-02  0.1026887E+00
         21   -1    0    0  502  501  0.00000000000E+00  0.00000000000E+00  0.49277498363E+03  0.49277498363E+03  0.00000000000E+00 0.  1.
         21   -1    0    0  501  502 -0.00000000000E+00 -0.00000000000E+00 -0.10402231512E+03  0.10402231512E+03  0.00000000000E+00 0.  1.
      99926    2    1    2    0    0  0.35527136788E-14  0.71054273576E-14  0.38875266851E+03  0.59679729875E+03  0.45281163691E+03 0.  0.
      99925    2    3    3    0    0 -0.26455458322E+02  0.49966911672E+02  0.11914913429E+03  0.29425778513E+03  0.26304855896E+03 0.  0.
         25    1    4    4    0    0 -0.74739317220E+01 -0.15804544799E+02  0.60937018106E+02  0.14023719752E+03  0.12509000000E+03 0.  0.
         25    1    4    4    0    0 -0.18981526600E+02  0.65771456471E+02  0.58212116187E+02  0.15402058762E+03  0.12509000000E+03 0.  0.
         25    1    3    3    0    0  0.26455458322E+02 -0.49966911672E+02  0.26960353421E+03  0.30253951361E+03  0.12509000000E+03 0.  0.
<mgrwt>
<rscale>  2 0.45281164E+03</rscale>
<asrwt>0</asrwt>
<pdfrwt beam="1">  1       21 0.72466908E-01 0.45281164E+03</pdfrwt>
<pdfrwt beam="2">  1       21 0.15297400E-01 0.45281164E+03</pdfrwt>
<totfact> 0.59905027E+04</totfact>
</mgrwt>
</event>
<event>
 7    0  0.4707675E-002  0.4608064E+03  0.7546771E-02  0.1024548E+00
         21   -1    0    0  502  501  0.00000000000E+00  0.00000000000E+00  0.24193663069E+02  0.24193663069E+02  0.00000000000E+00 0.  1.
         21   -1    0    0  501  502 -0.00000000000E+00 -0.00000000000E+00 -0.21941962854E+04  0.21941962854E+04  0.00000000000E+00 0.  1.
      99926    2    1    2    0    0  0.00000000000E+00  0.71054273576E-14 -0.21700026224E+04  0.22183899485E+04  0.46080644803E+03 0.  0.
      99925    2    3    3    0    0 -0.50245822885E+02  0.42605686474E+02 -0.18328247955E+04  0.18527722762E+04  0.26301804004E+03 0.  0.
         25    1    4    4    0    0 -0.29193245668E+02 -0.11430203475E+02 -0.10510754005E+04  0.10589569872E+04  0.12509000000E+03 0.  0.
         25    1    4    4    0    0 -0.21052577217E+02  0.54035889949E+02 -0.78174939499E+03  0.79381528902E+03  0.12509000000E+03 0.  0.
         25    1    3    3    0    0  0.50245822885E+02 -0.42605686474E+02 -0.33717782689E+03  0.36561767228E+03  0.12509000000E+03 0.  0.
<mgrwt>
<rscale>  2 0.46080645E+03</rscale>
<asrwt>0</asrwt>
<pdfrwt beam="1">  1       21 0.35578912E-02 0.46080645E+03</pdfrwt>
<pdfrwt beam="2">  1       21 0.32267596E+00 0.46080645E+03</pdfrwt>
<totfact> 0.10002051E+04</totfact>
</mgrwt>
</event>
<event>
 7    0  0.4707675E-002  0.4601226E+03  0.7546771E-02  0.1024746E+00
         21   -1    0    0  502  501  0.00000000000E+00  0.00000000000E+00  0.21056013400E+02  0.21056013400E+02  0.00000000000E+00 0.  1.
         21   -1    0    0  501  502 -0.00000000000E+00 -0.00000000000E+00 -0.25136855912E+04  0.25136855912E+04  0.00000000000E+00 0.  1.
      99926    2    1    2    0    0  0.00000000000E+00  0.00000000000E+00 -0.24926295778E+04  0.25347416046E+04  0.46012258145E+03 0.  0.
      99925    2    3    3    0    0  0.68945607691E+02 -0.45867191171E+02 -0.11020417145E+04  0.11360853174E+04  0.26331846096E+03 0.  0.
         25    1    4    4    0    0  0.45381015317E+01 -0.19906329940E+02 -0.63880747404E+03  0.65125982014E+03  0.12509000000E+03 0.  0.
         25    1    3    3    0    0 -0.68945607691E+02  0.45867191171E+02 -0.13905878633E+04  0.13986562872E+04  0.12509000000E+03 0.  0.
         25    1    4    4    0    0  0.64407506160E+02 -0.25960861231E+02 -0.46323424042E+03  0.48482549723E+03  0.12509000000E+03 0.  0.
<mgrwt>
<rscale>  2 0.46012258E+03</rscale>
<asrwt>0</asrwt>
<pdfrwt beam="1">  1       21 0.30964721E-02 0.46012258E+03</pdfrwt>
<pdfrwt beam="2">  1       21 0.36965970E+00 0.46012258E+03</pdfrwt>
<totfact> 0.65192830E+03</totfact>
</mgrwt>
</event>
<event>
 7    0  0.4707675E-002  0.4572527E+03  0.7546771E-02  0.1025581E+00
         21   -1    0    0  502  501  0.00000000000E+00  0.00000000000E+00  0.19919647018E+03  0.19919647018E+03  0.00000000000E+00 0. -1.
         21   -1    0    0  501  502 -0.00000000000E+00 -0.00000000000E+00 -0.26240432642E+03  0.26240432642E+03  0.00000000000E+00 0. -1.
      99926    2    1    2    0    0  0.14210854715E-13  0.71054273576E-14 -0.63207856243E+02  0.46160079660E+03  0.45725273354E+03 0.  0.
      99925    2    3    3    0    0  0.94290118906E+02  0.60788907967E+02 -0.13053638490E+02  0.28624723515E+03  0.26302312502E+03 0.  0.
         25    1    3    3    0    0 -0.94290118906E+02 -0.60788907967E+02 -0.50154217753E+02  0.17535356145E+03  0.12509000000E+03 0.  0.
         25    1    4    4    0    0  0.50114538769E+02  0.53017041723E+02 -0.40895434820E+02  0.15047331457E+03  0.12509000000E+03 0.  0.
         25    1    4    4    0    0  0.44175580137E+02  0.77718662444E+01  0.27841796331E+02  0.13577392057E+03  0.12509000000E+03 0.  0.
<mgrwt>
<rscale>  2 0.45725273E+03</rscale>
<asrwt>0</asrwt>
<pdfrwt beam="1">  1       21 0.29293599E-01 0.45725273E+03</pdfrwt>
<pdfrwt beam="2">  1       21 0.38588871E-01 0.45725273E+03</pdfrwt>
<totfact> 0.66854920E+04</totfact>
</mgrwt>
</event>
<event>
 7    0  0.4707675E-002  0.4540766E+03  0.7546771E-02  0.1026513E+00
         21   -1    0    0  502  501  0.00000000000E+00  0.00000000000E+00  0.41621182515E+03  0.41621182515E+03  0.00000000000E+00 0.  1.
         21   -1    0    0  501  502 -0.00000000000E+00 -0.00000000000E+00 -0.12384652034E+03  0.12384652034E+03  0.00000000000E+00 0.  1.
      99926    2    1    2    0    0 -0.71054273576E-14  0.00000000000E+00  0.29236530481E+03  0.54005834549E+03  0.45407658503E+03 0.  0.
      99925    2    3    3    0    0  0.61525449681E+02 -0.72550503019E+02  0.11285030574E+03  0.30147481831E+03  0.26287433904E+03 0.  0.
         25    1    4    4    0    0  0.31927232975E+02  0.10830246267E+01  0.71915534547E+02  0.14778319714E+03  0.12509000000E+03 0.  0.
         25    1    4    4    0    0  0.29598216706E+02 -0.73633527645E+02  0.40934771190E+02  0.15369162117E+03  0.12509000000E+03 0.  0.
         25    1    3    3    0    0 -0.61525449681E+02  0.72550503019E+02  0.17951499908E+03  0.23858352718E+03  0.12509000000E+03 0.  0.
<mgrwt>
<rscale>  2 0.45407659E+03</rscale>
<asrwt>0</asrwt>
<pdfrwt beam="1">  1       21 0.61207621E-01 0.45407659E+03</pdfrwt>
<pdfrwt beam="2">  1       21 0.18212724E-01 0.45407659E+03</pdfrwt>
<totfact> 0.62987323E+04</totfact>
</mgrwt>
</event>
<event>
 7    0  0.4707675E-002  0.4617710E+03  0.7546771E-02  0.1024269E+00
         21   -1    0    0  502  501  0.00000000000E+00  0.00000000000E+00  0.63896221014E+03  0.63896221014E+03  0.00000000000E+00 0. -1.
         21   -1    0    0  501  502 -0.00000000000E+00 -0.00000000000E+00 -0.83429201742E+02  0.83429201742E+02  0.00000000000E+00 0. -1.
      99926    2    1    2    0    0  0.00000000000E+00  0.00000000000E+00  0.55553300840E+03  0.72239141188E+03  0.46177096979E+03 0.  0.
      99925    2    3    3    0    0 -0.78929107622E+02  0.73401367701E+02  0.26726278866E+03  0.39017944265E+03  0.26304568892E+03 0.  0.
         25    1    4    4    0    0 -0.68360600432E+02  0.66219990918E+02  0.12946335668E+03  0.20363331680E+03  0.12509000000E+03 0.  0.
         25    1    3    3    0    0  0.78929107622E+02 -0.73401367701E+02  0.28827021974E+03  0.33221196923E+03  0.12509000000E+03 0.  0.
         25    1    4    4    0    0 -0.10568507191E+02  0.71813767834E+01  0.13779943198E+03  0.18654612585E+03  0.12509000000E+03 0.  0.
<mgrwt>
<rscale>  2 0.46177097E+03</rscale>
<asrwt>0</asrwt>
<pdfrwt beam="1">  1       21 0.93965028E-01 0.46177097E+03</pdfrwt>
<pdfrwt beam="2">  1       21 0.12269001E-01 0.46177097E+03</pdfrwt>
<totfact> 0.49039824E+04</totfact>
</mgrwt>
</event>
<event>
 7    0  0.4707675E-002  0.4289914E+03  0.7546771E-02  0.1034179E+00
         21   -1    0    0  502  501  0.00000000000E+00  0.00000000000E+00  0.67714511030E+03  0.67714511030E+03  0.00000000000E+00 0.  1.
         21   -1    0    0  501  502 -0.00000000000E+00 -0.00000000000E+00 -0.67944665113E+02  0.67944665113E+02  0.00000000000E+00 0.  1.
      99926    2    1    2    0    0 -0.71054273576E-14 -0.17763568394E-14  0.60920044519E+03  0.74508977541E+03  0.42899136472E+03 0.  0.
      99925    2    3    3    0    0 -0.59384675178E+02 -0.12605048184E+02  0.50041671712E+03  0.56854846445E+03  0.26295444237E+03 0.  0.
         25    1    4    4    0    0 -0.33791756037E+02 -0.61839840903E+01  0.33673700834E+03  0.36085931514E+03  0.12509000000E+03 0.  0.
         25    1    4    4    0    0 -0.25592919141E+02 -0.64210640934E+01  0.16367970878E+03  0.20768914931E+03  0.12509000000E+03 0.  0.
         25    1    3    3    0    0  0.59384675178E+02  0.12605048184E+02  0.10878372806E+03  0.17654131097E+03  0.12509000000E+03 0.  0.
<mgrwt>
<rscale>  2 0.42899136E+03</rscale>
<asrwt>0</asrwt>
<pdfrwt beam="1">  1       21 0.99580159E-01 0.42899136E+03</pdfrwt>
<pdfrwt beam="2">  1       21 0.99918629E-02 0.42899136E+03</pdfrwt>
<totfact> 0.62318482E+04</totfact>
</mgrwt>
</event>
<event>
 7    0  0.4707675E-002  0.4450486E+03  0.7546771E-02  0.1029209E+00
         21   -1    0    0  502  501  0.00000000000E+00  0.00000000000E+00  0.17184402904E+03  0.17184402904E+03  0.00000000000E+00 0.  1.
         21   -1    0    0  501  502 -0.00000000000E+00 -0.00000000000E+00 -0.28815121994E+03  0.28815121994E+03  0.00000000000E+00 0.  1.
      99926    2    1    2    0    0  0.00000000000E+00  0.00000000000E+00 -0.11630719090E+03  0.45999524898E+03  0.44504861131E+03 0.  0.
      99925    2    3    3    0    0  0.92445732031E+02  0.41218428636E+02 -0.51306273050E+02  0.28645044309E+03  0.26301397390E+03 0.  0.
         25    1    3    3    0    0 -0.92445732031E+02 -0.41218428636E+02 -0.65000917849E+02  0.17354480589E+03  0.12509000000E+03 0.  0.
         25    1    4    4    0    0  0.24777453695E+02  0.21476681539E+02  0.11305021387E+02  0.12980940517E+03  0.12509000000E+03 0.  0.
         25    1    4    4    0    0  0.67668278336E+02  0.19741747097E+02 -0.62611294437E+02  0.15664103793E+03  0.12509000000E+03 0.  0.
<mgrwt>
<rscale>  2 0.44504861E+03</rscale>
<asrwt>0</asrwt>
<pdfrwt beam="1">  1       21 0.25271181E-01 0.44504861E+03</pdfrwt>
<pdfrwt beam="2">  1       21 0.42375179E-01 0.44504861E+03</pdfrwt>
<totfact> 0.73846594E+04</totfact>
</mgrwt>
</event>
<event>
 7    0  0.4707675E-002  0.4289858E+03  0.7546771E-02  0.1034181E+00
         21   -1    0    0  502  501  0.00000000000E+00  0.00000000000E+00  0.11631225848E+03  0.11631225848E+03  0.00000000000E+00 0. -1.
         21   -1    0    0  501  502 -0.00000000000E+00 -0.00000000000E+00 -0.39554910585E+03  0.39554910585E+03  0.00000000000E+00 0. -1.
      99926    2    1    2    0    0  0.17763568394E-14  0.00000000000E+00 -0.27923684737E+03  0.51186136433E+03  0.42898582652E+03 0.  0.
      99925    2    3    3    0    0 -0.85537810231E+01 -0.82020619258E+02 -0.21136492690E+03  0.34737837177E+03  0.26305142405E+03 0.  0.
         25    1    4    4    0    0 -0.28129950171E+02 -0.85233401333E+01 -0.85816633556E+02  0.15451842647E+03  0.12509000000E+03 0.  0.
         25    1    3    3    0    0  0.85537810231E+01  0.82020619258E+02 -0.67871920470E+02  0.16448299256E+03  0.12509000000E+03 0.  0.
         25    1    4    4    0    0  0.19576169148E+02 -0.73497279125E+02 -0.12554829335E+03  0.19285994530E+03  0.12509000000E+03 0.  0.
<mgrwt>
<rscale>  2 0.42898583E+03</rscale>
<asrwt>0</asrwt>
<pdfrwt beam="1">  1       21 0.17104744E-01 0.42898583E+03</pdfrwt>
<pdfrwt beam="2">  1       21 0.58168986E-01 0.42898583E+03</pdfrwt>
<totfact> 0.79642140E+04</totfact>
</mgrwt>
</event>
<event>
 7    0  0.4707675E-002  0.4562388E+03  0.7546771E-02  0.1025878E+00
         21   -1    0    0  502  501  0.00000000000E+00  0.00000000000E+00  0.14624015383E+03  0.14624015383E+03  0.00000000000E+00 0.  1.
         21   -1    0    0  501  502 -0.00000000000E+00 -0.00000000000E+00 -0.35584252114E+03  0.35584252114E+03  0.00000000000E+00 0.  1.
      99926    2    1    2    0    0  0.00000000000E+00  0.00000000000E+00 -0.20960236732E+03  0.50208267497E+03  0.45623881917E+03 0.  0.
      99925    2    3    3    0    0  0.71751035231E+02  0.67254039771E+02 -0.67411651257E+02  0.28868861517E+03  0.26291722820E+03 0.  0.
         25    1    4    4    0    0  0.37988524228E+02  0.13664102402E+02  0.36572847385E+01  0.13149418048E+03  0.12509000000E+03 0.  0.
         25    1    4    4    0    0  0.33762511003E+02  0.53589937369E+02 -0.71068935996E+02  0.15719443470E+03  0.12509000000E+03 0.  0.
         25    1    3    3    0    0 -0.71751035231E+02 -0.67254039771E+02 -0.14219071606E+03  0.21339405979E+03  0.12509000000E+03 0.  0.
<mgrwt>
<rscale>  2 0.45623882E+03</rscale>
<asrwt>0</asrwt>
<pdfrwt beam="1">  1       21 0.21505905E-01 0.45623882E+03</pdfrwt>
<pdfrwt beam="2">  1       21 0.52329782E-01 0.45623882E+03</pdfrwt>
<totfact> 0.64488109E+04</totfact>
</mgrwt>
</event>
<event>
 7    0  0.4707675E-002  0.4506911E+03  0.7546771E-02  0.1027516E+00
         21   -1    0    0  502  501  0.00000000000E+00  0.00000000000E+00  0.23419836273E+02  0.23419836273E+02  0.00000000000E+00 0.  1.
         21   -1    0    0  501  502 -0.00000000000E+00 -0.00000000000E+00 -0.21682742090E+04  0.21682742090E+04  0.00000000000E+00 0.  1.
      99926    2    1    2    0    0  0.00000000000E+00 -0.35527136788E-14 -0.21448543727E+04  0.21916940453E+04  0.45069114466E+03 0.  0.
      99925    2    3    3    0    0 -0.13872281607E+02  0.26245558170E+02 -0.18655904948E+04  0.18842577248E+04  0.26290304247E+03 0.  0.
         25    1    4    4    0    0 -0.27910406963E+02  0.12601726978E+02 -0.69420761097E+03  0.70605205868E+03  0.12509000000E+03 0.  0.
         25    1    4    4    0    0  0.14038125356E+02  0.13643831191E+02 -0.11713828838E+04  0.11782056661E+04  0.12509000000E+03 0.  0.
         25    1    3    3    0    0  0.13872281607E+02 -0.26245558170E+02 -0.27926387797E+03  0.30743632050E+03  0.12509000000E+03 0.  0.
<mgrwt>
<rscale>  2 0.45069114E+03</rscale>
<asrwt>0</asrwt>
<pdfrwt beam="1">  1       21 0.34440931E-02 0.45069114E+03</pdfrwt>
<pdfrwt beam="2">  1       21 0.31886390E+00 0.45069114E+03</pdfrwt>
<totfact> 0.11195119E+04</totfact>
</mgrwt>
</event>
<event>
 7    0  0.4707675E-002  0.4484373E+03  0.7546771E-02  0.1028189E+00
         21   -1    0    0  502  501  0.00000000000E+00  0.00000000000E+00  0.67422962961E+03  0.67422962961E+03  0.00000000000E+00 0. -1.
         21   -1    0    0  501  502 -0.00000000000E+00 -0.00000000000E+00 -0.74565090766E+02  0.74565090766E+02  0.00000000000E+00 0. -1.
      99926    2    1    2    0    0 -0.14210854715E-13  0.00000000000E+00  0.59966453884E+03  0.74879472037E+03  0.44843725772E+03 0.  0.
      99925    2    3    3    0    0 -0.87759676211E+02  0.58807701287E+02  0.35205861806E+03  0.45195081088E+03  0.26297178252E+03 0.  0.
         25    1    4    4    0    0 -0.80415401645E+02  0.21516608690E+02  0.21735418780E+03  0.26423465391E+03  0.12509000000E+03 0.  0.
         25    1    3    3    0    0  0.87759676211E+02 -0.58807701287E+02  0.24760592078E+03  0.29684390949E+03  0.12509000000E+03 0.  0.
         25    1    4    4    0    0 -0.73442745661E+01  0.37291092597E+02  0.13470443026E+03  0.18771615697E+03  0.12509000000E+03 0.  0.
<mgrwt>
<rscale>  2 0.44843726E+03</rscale>
<asrwt>0</asrwt>
<pdfrwt beam="1">  1       21 0.99151413E-01 0.44843726E+03</pdfrwt>
<pdfrwt beam="2">  1       21 0.10965455E-01 0.44843726E+03</pdfrwt>
<totfact> 0.53014568E+04</totfact>
</mgrwt>
</event>
<event>
 6    0  0.4707675E-002  0.4574406E+03  0.7546771E-02  0.1025526E+00
         21   -1    0    0  502  501  0.00000000000E+00  0.00000000000E+00  0.13263396600E+03  0.13263396600E+03  0.00000000000E+00 0. -1.
         21   -1    0    0  501  502 -0.00000000000E+00 -0.00000000000E+00 -0.39441604939E+03  0.39441604939E+03  0.00000000000E+00 0. -1.
      99926    2    1    2    0    0 -0.14210854715E-13  0.00000000000E+00 -0.26178208339E+03  0.52705001540E+03  0.45744055302E+03 0.  0.
         25    1    3    3    0    0  0.97316557184E+02 -0.18488129115E+02 -0.12882813934E+03  0.20507686560E+03  0.12509000000E+03 0.  0.
         25    1    3    3    0    0 -0.74382127769E+02  0.61638253439E+02 -0.84374968108E+02  0.17916087341E+03  0.12509000000E+03 0.  0.
         25    1    3    3    0    0 -0.22934429415E+02 -0.43150124324E+02 -0.48578975942E+02  0.14281227638E+03  0.12509000000E+03 0.  0.
<mgrwt>
<rscale>  2 0.45744055E+03</rscale>
<asrwt>0</asrwt>
<pdfrwt beam="1">  1       21 0.19504995E-01 0.45744055E+03</pdfrwt>
<pdfrwt beam="2">  1       21 0.58002361E-01 0.45744055E+03</pdfrwt>
<totfact> 0.62194679E+04</totfact>
</mgrwt>
</event>
<event>
 7    0  0.4707675E-002  0.4506376E+03  0.7546771E-02  0.1027532E+00
         21   -1    0    0  502  501  0.00000000000E+00  0.00000000000E+00  0.72998634909E+03  0.72998634909E+03  0.00000000000E+00 0.  1.
         21   -1    0    0  501  502 -0.00000000000E+00 -0.00000000000E+00 -0.69547277816E+02  0.69547277816E+02  0.00000000000E+00 0.  1.
      99926    2    1    2    0    0  0.71054273576E-14  0.00000000000E+00  0.66043907127E+03  0.79953362691E+03  0.45063760794E+03 0.  0.
      99925    2    3    3    0    0 -0.51381960474E+02  0.22780527290E+02  0.58300380218E+03  0.64204462004E+03  0.26299962447E+03 0.  0.
         25    1    4    4    0    0  0.11931500973E+02 -0.48979608216E+01  0.25834086535E+03  0.28732187794E+03  0.12509000000E+03 0.  0.
         25    1    3    3    0    0  0.51381960474E+02 -0.22780527290E+02  0.77435269091E+02  0.15748900687E+03  0.12509000000E+03 0.  0.
         25    1    4    4    0    0 -0.63313461447E+02  0.27678488111E+02  0.32466293683E+03  0.35472274209E+03  0.12509000000E+03 0.  0.
<mgrwt>
<rscale>  2 0.45063761E+03</rscale>
<asrwt>0</asrwt>
<pdfrwt beam="1">  1       21 0.10735093E+00 0.45063761E+03</pdfrwt>
<pdfrwt beam="2">  1       21 0.10227541E-01 0.45063761E+03</pdfrwt>
<totfact> 0.49459012E+04</totfact>
</mgrwt>
</event>
<event>
 7    0  0.4707675E-002  0.4537875E+03  0.7546771E-02  0.1026599E+00
         21   -1    0    0  502  501  0.00000000000E+00  0.00000000000E+00  0.11251958624E+03  0.11251958624E+03  0.00000000000E+00 0.  1.
         21   -1    0    0  501  502 -0.00000000000E+00 -0.00000000000E+00 -0.45752727412E+03  0.45752727412E+03  0.00000000000E+00 0.  1.
      99926    2    1    2    0    0  0.00000000000E+00  0.17763568394E-14 -0.34500768788E+03  0.57004686035E+03  0.45378752550E+03 0.  0.
      99925    2    3    3    0    0  0.73193357792E+02 -0.83885566894E+01 -0.11169177206E+03  0.29525337393E+03  0.26319549267E+03 0.  0.
         25    1    4    4    0    0  0.44674152865E+02 -0.28755465929E+02 -0.91377744854E+02  0.16376830313E+03  0.12509000000E+03 0.  0.
         25    1    3    3    0    0 -0.73193357792E+02  0.83885566894E+01 -0.23331591582E+03  0.27479348643E+03  0.12509000000E+03 0.  0.
         25    1    4    4    0    0  0.28519204927E+02  0.20366909239E+02 -0.20314027209E+02  0.13148507080E+03  0.12509000000E+03 0.  0.
<mgrwt>
<rscale>  2 0.45378753E+03</rscale>
<asrwt>0</asrwt>
<pdfrwt beam="1">  1       21 0.16546998E-01 0.45378753E+03</pdfrwt>
<pdfrwt beam="2">  1       21 0.67283421E-01 0.45378753E+03</pdfrwt>
<totfact> 0.61145067E+04</totfact>
</mgrwt>
</event>
<event>
 7    0  0.4707675E-002  0.4643879E+03  0.7546771E-02  0.1023516E+00
         21   -1    0    0  502  501  0.00000000000E+00  0.00000000000E+00  0.42180491534E+02  0.42180491534E+02  0.00000000000E+00 0.  1.
         21   -1    0    0  501  502 -0.00000000000E+00 -0.00000000000E+00 -0.12781746101E+04  0.12781746101E+04  0.00000000000E+00 0.  1.
      99926    2    1    2    0    0  0.00000000000E+00  0.00000000000E+00 -0.12359941185E+04  0.13203551016E+04  0.46438791250E+03 0.  0.
      99925    2    3    3    0    0 -0.21659448123E+02  0.11702569295E+03 -0.83799928666E+03  0.88652156348E+03  0.26365419314E+03 0.  0.
         25    1    3    3    0    0  0.21659448123E+02 -0.11702569295E+03 -0.39799483186E+03  0.43383353811E+03  0.12509000000E+03 0.  0.
         25    1    4    4    0    0  0.40060157315E+01  0.15546276236E+02 -0.37332690573E+03  0.39405357695E+03  0.12509000000E+03 0.  0.
         25    1    4    4    0    0 -0.25665463854E+02  0.10147941672E+03 -0.46467238094E+03  0.49246798653E+03  0.12509000000E+03 0.  0.
<mgrwt>
<rscale>  2 0.46438791E+03</rscale>
<asrwt>0</asrwt>
<pdfrwt beam="1">  1       21 0.62030134E-02 0.46438791E+03</pdfrwt>
<pdfrwt beam="2">  1       21 0.18796686E+00 0.46438791E+03</pdfrwt>
<totfact> 0.26538119E+04</totfact>
</mgrwt>
</event>
<event>
 7    0  0.4707675E-002  0.4483180E+03  0.7546771E-02  0.1028225E+00
         21   -1    0    0  502  501  0.00000000000E+00  0.00000000000E+00  0.12340067927E+03  0.12340067927E+03  0.00000000000E+00 0.  1.
         21   -1    0    0  501  502 -0.00000000000E+00 -0.00000000000E+00 -0.40718776924E+03  0.40718776924E+03  0.00000000000E+00 0.  1.
      99926    2    1    2    0    0  0.00000000000E+00  0.00000000000E+00 -0.28378708998E+03  0.53058844851E+03  0.44831795554E+03 0.  0.
      99925    2    3    3    0    0  0.31870992626E+02 -0.10164617539E+03 -0.18850830637E+03  0.34065883037E+03  0.26299306454E+03 0.  0.
         25    1    4    4    0    0  0.26342611831E+02 -0.49418603872E+02 -0.47674811891E+02  0.14510867443E+03  0.12509000000E+03 0.  0.
         25    1    4    4    0    0  0.55283807952E+01 -0.52227571515E+02 -0.14083349448E+03  0.19555015594E+03  0.12509000000E+03 0.  0.
         25    1    3    3    0    0 -0.31870992626E+02  0.10164617539E+03 -0.95278783607E+02  0.18992961814E+03  0.12509000000E+03 0.  0.
<mgrwt>
<rscale>  2 0.44831796E+03</rscale>
<asrwt>0</asrwt>
<pdfrwt beam="1">  1       21 0.18147159E-01 0.44831796E+03</pdfrwt>
<pdfrwt beam="2">  1       21 0.59880553E-01 0.44831796E+03</pdfrwt>
<totfact> 0.66622315E+04</totfact>
</mgrwt>
</event>
<event>
 7    0  0.4707675E-002  0.4473836E+03  0.7546771E-02  0.1028505E+00
         21   -1    0    0  502  501  0.00000000000E+00  0.00000000000E+00  0.67733332666E+02  0.67733332666E+02  0.00000000000E+00 0.  1.
         21   -1    0    0  501  502 -0.00000000000E+00 -0.00000000000E+00 -0.73875028590E+03  0.73875028590E+03  0.00000000000E+00 0.  1.
      99926    2    1    2    0    0  0.00000000000E+00  0.00000000000E+00 -0.67101695323E+03  0.80648361857E+03  0.44738358876E+03 0.  0.
      99925    2    3    3    0    0 -0.30320990076E+02 -0.10133250393E+03 -0.42819323203E+03  0.51356979767E+03  0.26309096209E+03 0.  0.
         25    1    4    4    0    0 -0.20506823776E+02 -0.66906669864E+02 -0.29161307542E+03  0.32493495680E+03  0.12509000000E+03 0.  0.
         25    1    3    3    0    0  0.30320990076E+02  0.10133250393E+03 -0.24282372120E+03  0.29291382089E+03  0.12509000000E+03 0.  0.
         25    1    4    4    0    0 -0.98141663002E+01 -0.34425834068E+02 -0.13658015661E+03  0.18863484088E+03  0.12509000000E+03 0.  0.
<mgrwt>
<rscale>  2 0.44738359E+03</rscale>
<asrwt>0</asrwt>
<pdfrwt beam="1">  1       21 0.99607837E-02 0.44738359E+03</pdfrwt>
<pdfrwt beam="2">  1       21 0.10863975E+00 0.44738359E+03</pdfrwt>
<totfact> 0.50398233E+04</totfact>
</mgrwt>
</event>
<event>
 7    0  0.4707675E-002  0.4551717E+03  0.7546771E-02  0.1026191E+00
         21   -1    0    0  502  501  0.00000000000E+00  0.00000000000E+00  0.30552936138E+03  0.30552936138E+03  0.00000000000E+00 0.  1.
         21   -1    0    0  501  502 -0.00000000000E+00 -0.00000000000E+00 -0.16952648073E+03  0.16952648073E+03  0.00000000000E+00 0.  1.
      99926    2    1    2    0    0 -0.14210854715E-13  0.17763568394E-14  0.13600288065E+03  0.47505584211E+03  0.45517169241E+03 0.  0.
      99925    2    3    3    0    0  0.87487926661E+02  0.97541026367E+01  0.16018179062E+03  0.32019652654E+03  0.26290365105E+03 0.  0.
         25    1    3    3    0    0 -0.87487926661E+02 -0.97541026367E+01 -0.24178909962E+02  0.15485931556E+03  0.12509000000E+03 0.  0.
         25    1    4    4    0    0  0.20126445788E+02  0.38097975458E+02  0.72781940618E+02  0.15100082296E+03  0.12509000000E+03 0.  0.
         25    1    4    4    0    0  0.67361480873E+02 -0.28343872821E+02  0.87399849999E+02  0.16919570359E+03  0.12509000000E+03 0.  0.
<mgrwt>
<rscale>  2 0.45517169E+03</rscale>
<asrwt>0</asrwt>
<pdfrwt beam="1">  1       21 0.44930789E-01 0.45517169E+03</pdfrwt>
<pdfrwt beam="2">  1       21 0.24930365E-01 0.45517169E+03</pdfrwt>
<totfact> 0.66970508E+04</totfact>
</mgrwt>
</event>
<event>
 7    0  0.4707675E-002  0.4542415E+03  0.7546771E-02  0.1026465E+00
         21   -1    0    0  502  501  0.00000000000E+00  0.00000000000E+00  0.46391315168E+02  0.46391315168E+02  0.00000000000E+00 0.  1.
         21   -1    0    0  501  502 -0.00000000000E+00 -0.00000000000E+00 -0.11119286293E+04  0.11119286293E+04  0.00000000000E+00 0.  1.
      99926    2    1    2    0    0  0.00000000000E+00 -0.13322676296E-14 -0.10655373141E+04  0.11583199444E+04  0.45424148417E+03 0.  0.
      99925    2    3    3    0    0  0.27811211972E+02  0.37873476397E+01 -0.94871119123E+03  0.98487353024E+03  0.26293561700E+03 0.  0.
         25    1    4    4    0    0  0.11645721847E+02  0.38904662194E+02 -0.53562711690E+03  0.55153704503E+03  0.12509000000E+03 0.  0.
         25    1    3    3    0    0 -0.27811211972E+02 -0.37873476397E+01 -0.11682612288E+03  0.17344641420E+03  0.12509000000E+03 0.  0.
         25    1    4    4    0    0  0.16165490125E+02 -0.35117314555E+02 -0.41308407432E+03  0.43333648521E+03  0.12509000000E+03 0.  0.
<mgrwt>
<rscale>  2 0.45424148E+03</rscale>
<asrwt>0</asrwt>
<pdfrwt beam="1">  1       21 0.68222522E-02 0.45424148E+03</pdfrwt>
<pdfrwt beam="2">  1       21 0.16351892E+00 0.45424148E+03</pdfrwt>
<totfact> 0.33704583E+04</totfact>
</mgrwt>
</event>
<event>
 7    0  0.4707675E-002  0.4572110E+03  0.7546771E-02  0.1025593E+00
         21   -1    0    0  502  501  0.00000000000E+00  0.00000000000E+00  0.11824392918E+04  0.11824392918E+04  0.00000000000E+00 0.  1.
         21   -1    0    0  501  502 -0.00000000000E+00 -0.00000000000E+00 -0.44197183120E+02  0.44197183120E+02  0.00000000000E+00 0.  1.
      99926    2    1    2    0    0  0.00000000000E+00  0.00000000000E+00  0.11382421087E+04  0.12266364749E+04  0.45721104934E+03 0.  0.
      99925    2    3    3    0    0 -0.96402571279E+02  0.60851442372E+02  0.75948355212E+03  0.81178480738E+03  0.26302652676E+03 0.  0.
         25    1    4    4    0    0 -0.80657192026E+02  0.60065590246E+02  0.41536583484E+03  0.44529736425E+03  0.12509000000E+03 0.  0.
         25    1    3    3    0    0  0.96402571279E+02 -0.60851442372E+02  0.37875855659E+03  0.41485166756E+03  0.12509000000E+03 0.  0.
         25    1    4    4    0    0 -0.15745379252E+02  0.78585212577E+00  0.34411771728E+03  0.36648744313E+03  0.12509000000E+03 0.  0.
<mgrwt>
<rscale>  2 0.45721105E+03</rscale>
<asrwt>0</asrwt>
<pdfrwt beam="1">  1       21 0.17388811E+00 0.45721105E+03</pdfrwt>
<pdfrwt beam="2">  1       21 0.64995865E-02 0.45721105E+03</pdfrwt>
<totfact> 0.30788494E+04</totfact>
</mgrwt>
</event>
<event>
 7    0  0.4707675E-002  0.4568155E+03  0.7546771E-02  0.1025709E+00
         21   -1    0    0  502  501  0.00000000000E+00  0.00000000000E+00  0.40566136602E+03  0.40566136602E+03  0.00000000000E+00 0. -1.
         21   -1    0    0  501  502 -0.00000000000E+00 -0.00000000000E+00 -0.12860503918E+03  0.12860503918E+03  0.00000000000E+00 0. -1.
      99926    2    1    2    0    0  0.00000000000E+00  0.00000000000E+00  0.27705632685E+03  0.53426640520E+03  0.45681548078E+03 0.  0.
      99925    2    3    3    0    0 -0.10323882263E+03  0.49297055189E+02  0.16299429376E+03  0.32994775788E+03  0.26307780025E+03 0.  0.
         25    1    4    4    0    0 -0.28552065380E+02  0.58234635559E+02  0.78776420408E+02  0.16143025035E+03  0.12509000000E+03 0.  0.
         25    1    4    4    0    0 -0.74686757254E+02 -0.89375803707E+01  0.84217873350E+02  0.16851750753E+03  0.12509000000E+03 0.  0.
         25    1    3    3    0    0  0.10323882263E+03 -0.49297055189E+02  0.11406203309E+03  0.20431864732E+03  0.12509000000E+03 0.  0.
<mgrwt>
<rscale>  2 0.45681548E+03</rscale>
<asrwt>0</asrwt>
<pdfrwt beam="1">  1       21 0.59656083E-01 0.45681548E+03</pdfrwt>
<pdfrwt beam="2">  1       21 0.18912506E-01 0.45681548E+03</pdfrwt>
<totfact> 0.62021395E+04</totfact>
</mgrwt>
</event>
<event>
 7    0  0.4707675E-002  0.4527229E+03  0.7546771E-02  0.1026913E+00
         21   -1    0    0  502  501  0.00000000000E+00  0.00000000000E+00  0.34916038155E+03  0.34916038155E+03  0.00000000000E+00 0. -1.
         21   -1    0    0  501  502 -0.00000000000E+00 -0.00000000000E+00 -0.14675060107E+03  0.14675060107E+03  0.00000000000E+00 0. -1.
      99926    2    1    2    0    0 -0.71054273576E-14  0.00000000000E+00  0.20240978048E+03  0.49591098262E+03  0.45272285501E+03 0.  0.
      99925    2    3    3    0    0 -0.56928603573E+02  0.91616864882E+02  0.15627562022E+03  0.32441642096E+03  0.26303883530E+03 0.  0.
         25    1    4    4    0    0 -0.68514324664E+02  0.42627968895E+02  0.92482272101E+02  0.17524792486E+03  0.12509000000E+03 0.  0.
         25    1    3    3    0    0  0.56928603573E+02 -0.91616864882E+02  0.46134160259E+02  0.17149456166E+03  0.12509000000E+03 0.  0.
         25    1    4    4    0    0  0.11585721091E+02  0.48988895987E+02  0.63793348120E+02  0.14916849610E+03  0.12509000000E+03 0.  0.
<mgrwt>
<rscale>  2 0.45272286E+03</rscale>
<asrwt>0</asrwt>
<pdfrwt beam="1">  1       21 0.51347115E-01 0.45272286E+03</pdfrwt>
<pdfrwt beam="2">  1       21 0.21580971E-01 0.45272286E+03</pdfrwt>
<totfact> 0.66757513E+04</totfact>
</mgrwt>
</event>
<event>
 7    0  0.4707675E-002  0.4294005E+03  0.7546771E-02  0.1034050E+00
         21   -1    0    0  502  501  0.00000000000E+00  0.00000000000E+00  0.25701378177E+03  0.25701378177E+03  0.00000000000E+00 0.  1.
         21   -1    0    0  501  502 -0.00000000000E+00 -0.00000000000E+00 -0.17935301348E+03  0.17935301348E+03  0.00000000000E+00 0.  1.
      99926    2    1    2    0    0 -0.53290705182E-14  0.00000000000E+00  0.77660768294E+02  0.43636679525E+03  0.42940049495E+03 0.  0.
      99925    2    3    3    0    0  0.12257761133E+02 -0.53889265546E+02  0.11855731306E+03  0.29362807898E+03  0.26288268607E+03 0.  0.
         25    1    4    4    0    0 -0.34098113365E+02 -0.28117211321E+02  0.54739813293E+02  0.14351729571E+03  0.12509000000E+03 0.  0.
         25    1    4    4    0    0  0.46355874497E+02 -0.25772054225E+02  0.63817499763E+02  0.15011078328E+03  0.12509000000E+03 0.  0.
         25    1    3    3    0    0 -0.12257761133E+02  0.53889265546E+02 -0.40896544763E+02  0.14273871627E+03  0.12509000000E+03 0.  0.
<mgrwt>
<rscale>  2 0.42940049E+03</rscale>
<asrwt>0</asrwt>
<pdfrwt beam="1">  1       21 0.37796145E-01 0.42940049E+03</pdfrwt>
<pdfrwt beam="2">  1       21 0.26375443E-01 0.42940049E+03</pdfrwt>
<totfact> 0.86239812E+04</totfact>
</mgrwt>
</event>
<event>
 7    0  0.4707675E-002  0.4586844E+03  0.7546771E-02  0.1025163E+00
         21   -1    0    0  502  501  0.00000000000E+00  0.00000000000E+00  0.19835614364E+03  0.19835614364E+03  0.00000000000E+00 0.  1.
         21   -1    0    0  501  502 -0.00000000000E+00 -0.00000000000E+00 -0.26516874994E+03  0.26516874994E+03  0.00000000000E+00 0.  1.
      99926    2    1    2    0    0  0.00000000000E+00  0.00000000000E+00 -0.66812606302E+02  0.46352489358E+03  0.45868442595E+03 0.  0.
      99925    2    3    3    0    0 -0.23221108057E+02  0.11338966983E+03 -0.27118981804E+02  0.28854052568E+03  0.26291397586E+03 0.  0.
         25    1    3    3    0    0  0.23221108057E+02 -0.11338966983E+03 -0.39693624498E+02  0.17498436790E+03  0.12509000000E+03 0.  0.
         25    1    4    4    0    0 -0.23378381203E+01  0.13522816180E+02 -0.12242479281E+02  0.12643464099E+03  0.12509000000E+03 0.  0.
         25    1    4    4    0    0 -0.20883269937E+02  0.99866853652E+02 -0.14876502523E+02  0.16210588468E+03  0.12509000000E+03 0.  0.
<mgrwt>
<rscale>  2 0.45868443E+03</rscale>
<asrwt>0</asrwt>
<pdfrwt beam="1">  1       21 0.29170021E-01 0.45868443E+03</pdfrwt>
<pdfrwt beam="2">  1       21 0.38995404E-01 0.45868443E+03</pdfrwt>
<totfact> 0.65964845E+04</totfact>
</mgrwt>
</event>
<event>
 7    0  0.4707675E-002  0.4532477E+03  0.7546771E-02  0.1026758E+00
         21   -1    0    0  502  501  0.00000000000E+00  0.00000000000E+00  0.25496054407E+03  0.25496054407E+03  0.00000000000E+00 0.  1.
         21   -1    0    0  501  502 -0.00000000000E+00 -0.00000000000E+00 -0.20143656752E+03  0.20143656752E+03  0.00000000000E+00 0.  1.
      99926    2    1    2    0    0  0.00000000000E+00  0.14210854715E-13  0.53523976550E+02  0.45639711158E+03  0.45324773292E+03 0.  0.
      99925    2    3    3    0    0  0.66813410323E+02 -0.83219725334E+02  0.66323432877E+02  0.29147019241E+03  0.26299528671E+03 0.  0.
         25    1    4    4    0    0  0.13796828054E+02 -0.75453671062E+02  0.22149975940E+02  0.14839723203E+03  0.12509000000E+03 0.  0.
         25    1    3    3    0    0 -0.66813410323E+02  0.83219725334E+02 -0.12799456327E+02  0.16492691917E+03  0.12509000000E+03 0.  0.
         25    1    4    4    0    0  0.53016582269E+02 -0.77660542723E+01  0.44173456937E+02  0.14307296038E+03  0.12509000000E+03 0.  0.
<mgrwt>
<rscale>  2 0.45324773E+03</rscale>
<asrwt>0</asrwt>
<pdfrwt beam="1">  1       21 0.37494197E-01 0.45324773E+03</pdfrwt>
<pdfrwt beam="2">  1       21 0.29623025E-01 0.45324773E+03</pdfrwt>
<totfact> 0.69408749E+04</totfact>
</mgrwt>
</event>
<event>
 7    0  0.4707675E-002  0.4537854E+03  0.7546771E-02  0.1026599E+00
         21   -1    0    0  502  501  0.00000000000E+00  0.00000000000E+00  0.24306296601E+03  0.24306296601E+03  0.00000000000E+00 0.  1.
         21   -1    0    0  501  502 -0.00000000000E+00 -0.00000000000E+00 -0.21179822842E+03  0.21179822842E+03  0.00000000000E+00 0.  1.
      99926    2    1    2    0    0  0.53290705182E-14  0.00000000000E+00  0.31264737588E+02  0.45486119444E+03  0.45378543651E+03 0.  0.
      99925    2    3    3    0    0  0.45882434461E+01 -0.26139787712E+01  0.13170382240E+03  0.29435137318E+03  0.26318994889E+03 0.  0.
         25    1    3    3    0    0 -0.45882434461E+01  0.26139787712E+01 -0.10043908481E+03  0.16050982126E+03  0.12509000000E+03 0.  0.
         25    1    4    4    0    0 -0.37708715302E+02 -0.59586831592E+01  0.73296313485E+02  0.14992435021E+03  0.12509000000E+03 0.  0.
         25    1    4    4    0    0  0.42296958748E+02  0.33447043880E+01  0.58407508912E+02  0.14442702297E+03  0.12509000000E+03 0.  0.
<mgrwt>
<rscale>  2 0.45378544E+03</rscale>
<asrwt>0</asrwt>
<pdfrwt beam="1">  1       21 0.35744554E-01 0.45378544E+03</pdfrwt>
<pdfrwt beam="2">  1       21 0.31146798E-01 0.45378544E+03</pdfrwt>
<totfact> 0.69224405E+04</totfact>
</mgrwt>
</event>
<event>
 7    0  0.4707675E-002  0.4525273E+03  0.7546771E-02  0.1026971E+00
         21   -1    0    0  502  501  0.00000000000E+00  0.00000000000E+00  0.29878925427E+03  0.29878925427E+03  0.00000000000E+00 0. -1.
         21   -1    0    0  501  502 -0.00000000000E+00 -0.00000000000E+00 -0.17134230821E+03  0.17134230821E+03  0.00000000000E+00 0. -1.
      99926    2    1    2    0    0  0.00000000000E+00  0.00000000000E+00  0.12744694606E+03  0.47013156249E+03  0.45252730524E+03 0.  0.
      99925    2    3    3    0    0 -0.81080337468E+02  0.73309761356E+02  0.60827050912E+02  0.29115094688E+03  0.26290797156E+03 0.  0.
         25    1    4    4    0    0 -0.54448012870E+02  0.30093111346E+02 -0.73801565289E+01  0.13990052275E+03  0.12509000000E+03 0.  0.
         25    1    4    4    0    0 -0.26632324598E+02  0.43216650010E+02  0.68207207441E+02  0.15125042413E+03  0.12509000000E+03 0.  0.
         25    1    3    3    0    0  0.81080337468E+02 -0.73309761356E+02  0.66619895144E+02  0.17898061561E+03  0.12509000000E+03 0.  0.
<mgrwt>
<rscale>  2 0.45252731E+03</rscale>
<asrwt>0</asrwt>
<pdfrwt beam="1">  1       21 0.43939596E-01 0.45252731E+03</pdfrwt>
<pdfrwt beam="2">  1       21 0.25197398E-01 0.45252731E+03</pdfrwt>
<totfact> 0.68765088E+04</totfact>
</mgrwt>
</event>
<event>
 7    0  0.4707675E-002  0.4602425E+03  0.7546771E-02  0.1024711E+00
         21   -1    0    0  502  501  0.00000000000E+00  0.00000000000E+00  0.12382333718E+03  0.12382333718E+03  0.00000000000E+00 0.  1.
         21   -1    0    0  501  502 -0.00000000000E+00 -0.00000000000E+00 -0.42767212905E+03  0.42767212905E+03  0.00000000000E+00 0.  1.
      99926    2    1    2    0    0  0.17763568394E-14 -0.14210854715E-13 -0.30384879187E+03  0.55149546623E+03  0.46024250232E+03 0.  0.
      99925    2    3    3    0    0  0.12916249077E+02 -0.98193728479E+02 -0.11609268103E+03  0.30510410464E+03  0.26420099598E+03 0.  0.
         25    1    3    3    0    0 -0.12916249077E+02  0.98193728479E+02 -0.18775611085E+03  0.24639136159E+03  0.12509000000E+03 0.  0.
         25    1    4    4    0    0  0.23375988999E+02 -0.64031320975E+02 -0.21076209119E+02  0.14400750542E+03  0.12509000000E+03 0.  0.
         25    1    4    4    0    0 -0.10459739922E+02 -0.34162407505E+02 -0.95016471907E+02  0.16109659922E+03  0.12509000000E+03 0.  0.
<mgrwt>
<rscale>  2 0.46024250E+03</rscale>
<asrwt>0</asrwt>
<pdfrwt beam="1">  1       21 0.18209314E-01 0.46024250E+03</pdfrwt>
<pdfrwt beam="2">  1       21 0.62892960E-01 0.46024250E+03</pdfrwt>
<totfact> 0.59270889E+04</totfact>
</mgrwt>
</event>
<event>
 6    0  0.4707675E-002  0.4636561E+03  0.7546771E-02  0.1023726E+00
         21   -1    0    0  502  501  0.00000000000E+00  0.00000000000E+00  0.14290266678E+03  0.14290266678E+03  0.00000000000E+00 0. -1.
         21   -1    0    0  501  502 -0.00000000000E+00 -0.00000000000E+00 -0.37608989619E+03  0.37608989619E+03  0.00000000000E+00 0. -1.
      99926    2    1    2    0    0  0.14210854715E-13  0.00000000000E+00 -0.23318722941E+03  0.51899256297E+03  0.46365611876E+03 0.  0.
         25    1    3    3    0    0  0.67507262267E+02 -0.54899283731E+01 -0.16015155931E+02  0.14314804606E+03  0.12509000000E+03 0.  0.
         25    1    3    3    0    0  0.99119733557E+01  0.22381521342E+02 -0.19630154334E+02  0.12896523087E+03  0.12509000000E+03 0.  0.
         25    1    3    3    0    0 -0.77419235622E+02 -0.16891592969E+02 -0.19754191914E+03  0.24687928604E+03  0.12509000000E+03 0.  0.
<mgrwt>
<rscale>  2 0.46365612E+03</rscale>
<asrwt>0</asrwt>
<pdfrwt beam="1">  1       21 0.21015098E-01 0.46365612E+03</pdfrwt>
<pdfrwt beam="2">  1       21 0.55307338E-01 0.46365612E+03</pdfrwt>
<totfact> 0.59745412E+04</totfact>
</mgrwt>
</event>
<event>
 7    0  0.4707675E-002  0.4524512E+03  0.7546771E-02  0.1026994E+00
         21   -1    0    0  502  501  0.00000000000E+00  0.00000000000E+00  0.38419213690E+03  0.38419213690E+03  0.00000000000E+00 0.  1.
         21   -1    0    0  501  502 -0.00000000000E+00 -0.00000000000E+00 -0.13320943076E+03  0.13320943076E+03  0.00000000000E+00 0.  1.
      99926    2    1    2    0    0  0.00000000000E+00  0.00000000000E+00  0.25098270614E+03  0.51740156766E+03  0.45245117243E+03 0.  0.
      99925    2    3    3    0    0 -0.82955473338E+02 -0.70788914877E+02  0.13669388497E+03  0.31590188088E+03  0.26308952683E+03 0.  0.
         25    1    3    3    0    0  0.82955473338E+02  0.70788914877E+02  0.11428882117E+03  0.20149968678E+03  0.12509000000E+03 0.  0.
         25    1    4    4    0    0 -0.63227667491E+02 -0.73196282557E+02  0.74346777969E+02  0.17472946292E+03  0.12509000000E+03 0.  0.
         25    1    4    4    0    0 -0.19727805847E+02  0.24073676804E+01  0.62347107004E+02  0.14117241797E+03  0.12509000000E+03 0.  0.
<mgrwt>
<rscale>  2 0.45245117E+03</rscale>
<asrwt>0</asrwt>
<pdfrwt beam="1">  1       21 0.56498843E-01 0.45245117E+03</pdfrwt>
<pdfrwt beam="2">  1       21 0.19589622E-01 0.45245117E+03</pdfrwt>
<totfact> 0.65376766E+04</totfact>
</mgrwt>
</event>
<event>
 7    0  0.4707675E-002  0.4579357E+03  0.7546771E-02  0.1025382E+00
         21   -1    0    0  502  501  0.00000000000E+00  0.00000000000E+00  0.42619887352E+03  0.42619887352E+03  0.00000000000E+00 0. -1.
         21   -1    0    0  501  502 -0.00000000000E+00 -0.00000000000E+00 -0.12300893429E+03  0.12300893429E+03  0.00000000000E+00 0. -1.
      99926    2    1    2    0    0  0.14210854715E-13  0.44408920985E-15  0.30318993923E+03  0.54920780780E+03  0.45793566895E+03 0.  0.
      99925    2    3    3    0    0 -0.11590168542E+03 -0.34228654304E+01  0.19073212669E+03  0.34490610836E+03  0.26293832498E+03 0.  0.
         25    1    4    4    0    0 -0.18835823189E+02 -0.37464596934E+01  0.62437646435E+02  0.14111977887E+03  0.12509000000E+03 0.  0.
         25    1    3    3    0    0  0.11590168542E+03  0.34228654304E+01  0.11245781254E+03  0.20430169944E+03  0.12509000000E+03 0.  0.
         25    1    4    4    0    0 -0.97065862235E+02  0.32359426297E+00  0.12829448026E+03  0.20378632950E+03  0.12509000000E+03 0.  0.
<mgrwt>
<rscale>  2 0.45793567E+03</rscale>
<asrwt>0</asrwt>
<pdfrwt beam="1">  1       21 0.62676304E-01 0.45793567E+03</pdfrwt>
<pdfrwt beam="2">  1       21 0.18089549E-01 0.45793567E+03</pdfrwt>
<totfact> 0.60501312E+04</totfact>
</mgrwt>
</event>
<event>
 7    0  0.4707675E-002  0.4657888E+03  0.7546771E-02  0.1023116E+00
         21   -1    0    0  502  501  0.00000000000E+00  0.00000000000E+00  0.68081272729E+02  0.68081272729E+02  0.00000000000E+00 0. -1.
         21   -1    0    0  501  502 -0.00000000000E+00 -0.00000000000E+00 -0.79669203334E+03  0.79669203334E+03  0.00000000000E+00 0. -1.
      99926    2    1    2    0    0  0.00000000000E+00  0.14210854715E-13 -0.72861076061E+03  0.86477330607E+03  0.46578882599E+03 0.  0.
      99925    2    3    3    0    0 -0.95227821557E+02  0.69373811992E+02 -0.52142916783E+03  0.59560275739E+03  0.26262750001E+03 0.  0.
         25    1    3    3    0    0  0.95227821557E+02 -0.69373811992E+02 -0.20718159278E+03  0.26917054868E+03  0.12509000000E+03 0.  0.
         25    1    4    4    0    0 -0.59831145081E+02  0.68983419245E+02 -0.24051550139E+03  0.28606588850E+03  0.12509000000E+03 0.  0.
         25    1    4    4    0    0 -0.35396676476E+02  0.39039274726E+00 -0.28091366644E+03  0.30953686890E+03  0.12509000000E+03 0.  0.
<mgrwt>
<rscale>  2 0.46578883E+03</rscale>
<asrwt>0</asrwt>
<pdfrwt beam="1">  1       21 0.10011952E-01 0.46578883E+03</pdfrwt>
<pdfrwt beam="2">  1       21 0.11716059E+00 0.46578883E+03</pdfrwt>
<totfact> 0.41187962E+04</totfact>
</mgrwt>
</event>
<event>
 7    0  0.4707675E-002  0.4327010E+03  0.7546771E-02  0.1033010E+00
         21   -1    0    0  502  501  0.00000000000E+00  0.00000000000E+00  0.92760464489E+02  0.92760464489E+02  0.00000000000E+00 0.  1.
         21   -1    0    0  501  502 -0.00000000000E+00 -0.00000000000E+00 -0.50460645617E+03  0.50460645617E+03  0.00000000000E+00 0.  1.
      99926    2    1    2    0    0  0.00000000000E+00  0.00000000000E+00 -0.41184599168E+03  0.59736692066E+03  0.43270095567E+03 0.  0.
      99925    2    3    3    0    0  0.47873207723E+02 -0.72387646658E+02 -0.30175161807E+03  0.40948372661E+03  0.26285179844E+03 0.  0.
         25    1    3    3    0    0 -0.47873207723E+02  0.72387646658E+02 -0.11009437361E+03  0.18788319405E+03  0.12509000000E+03 0.  0.
         25    1    4    4    0    0  0.21513155676E+02 -0.11922213233E+02 -0.19202582960E+03  0.23049161019E+03  0.12509000000E+03 0.  0.
         25    1    4    4    0    0  0.26360052047E+02 -0.60465433426E+02 -0.10972578847E+03  0.17899211642E+03  0.12509000000E+03 0.  0.
<mgrwt>
<rscale>  2 0.43270096E+03</rscale>
<asrwt>0</asrwt>
<pdfrwt beam="1">  1       21 0.13641245E-01 0.43270096E+03</pdfrwt>
<pdfrwt beam="2">  1       21 0.74206832E-01 0.43270096E+03</pdfrwt>
<totfact> 0.70457662E+04</totfact>
</mgrwt>
</event>
<event>
 7    0  0.4707675E-002  0.4537759E+03  0.7546771E-02  0.1026602E+00
         21   -1    0    0  502  501  0.00000000000E+00  0.00000000000E+00  0.71696591998E+02  0.71696591998E+02  0.00000000000E+00 0.  1.
         21   -1    0    0  501  502 -0.00000000000E+00 -0.00000000000E+00 -0.71799994995E+03  0.71799994995E+03  0.00000000000E+00 0.  1.
      99926    2    1    2    0    0  0.00000000000E+00 -0.71054273576E-14 -0.64630335795E+03  0.78969654195E+03  0.45377593355E+03 0.  0.
      99925    2    3    3    0    0 -0.63322777655E+02  0.61019832231E+02 -0.28676988261E+03  0.39899842052E+03  0.26311514573E+03 0.  0.
         25    1    3    3    0    0  0.63322777655E+02 -0.61019832231E+02 -0.35953347534E+03  0.39069812142E+03  0.12509000000E+03 0.  0.
         25    1    4    4    0    0 -0.65081804326E+02  0.38457003058E+02 -0.11880844933E+03  0.18835481961E+03  0.12509000000E+03 0.  0.
         25    1    4    4    0    0  0.17590266709E+01  0.22562829173E+02 -0.16796143328E+03  0.21064360091E+03  0.12509000000E+03 0.  0.
<mgrwt>
<rscale>  2 0.45377593E+03</rscale>
<asrwt>0</asrwt>
<pdfrwt beam="1">  1       21 0.10543616E-01 0.45377593E+03</pdfrwt>
<pdfrwt beam="2">  1       21 0.10558823E+00 0.45377593E+03</pdfrwt>
<totfact> 0.48733737E+04</totfact>
</mgrwt>
</event>
<event>
 7    0  0.4707675E-002  0.4270653E+03  0.7546771E-02  0.1034791E+00
         21   -1    0    0  502  501  0.00000000000E+00  0.00000000000E+00  0.23171164167E+03  0.23171164167E+03  0.00000000000E+00 0. -1.
         21   -1    0    0  501  502 -0.00000000000E+00 -0.00000000000E+00 -0.19677991607E+03  0.19677991607E+03  0.00000000000E+00 0. -1.
      99926    2    1    2    0    0  0.88817841970E-15  0.00000000000E+00  0.34931725600E+02  0.42849155774E+03  0.42706532240E+03 0.  0.
      99925    2    3    3    0    0 -0.78093609868E+01  0.10538916903E+02  0.10703676995E+03  0.28351328209E+03  0.26220384458E+03 0.  0.
         25    1    4    4    0    0 -0.17009097329E+02  0.14387670328E+02  0.92552032974E+02  0.15719319755E+03  0.12509000000E+03 0.  0.
         25    1    3    3    0    0  0.78093609868E+01 -0.10538916903E+02 -0.72105044354E+02  0.14497827565E+03  0.12509000000E+03 0.  0.
         25    1    4    4    0    0  0.91997363424E+01 -0.38487534245E+01  0.14484736980E+02  0.12632008454E+03  0.12509000000E+03 0.  0.
<mgrwt>
<rscale>  2 0.42706532E+03</rscale>
<asrwt>0</asrwt>
<pdfrwt beam="1">  1       21 0.34075242E-01 0.42706532E+03</pdfrwt>
<pdfrwt beam="2">  1       21 0.28938223E-01 0.42706532E+03</pdfrwt>
<totfact> 0.88718390E+04</totfact>
</mgrwt>
</event>
<event>
 7    0  0.4707675E-002  0.4540114E+03  0.7546771E-02  0.1026533E+00
         21   -1    0    0  502  501  0.00000000000E+00  0.00000000000E+00  0.11141133029E+03  0.11141133029E+03  0.00000000000E+00 0.  1.
         21   -1    0    0  501  502 -0.00000000000E+00 -0.00000000000E+00 -0.46253459377E+03  0.46253459377E+03  0.00000000000E+00 0.  1.
      99926    2    1    2    0    0  0.88817841970E-15  0.71054273576E-14 -0.35112326348E+03  0.57394592406E+03  0.45401142892E+03 0.  0.
      99925    2    3    3    0    0  0.48673636831E+01 -0.35753043323E+02 -0.86888286674E+02  0.27937911941E+03  0.26306110823E+03 0.  0.
         25    1    3    3    0    0 -0.48673636831E+01  0.35753043323E+02 -0.26423497681E+03  0.29456680465E+03  0.12509000000E+03 0.  0.
         25    1    4    4    0    0 -0.13571636523E+02 -0.19822760360E+01 -0.69681572425E+01  0.12603246428E+03  0.12509000000E+03 0.  0.
         25    1    4    4    0    0  0.18439000206E+02 -0.33770767287E+02 -0.79920129432E+02  0.15334665513E+03  0.12509000000E+03 0.  0.
<mgrwt>
<rscale>  2 0.45401143E+03</rscale>
<asrwt>0</asrwt>
<pdfrwt beam="1">  1       21 0.16384019E-01 0.45401143E+03</pdfrwt>
<pdfrwt beam="2">  1       21 0.68019793E-01 0.45401143E+03</pdfrwt>
<totfact> 0.60785067E+04</totfact>
</mgrwt>
</event>
<event>
 7    0  0.4707675E-002  0.4557737E+03  0.7546771E-02  0.1026014E+00
         21   -1    0    0  502  501  0.00000000000E+00  0.00000000000E+00  0.11484915477E+03  0.11484915477E+03  0.00000000000E+00 0. -1.
         21   -1    0    0  501  502 -0.00000000000E+00 -0.00000000000E+00 -0.45217936407E+03  0.45217936407E+03  0.00000000000E+00 0. -1.
      99926    2    1    2    0    0 -0.14210854715E-13  0.00000000000E+00 -0.33733020929E+03  0.56702851884E+03  0.45577370599E+03 0.  0.
      99925    2    3    3    0    0 -0.69372703098E+02  0.89112731244E+02 -0.23142275824E+03  0.36798694757E+03  0.26287687183E+03 0.  0.
         25    1    4    4    0    0 -0.71416894831E+02  0.67654118514E+02 -0.13164795979E+03  0.20653364384E+03  0.12509000000E+03 0.  0.
         25    1    3    3    0    0  0.69372703098E+02 -0.89112731244E+02 -0.10590745106E+03  0.19904157127E+03  0.12509000000E+03 0.  0.
         25    1    4    4    0    0  0.20441917328E+01  0.21458612730E+02 -0.99774798442E+02  0.16145330373E+03  0.12509000000E+03 0.  0.
<mgrwt>
<rscale>  2 0.45577371E+03</rscale>
<asrwt>0</asrwt>
<pdfrwt beam="1">  1       21 0.16889581E-01 0.45577371E+03</pdfrwt>
<pdfrwt beam="2">  1       21 0.66496966E-01 0.45577371E+03</pdfrwt>
<totfact> 0.60384749E+04</totfact>
</mgrwt>
</event>
<event>
 7    0  0.4707675E-002  0.4583317E+03  0.7546771E-02  0.1025266E+00
         21   -1    0    0  502  501  0.00000000000E+00  0.00000000000E+00  0.11151610052E+04  0.11151610052E+04  0.00000000000E+00 0. -1.
         21   -1    0    0  501  502 -0.00000000000E+00 -0.00000000000E+00 -0.47093644282E+02  0.47093644282E+02  0.00000000000E+00 0. -1.
      99926    2    1    2    0    0 -0.35527136788E-14  0.00000000000E+00  0.10680673609E+04  0.11622546494E+04  0.45833173878E+03 0.  0.
      99925    2    3    3    0    0  0.25120922042E+02 -0.65681661115E+02  0.43554780615E+03  0.51366106595E+03  0.26306017924E+03 0.  0.
         25    1    3    3    0    0 -0.25120922042E+02  0.65681661115E+02  0.63251955472E+03  0.64859358348E+03  0.12509000000E+03 0.  0.
         25    1    4    4    0    0  0.16437166733E+02 -0.30268922447E+02  0.29353896965E+03  0.32093460848E+03  0.12509000000E+03 0.  0.
         25    1    4    4    0    0  0.86837553087E+01 -0.35412738668E+02  0.14200883650E+03  0.19272645747E+03  0.12509000000E+03 0.  0.
<mgrwt>
<rscale>  2 0.45833174E+03</rscale>
<asrwt>0</asrwt>
<pdfrwt beam="1">  1       21 0.16399425E+00 0.45833174E+03</pdfrwt>
<pdfrwt beam="2">  1       21 0.69255366E-02 0.45833174E+03</pdfrwt>
<totfact> 0.32523185E+04</totfact>
</mgrwt>
</event>
<event>
 7    0  0.4707675E-002  0.4496141E+03  0.7546771E-02  0.1027837E+00
         21   -1    0    0  502  501  0.00000000000E+00  0.00000000000E+00  0.34837798379E+04  0.34837798379E+04  0.00000000000E+00 0.  1.
         21   -1    0    0  501  502 -0.00000000000E+00 -0.00000000000E+00 -0.14506715513E+02  0.14506715513E+02  0.00000000000E+00 0.  1.
      99926    2    1    2    0    0  0.00000000000E+00  0.00000000000E+00  0.34692731223E+04  0.34982865534E+04  0.44961407015E+03 0.  0.
      99925    2    3    3    0    0 -0.82875857460E+02  0.61667792618E+02  0.19441185070E+04  0.19645279566E+04  0.26287258999E+03 0.  0.
         25    1    4    4    0    0 -0.23181931695E+01  0.12816575485E+02  0.88857633456E+03  0.89743247605E+03  0.12509000000E+03 0.  0.
         25    1    3    3    0    0  0.82875857460E+02 -0.61667792618E+02  0.15251546153E+04  0.15337585968E+04  0.12509000000E+03 0.  0.
         25    1    4    4    0    0 -0.80557664290E+02  0.48851217133E+02  0.10555421724E+04  0.10670954805E+04  0.12509000000E+03 0.  0.
<mgrwt>
<rscale>  2 0.44961407E+03</rscale>
<asrwt>0</asrwt>
<pdfrwt beam="1">  1       21 0.51231998E+00 0.44961407E+03</pdfrwt>
<pdfrwt beam="2">  1       21 0.21333429E-02 0.44961407E+03</pdfrwt>
<totfact> 0.13481600E+03</totfact>
</mgrwt>
</event>
<event>
 7    0  0.4707675E-002  0.4516204E+03  0.7546771E-02  0.1027240E+00
         21   -1    0    0  502  501  0.00000000000E+00  0.00000000000E+00  0.23732257866E+03  0.23732257866E+03  0.00000000000E+00 0. -1.
         21   -1    0    0  501  502 -0.00000000000E+00 -0.00000000000E+00 -0.21485628573E+03  0.21485628573E+03  0.00000000000E+00 0. -1.
      99926    2    1    2    0    0  0.00000000000E+00  0.00000000000E+00  0.22466292933E+02  0.45217886439E+03  0.45162040596E+03 0.  0.
      99925    2    3    3    0    0 -0.10754266155E+03 -0.22488456886E+02  0.87566956937E+01  0.28512613049E+03  0.26296211861E+03 0.  0.
         25    1    3    3    0    0  0.10754266155E+03  0.22488456886E+02  0.13709597239E+02  0.16705273390E+03  0.12509000000E+03 0.  0.
         25    1    4    4    0    0 -0.92682655955E+02 -0.35692178020E+01  0.21095734122E+02  0.15714754891E+03  0.12509000000E+03 0.  0.
         25    1    4    4    0    0 -0.14860005593E+02 -0.18919239084E+02 -0.12339038428E+02  0.12797858158E+03  0.12509000000E+03 0.  0.
<mgrwt>
<rscale>  2 0.45162041E+03</rscale>
<asrwt>0</asrwt>
<pdfrwt beam="1">  1       21 0.34900379E-01 0.45162041E+03</pdfrwt>
<pdfrwt beam="2">  1       21 0.31596513E-01 0.45162041E+03</pdfrwt>
<totfact> 0.70638652E+04</totfact>
</mgrwt>
</event>
<event>
 7    0  0.4707675E-002  0.4593143E+03  0.7546771E-02  0.1024980E+00
         21   -1    0    0  502  501  0.00000000000E+00  0.00000000000E+00  0.28137433277E+03  0.28137433277E+03  0.00000000000E+00 0. -1.
         21   -1    0    0  501  502 -0.00000000000E+00 -0.00000000000E+00 -0.18744572703E+03  0.18744572703E+03  0.00000000000E+00 0. -1.
      99926    2    1    2    0    0  0.00000000000E+00  0.00000000000E+00  0.93928605739E+02  0.46882005979E+03  0.45931434278E+03 0.  0.
      99925    2    3    3    0    0 -0.82499362632E+02  0.14067884644E+02  0.14280241399E+03  0.31057908076E+03  0.26279799419E+03 0.  0.
         25    1    4    4    0    0 -0.24281720442E+02 -0.89706992953E+01  0.10584867049E+03  0.16589612575E+03  0.12509000000E+03 0.  0.
         25    1    4    4    0    0 -0.58217642190E+02  0.23038583939E+02  0.36953743496E+02  0.14468295501E+03  0.12509000000E+03 0.  0.
         25    1    3    3    0    0  0.82499362632E+02 -0.14067884644E+02 -0.48873808248E+02  0.15824097903E+03  0.12509000000E+03 0.  0.
<mgrwt>
<rscale>  2 0.45931434E+03</rscale>
<asrwt>0</asrwt>
<pdfrwt beam="1">  1       21 0.41378578E-01 0.45931434E+03</pdfrwt>
<pdfrwt beam="2">  1       21 0.27565548E-01 0.45931434E+03</pdfrwt>
<totfact> 0.65260620E+04</totfact>
</mgrwt>
</event>
<event>
 7    0  0.4707675E-002  0.4590901E+03  0.7546771E-02  0.1025045E+00
         21   -1    0    0  502  501  0.00000000000E+00  0.00000000000E+00  0.71910792223E+02  0.71910792223E+02  0.00000000000E+00 0.  1.
         21   -1    0    0  501  502 -0.00000000000E+00 -0.00000000000E+00 -0.73272619390E+03  0.73272619390E+03  0.00000000000E+00 0.  1.
      99926    2    1    2    0    0 -0.14210854715E-13  0.71054273576E-14 -0.66081540168E+03  0.80463698612E+03  0.45909006126E+03 0.  0.
      99925    2    3    3    0    0 -0.11037075415E+03 -0.34267933790E+02 -0.38348009959E+03  0.47918595672E+03  0.26307071231E+03 0.  0.
         25    1    3    3    0    0  0.11037075415E+03  0.34267933790E+02 -0.27733530209E+03  0.32545102941E+03  0.12509000000E+03 0.  0.
         25    1    4    4    0    0 -0.58376209906E+02 -0.29958005485E-02 -0.25194774254E+03  0.28728549383E+03  0.12509000000E+03 0.  0.
         25    1    4    4    0    0 -0.51994544244E+02 -0.34264937990E+02 -0.13153235705E+03  0.19190046289E+03  0.12509000000E+03 0.  0.
<mgrwt>
<rscale>  2 0.45909006E+03</rscale>
<asrwt>0</asrwt>
<pdfrwt beam="1">  1       21 0.10575117E-01 0.45909006E+03</pdfrwt>
<pdfrwt beam="2">  1       21 0.10775385E+00 0.45909006E+03</pdfrwt>
<totfact> 0.46045540E+04</totfact>
</mgrwt>
</event>
<event>
 7    0  0.4707675E-002  0.4575155E+03  0.7546771E-02  0.1025504E+00
         21   -1    0    0  502  501  0.00000000000E+00  0.00000000000E+00  0.10694702228E+04  0.10694702228E+04  0.00000000000E+00 0. -1.
         21   -1    0    0  501  502 -0.00000000000E+00 -0.00000000000E+00 -0.48930875017E+02  0.48930875017E+02  0.00000000000E+00 0. -1.
      99926    2    1    2    0    0  0.00000000000E+00  0.00000000000E+00  0.10205393478E+04  0.11184010978E+04  0.45751552457E+03 0.  0.
      99925    2    3    3    0    0 -0.85331203077E+02 -0.65164064645E+02  0.53633949133E+03  0.60690840126E+03  0.26296385307E+03 0.  0.
         25    1    3    3    0    0  0.85331203077E+02  0.65164064645E+02  0.48419985644E+03  0.51149269654E+03  0.12509000000E+03 0.  0.
         25    1    4    4    0    0 -0.23639995463E+02  0.45761042997E+01  0.21990414389E+03  0.25413604765E+03  0.12509000000E+03 0.  0.
         25    1    4    4    0    0 -0.61691207614E+02 -0.69740168944E+02  0.31643534744E+03  0.35277235361E+03  0.12509000000E+03 0.  0.
<mgrwt>
<rscale>  2 0.45751552E+03</rscale>
<asrwt>0</asrwt>
<pdfrwt beam="1">  1       21 0.15727502E+00 0.45751552E+03</pdfrwt>
<pdfrwt beam="2">  1       21 0.71957176E-02 0.45751552E+03</pdfrwt>
<totfact> 0.34179783E+04</totfact>
</mgrwt>
</event>
<event>
 7    0  0.4707675E-002  0.4595489E+03  0.7546771E-02  0.1024912E+00
         21   -1    0    0  502  501  0.00000000000E+00  0.00000000000E+00  0.56934058714E+03  0.56934058714E+03  0.00000000000E+00 0.  1.
         21   -1    0    0  501  502 -0.00000000000E+00 -0.00000000000E+00 -0.92732379857E+02  0.92732379857E+02  0.00000000000E+00 0.  1.
      99926    2    1    2    0    0  0.00000000000E+00  0.00000000000E+00  0.47660820728E+03  0.66207296699E+03  0.45954894231E+03 0.  0.
      99925    2    3    3    0    0 -0.12036334534E+02  0.80910747440E+02  0.17701878901E+03  0.32727041318E+03  0.26282855492E+03 0.  0.
         25    1    4    4    0    0 -0.30359694616E+02  0.64687002231E+02  0.12061235320E+03  0.18788551610E+03  0.12509000000E+03 0.  0.
         25    1    3    3    0    0  0.12036334534E+02 -0.80910747440E+02  0.29958941827E+03  0.33480255382E+03  0.12509000000E+03 0.  0.
         25    1    4    4    0    0  0.18323360082E+02  0.16223745209E+02  0.56406435803E+02  0.13938489708E+03  0.12509000000E+03 0.  0.
<mgrwt>
<rscale>  2 0.45954894E+03</rscale>
<asrwt>0</asrwt>
<pdfrwt beam="1">  1       21 0.83726556E-01 0.45954894E+03</pdfrwt>
<pdfrwt beam="2">  1       21 0.13637115E-01 0.45954894E+03</pdfrwt>
<totfact> 0.53080844E+04</totfact>
</mgrwt>
</event>
<event>
 7    0  0.4707675E-002  0.4545756E+03  0.7546771E-02  0.1026366E+00
         21   -1    0    0  502  501  0.00000000000E+00  0.00000000000E+00  0.40728067066E+02  0.40728067066E+02  0.00000000000E+00 0. -1.
         21   -1    0    0  501  502 -0.00000000000E+00 -0.00000000000E+00 -0.12684063212E+04  0.12684063212E+04  0.00000000000E+00 0. -1.
      99926    2    1    2    0    0  0.71054273576E-14  0.00000000000E+00 -0.12276782542E+04  0.13091343883E+04  0.45457557223E+03 0.  0.
      99925    2    3    3    0    0 -0.47161169053E+02 -0.20583653360E+02 -0.48398620477E+03  0.55324204472E+03  0.26303279450E+03 0.  0.
         25    1    3    3    0    0  0.47161169053E+02  0.20583653360E+02 -0.74369204939E+03  0.75589234358E+03  0.12509000000E+03 0.  0.
         25    1    4    4    0    0  0.64248620526E+01 -0.16297841379E+02 -0.17729647756E+03  0.21768887785E+03  0.12509000000E+03 0.  0.
         25    1    4    4    0    0 -0.53586031106E+02 -0.42858119814E+01 -0.30668972721E+03  0.33555316686E+03  0.12509000000E+03 0.  0.
<mgrwt>
<rscale>  2 0.45457557E+03</rscale>
<asrwt>0</asrwt>
<pdfrwt beam="1">  1       21 0.59894221E-02 0.45457557E+03</pdfrwt>
<pdfrwt beam="2">  1       21 0.18653033E+00 0.45457557E+03</pdfrwt>
<totfact> 0.28945974E+04</totfact>
</mgrwt>
</event>
<event>
 7    0  0.4707675E-002  0.4476516E+03  0.7546771E-02  0.1028425E+00
         21   -1    0    0  502  501  0.00000000000E+00  0.00000000000E+00  0.50185675088E+03  0.50185675088E+03  0.00000000000E+00 0. -1.
         21   -1    0    0  501  502 -0.00000000000E+00 -0.00000000000E+00 -0.99825283473E+02  0.99825283473E+02  0.00000000000E+00 0. -1.
      99926    2    1    2    0    0 -0.14210854715E-13  0.00000000000E+00  0.40203146741E+03  0.60168203436E+03  0.44765161642E+03 0.  0.
      99925    2    3    3    0    0  0.77393570938E+02  0.43497206352E+02  0.17653327743E+03  0.32895742314E+03  0.26299660913E+03 0.  0.
         25    1    4    4    0    0  0.59364541936E+02  0.35090036436E+02  0.53941055182E+02  0.15268465879E+03  0.12509000000E+03 0.  0.
         25    1    3    3    0    0 -0.77393570938E+02 -0.43497206352E+02  0.22549818998E+03  0.27272461122E+03  0.12509000000E+03 0.  0.
         25    1    4    4    0    0  0.18029029003E+02  0.84071699157E+01  0.12259222225E+03  0.17627276434E+03  0.12509000000E+03 0.  0.
<mgrwt>
<rscale>  2 0.44765162E+03</rscale>
<asrwt>0</asrwt>
<pdfrwt beam="1">  1       21 0.73802462E-01 0.44765162E+03</pdfrwt>
<pdfrwt beam="2">  1       21 0.14680189E-01 0.44765162E+03</pdfrwt>
<totfact> 0.62102540E+04</totfact>
</mgrwt>
</event>
<event>
 7    0  0.4707675E-002  0.4610541E+03  0.7546771E-02  0.1024476E+00
         21   -1    0    0  502  501  0.00000000000E+00  0.00000000000E+00  0.16001643653E+03  0.16001643653E+03  0.00000000000E+00 0. -1.
         21   -1    0    0  501  502 -0.00000000000E+00 -0.00000000000E+00 -0.33210785414E+03  0.33210785414E+03  0.00000000000E+00 0. -1.
      99926    2    1    2    0    0  0.00000000000E+00  0.00000000000E+00 -0.17209141760E+03  0.49212429067E+03  0.46105407650E+03 0.  0.
      99925    2    3    3    0    0  0.49726941595E+02 -0.10730832593E+03 -0.11821039964E+03  0.31173992957E+03  0.26309739559E+03 0.  0.
         25    1    4    4    0    0  0.40404216579E+02 -0.14647155672E+02 -0.47910405545E+02  0.14067677472E+03  0.12509000000E+03 0.  0.
         25    1    4    4    0    0  0.93227250163E+01 -0.92661170258E+02 -0.70299994094E+02  0.17106315484E+03  0.12509000000E+03 0.  0.
         25    1    3    3    0    0 -0.49726941595E+02  0.10730832593E+03 -0.53881017962E+02  0.18038436110E+03  0.12509000000E+03 0.  0.
<mgrwt>
<rscale>  2 0.46105408E+03</rscale>
<asrwt>0</asrwt>
<pdfrwt beam="1">  1       21 0.23531829E-01 0.46105408E+03</pdfrwt>
<pdfrwt beam="2">  1       21 0.48839389E-01 0.46105408E+03</pdfrwt>
<totfact> 0.62756754E+04</totfact>
</mgrwt>
</event>
<event>
 7    0  0.4707675E-002  0.4589425E+03  0.7546771E-02  0.1025088E+00
         21   -1    0    0  502  501  0.00000000000E+00  0.00000000000E+00  0.13272086187E+03  0.13272086187E+03  0.00000000000E+00 0. -1.
         21   -1    0    0  501  502 -0.00000000000E+00 -0.00000000000E+00 -0.39675046212E+03  0.39675046212E+03  0.00000000000E+00 0. -1.
      99926    2    1    2    0    0  0.00000000000E+00  0.14210854715E-13 -0.26402960024E+03  0.52947132399E+03  0.45894253793E+03 0.  0.
      99925    2    3    3    0    0  0.54620073021E+02  0.10294322593E+03 -0.15650039457E+03  0.32750425164E+03  0.26303231968E+03 0.  0.
         25    1    4    4    0    0  0.33759737766E+02  0.31804137132E+02 -0.34769650255E+02  0.13786826942E+03  0.12509000000E+03 0.  0.
         25    1    4    4    0    0  0.20860335255E+02  0.71139088801E+02 -0.12173074431E+03  0.18963598222E+03  0.12509000000E+03 0.  0.
         25    1    3    3    0    0 -0.54620073021E+02 -0.10294322593E+03 -0.10752920567E+03  0.20196707235E+03  0.12509000000E+03 0.  0.
<mgrwt>
<rscale>  2 0.45894254E+03</rscale>
<asrwt>0</asrwt>
<pdfrwt beam="1">  1       21 0.19517773E-01 0.45894254E+03</pdfrwt>
<pdfrwt beam="2">  1       21 0.58345658E-01 0.45894254E+03</pdfrwt>
<totfact> 0.61303989E+04</totfact>
</mgrwt>
</event>
<event>
 7    0  0.4707675E-002  0.4913302E+03  0.7546771E-02  0.1016067E+00
         21   -1    0    0  502  501  0.00000000000E+00  0.00000000000E+00  0.10560749258E+04  0.10560749258E+04  0.00000000000E+00 0.  1.
         21   -1    0    0  501  502 -0.00000000000E+00 -0.00000000000E+00 -0.57146831691E+02  0.57146831691E+02  0.00000000000E+00 0.  1.
      99926    2    1    2    0    0  0.00000000000E+00  0.00000000000E+00  0.99892809415E+03  0.11132217575E+04  0.49133017836E+03 0.  0.
      99925    2    3    3    0    0  0.88168858664E+02  0.11443650084E+03  0.62579470079E+03  0.69400165103E+03  0.26296354067E+03 0.  0.
         25    1    4    4    0    0  0.28923985589E+01  0.54147520717E+02  0.26094779857E+03  0.29441735962E+03  0.12509000000E+03 0.  0.
         25    1    4    4    0    0  0.85276460105E+02  0.60288980125E+02  0.36484690223E+03  0.39958429140E+03  0.12509000000E+03 0.  0.
         25    1    3    3    0    0 -0.88168858664E+02 -0.11443650084E+03  0.37313339336E+03  0.41922010651E+03  0.12509000000E+03 0.  0.
<mgrwt>
<rscale>  2 0.49133018E+03</rscale>
<asrwt>0</asrwt>
<pdfrwt beam="1">  1       21 0.15530512E+00 0.49133018E+03</pdfrwt>
<pdfrwt beam="2">  1       21 0.84039466E-02 0.49133018E+03</pdfrwt>
<totfact> 0.26646938E+04</totfact>
</mgrwt>
</event>
<event>
 7    0  0.4707675E-002  0.4519850E+03  0.7546771E-02  0.1027132E+00
         21   -1    0    0  502  501  0.00000000000E+00  0.00000000000E+00  0.16131659365E+03  0.16131659365E+03  0.00000000000E+00 0. -1.
         21   -1    0    0  501  502 -0.00000000000E+00 -0.00000000000E+00 -0.31659864896E+03  0.31659864896E+03  0.00000000000E+00 0. -1.
      99926    2    1    2    0    0  0.14210854715E-13  0.00000000000E+00 -0.15528205531E+03  0.47791524262E+03  0.45198502456E+03 0.  0.
      99925    2    3    3    0    0 -0.10153491218E+03 -0.18972067699E+02 -0.57135774953E+02  0.28831176640E+03  0.26303973107E+03 0.  0.
         25    1    4    4    0    0 -0.90348973819E+02 -0.49136902771E+01 -0.47704235148E+02  0.16158676794E+03  0.12509000000E+03 0.  0.
         25    1    4    4    0    0 -0.11185938362E+02 -0.14058377422E+02 -0.94315398051E+01  0.12672499846E+03  0.12509000000E+03 0.  0.
         25    1    3    3    0    0  0.10153491218E+03  0.18972067699E+02 -0.98146280356E+02  0.18960347621E+03  0.12509000000E+03 0.  0.
<mgrwt>
<rscale>  2 0.45198502E+03</rscale>
<asrwt>0</asrwt>
<pdfrwt beam="1">  1       21 0.23723029E-01 0.45198502E+03</pdfrwt>
<pdfrwt beam="2">  1       21 0.46558625E-01 0.45198502E+03</pdfrwt>
<totfact> 0.68476252E+04</totfact>
</mgrwt>
</event>
<event>
 7    0  0.4707675E-002  0.4715785E+03  0.7546771E-02  0.1021476E+00
         21   -1    0    0  502  501  0.00000000000E+00  0.00000000000E+00  0.12908875430E+03  0.12908875430E+03  0.00000000000E+00 0.  1.
         21   -1    0    0  501  502 -0.00000000000E+00 -0.00000000000E+00 -0.43068479823E+03  0.43068479823E+03  0.00000000000E+00 0.  1.
      99926    2    1    2    0    0  0.00000000000E+00  0.00000000000E+00 -0.30159604393E+03  0.55977355253E+03  0.47157847322E+03 0.  0.
      99925    2    3    3    0    0  0.10259203747E+03  0.12727281857E+01 -0.27809522906E+03  0.39629100794E+03  0.26302634955E+03 0.  0.
         25    1    4    4    0    0  0.36652075339E+02 -0.21227665552E+01 -0.18732795483E+03  0.22822609738E+03  0.12509000000E+03 0.  0.
         25    1    3    3    0    0 -0.10259203747E+03 -0.12727281857E+01 -0.23500814863E+02  0.16348254460E+03  0.12509000000E+03 0.  0.
         25    1    4    4    0    0  0.65939962127E+02  0.33954947409E+01 -0.90767274236E+02  0.16806491056E+03  0.12509000000E+03 0.  0.
<mgrwt>
<rscale>  2 0.47157847E+03</rscale>
<asrwt>0</asrwt>
<pdfrwt beam="1">  1       21 0.18983640E-01 0.47157847E+03</pdfrwt>
<pdfrwt beam="2">  1       21 0.63336000E-01 0.47157847E+03</pdfrwt>
<totfact> 0.53812092E+04</totfact>
</mgrwt>
</event>
<event>
 7    0  0.4707675E-002  0.4564119E+03  0.7546771E-02  0.1025827E+00
         21   -1    0    0  502  501  0.00000000000E+00  0.00000000000E+00  0.14042591901E+03  0.14042591901E+03  0.00000000000E+00 0.  1.
         21   -1    0    0  501  502 -0.00000000000E+00 -0.00000000000E+00 -0.37085707978E+03  0.37085707978E+03  0.00000000000E+00 0.  1.
      99926    2    1    2    0    0  0.77715611724E-15  0.00000000000E+00 -0.23043116077E+03  0.51128299879E+03  0.45641185896E+03 0.  0.
      99925    2    3    3    0    0 -0.56146683165E+00 -0.98039707917E+01 -0.27238657684E+03  0.37897956676E+03  0.26331470086E+03 0.  0.
         25    1    4    4    0    0  0.34464145987E+02 -0.26173740608E+02 -0.14440424651E+03  0.19589011350E+03  0.12509000000E+03 0.  0.
         25    1    3    3    0    0  0.56146683165E+00  0.98039707917E+01  0.41955416079E+02  0.13230343203E+03  0.12509000000E+03 0.  0.
         25    1    4    4    0    0 -0.35025612819E+02  0.16369769816E+02 -0.12798233033E+03  0.18308945326E+03  0.12509000000E+03 0.  0.
<mgrwt>
<rscale>  2 0.45641186E+03</rscale>
<asrwt>0</asrwt>
<pdfrwt beam="1">  1       21 0.20650870E-01 0.45641186E+03</pdfrwt>
<pdfrwt beam="2">  1       21 0.54537806E-01 0.45641186E+03</pdfrwt>
<totfact> 0.63767542E+04</totfact>
</mgrwt>
</event>
<event>
 7    0  0.4707675E-002  0.4531902E+03  0.7546771E-02  0.1026775E+00
         21   -1    0    0  502  501  0.00000000000E+00  0.00000000000E+00  0.67568197928E+02  0.67568197928E+02  0.00000000000E+00 0. -1.
         21   -1    0    0  501  502 -0.00000000000E+00 -0.00000000000E+00 -0.75990387242E+03  0.75990387242E+03  0.00000000000E+00 0. -1.
      99926    2    1    2    0    0  0.00000000000E+00 -0.17763568394E-14 -0.69233567449E+03  0.82747207035E+03  0.45319018197E+03 0.  0.
      99925    2    3    3    0    0 -0.10367642811E+03  0.14582177471E+02 -0.36573979894E+03  0.46240520569E+03  0.26285268131E+03 0.  0.
         25    1    4    4    0    0 -0.24010273317E+02  0.17529356454E+02 -0.12301375417E+03  0.17794286548E+03  0.12509000000E+03 0.  0.
         25    1    3    3    0    0  0.10367642811E+03 -0.14582177471E+02 -0.32659587555E+03  0.36506686466E+03  0.12509000000E+03 0.  0.
         25    1    4    4    0    0 -0.79666154792E+02 -0.29471789823E+01 -0.24272604477E+03  0.28446234020E+03  0.12509000000E+03 0.  0.
<mgrwt>
<rscale>  2 0.45319018E+03</rscale>
<asrwt>0</asrwt>
<pdfrwt beam="1">  1       21 0.99364994E-02 0.45319018E+03</pdfrwt>
<pdfrwt beam="2">  1       21 0.11175057E+00 0.45319018E+03</pdfrwt>
<totfact> 0.47130258E+04</totfact>
</mgrwt>
</event>
<event>
 7    0  0.4707675E-002  0.4566552E+03  0.7546771E-02  0.1025756E+00
         21   -1    0    0  502  501  0.00000000000E+00  0.00000000000E+00  0.54618603806E+03  0.54618603806E+03  0.00000000000E+00 0.  1.
         21   -1    0    0  501  502 -0.00000000000E+00 -0.00000000000E+00 -0.95450048280E+02  0.95450048280E+02  0.00000000000E+00 0.  1.
      99926    2    1    2    0    0  0.00000000000E+00  0.35527136788E-14  0.45073598978E+03  0.64163608634E+03  0.45665515963E+03 0.  0.
      99925    2    3    3    0    0 -0.16987705689E+02  0.64911901614E+01  0.44236374762E+03  0.51495412143E+03  0.26298544500E+03 0.  0.
         25    1    4    4    0    0 -0.10500562939E+02  0.40245506386E+02  0.25507896372E+03  0.28712845285E+03  0.12509000000E+03 0.  0.
         25    1    3    3    0    0  0.16987705689E+02 -0.64911901614E+01  0.83722421670E+01  0.12668196491E+03  0.12509000000E+03 0.  0.
         25    1    4    4    0    0 -0.64871427503E+01 -0.33754316225E+02  0.18728478390E+03  0.22782566858E+03  0.12509000000E+03 0.  0.
<mgrwt>
<rscale>  2 0.45665516E+03</rscale>
<asrwt>0</asrwt>
<pdfrwt beam="1">  1       21 0.80321475E-01 0.45665516E+03</pdfrwt>
<pdfrwt beam="2">  1       21 0.14036772E-01 0.45665516E+03</pdfrwt>
<totfact> 0.55458015E+04</totfact>
</mgrwt>
</event>
<event>
 7    0  0.4707675E-002  0.4482447E+03  0.7546771E-02  0.1028247E+00
         21   -1    0    0  502  501  0.00000000000E+00  0.00000000000E+00  0.10653979502E+03  0.10653979502E+03  0.00000000000E+00 0.  1.
         21   -1    0    0  501  502 -0.00000000000E+00 -0.00000000000E+00 -0.47147481720E+03  0.47147481720E+03  0.00000000000E+00 0.  1.
      99926    2    1    2    0    0  0.00000000000E+00  0.00000000000E+00 -0.36493502218E+03  0.57801461221E+03  0.44824471165E+03 0.  0.
      99925    2    3    3    0    0 -0.96669016542E+02 -0.25580625009E+02 -0.18320574054E+03  0.33579094071E+03  0.26304361874E+03 0.  0.
         25    1    4    4    0    0 -0.41121003250E+02 -0.46974032417E+01 -0.42634521860E+02  0.13848542544E+03  0.12509000000E+03 0.  0.
         25    1    4    4    0    0 -0.55548013291E+02 -0.20883221767E+02 -0.14057121868E+03  0.19730551527E+03  0.12509000000E+03 0.  0.
         25    1    3    3    0    0  0.96669016542E+02  0.25580625009E+02 -0.18172928163E+03  0.24222367151E+03  0.12509000000E+03 0.  0.
<mgrwt>
<rscale>  2 0.44824471E+03</rscale>
<asrwt>0</asrwt>
<pdfrwt beam="1">  1       21 0.15667617E-01 0.44824471E+03</pdfrwt>
<pdfrwt beam="2">  1       21 0.69334533E-01 0.44824471E+03</pdfrwt>
<totfact> 0.63369525E+04</totfact>
</mgrwt>
</event>
<event>
 7    0  0.4707675E-002  0.4463904E+03  0.7546771E-02  0.1028804E+00
         21   -1    0    0  502  501  0.00000000000E+00  0.00000000000E+00  0.21985490520E+03  0.21985490520E+03  0.00000000000E+00 0.  1.
         21   -1    0    0  501  502 -0.00000000000E+00 -0.00000000000E+00 -0.22658625638E+03  0.22658625638E+03  0.00000000000E+00 0.  1.
      99926    2    1    2    0    0 -0.14210854715E-13 -0.35527136788E-14 -0.67313511769E+01  0.44644116158E+03  0.44639041171E+03 0.  0.
      99925    2    3    3    0    0 -0.85588438665E+02 -0.10291998814E+02 -0.63949453621E+02  0.28410593614E+03  0.26305007937E+03 0.  0.
         25    1    4    4    0    0 -0.50951923915E+02  0.31224481633E+02 -0.15589962723E+02  0.13950491691E+03  0.12509000000E+03 0.  0.
         25    1    4    4    0    0 -0.34636514750E+02 -0.41516480446E+02 -0.48359490898E+02  0.14460101923E+03  0.12509000000E+03 0.  0.
         25    1    3    3    0    0  0.85588438665E+02  0.10291998814E+02  0.57218102444E+02  0.16233522544E+03  0.12509000000E+03 0.  0.
<mgrwt>
<rscale>  2 0.44639041E+03</rscale>
<asrwt>0</asrwt>
<pdfrwt beam="1">  1       21 0.32331604E-01 0.44639041E+03</pdfrwt>
<pdfrwt beam="2">  1       21 0.33321508E-01 0.44639041E+03</pdfrwt>
<totfact> 0.74141168E+04</totfact>
</mgrwt>
</event>
<event>
 7    0  0.4707675E-002  0.4601278E+03  0.7546771E-02  0.1024744E+00
         21   -1    0    0  502  501  0.00000000000E+00  0.00000000000E+00  0.50789951238E+02  0.50789951238E+02  0.00000000000E+00 0.  1.
         21   -1    0    0  501  502 -0.00000000000E+00 -0.00000000000E+00 -0.10421233761E+04  0.10421233761E+04  0.00000000000E+00 0.  1.
      99926    2    1    2    0    0  0.00000000000E+00 -0.26645352591E-14 -0.99133342489E+03  0.10929133274E+04  0.46012778858E+03 0.  0.
      99925    2    3    3    0    0  0.14249029800E+02 -0.22086789086E+01 -0.89886069991E+03  0.93668712573E+03  0.26310511311E+03 0.  0.
         25    1    4    4    0    0 -0.16274534983E+02 -0.24283440461E+02 -0.36054123978E+03  0.38274278524E+03  0.12509000000E+03 0.  0.
         25    1    3    3    0    0 -0.14249029800E+02  0.22086789086E+01 -0.92472724976E+02  0.15622620163E+03  0.12509000000E+03 0.  0.
         25    1    4    4    0    0  0.30523564782E+02  0.22074761552E+02 -0.53831946013E+03  0.55394434049E+03  0.12509000000E+03 0.  0.
<mgrwt>
<rscale>  2 0.46012779E+03</rscale>
<asrwt>0</asrwt>
<pdfrwt beam="1">  1       21 0.74691104E-02 0.46012779E+03</pdfrwt>
<pdfrwt beam="2">  1       21 0.15325344E+00 0.46012779E+03</pdfrwt>
<totfact> 0.34346219E+04</totfact>
</mgrwt>
</event>
<event>
 7    0  0.4707675E-002  0.4522428E+03  0.7546771E-02  0.1027055E+00
         21   -1    0    0  502  501  0.00000000000E+00  0.00000000000E+00  0.20642518087E+03  0.20642518087E+03  0.00000000000E+00 0. -1.
         21   -1    0    0  501  502 -0.00000000000E+00 -0.00000000000E+00 -0.24769696769E+03  0.24769696769E+03  0.00000000000E+00 0. -1.
      99926    2    1    2    0    0  0.00000000000E+00  0.00000000000E+00 -0.41271786824E+02  0.45412214856E+03  0.45224281689E+03 0.  0.
      99925    2    3    3    0    0  0.30948061372E+02  0.10463610126E+03 -0.42864079869E+02  0.28812052301E+03  0.26319120473E+03 0.  0.
         25    1    4    4    0    0  0.26195278140E+01  0.64395405058E+02  0.15513859337E+02  0.14156912817E+03  0.12509000000E+03 0.  0.
         25    1    3    3    0    0 -0.30948061372E+02 -0.10463610126E+03  0.15922930449E+01  0.16600162555E+03  0.12509000000E+03 0.  0.
         25    1    4    4    0    0  0.28328533558E+02  0.40240696200E+02 -0.58377939207E+02  0.14655139484E+03  0.12509000000E+03 0.  0.
<mgrwt>
<rscale>  2 0.45224282E+03</rscale>
<asrwt>0</asrwt>
<pdfrwt beam="1">  1       21 0.30356644E-01 0.45224282E+03</pdfrwt>
<pdfrwt beam="2">  1       21 0.36426025E-01 0.45224282E+03</pdfrwt>
<totfact> 0.70140501E+04</totfact>
</mgrwt>
</event>
<event>
 7    0  0.4707675E-002  0.4500096E+03  0.7546771E-02  0.1027719E+00
         21   -1    0    0  502  501  0.00000000000E+00  0.00000000000E+00  0.26740697986E+02  0.26740697986E+02  0.00000000000E+00 0. -1.
         21   -1    0    0  501  502 -0.00000000000E+00 -0.00000000000E+00 -0.18932625166E+04  0.18932625166E+04  0.00000000000E+00 0. -1.
      99926    2    1    2    0    0  0.14210854715E-13 -0.35527136788E-14 -0.18665218186E+04  0.19200032146E+04  0.45000960507E+03 0.  0.
      99925    2    3    3    0    0 -0.10389362735E+03  0.28377873110E+02 -0.11260219223E+04  0.11613288483E+04  0.26298314577E+03 0.  0.
         25    1    4    4    0    0 -0.18789436390E+02  0.29120178834E+01 -0.60990265433E+03  0.62288865668E+03  0.12509000000E+03 0.  0.
         25    1    4    4    0    0 -0.85104190957E+02  0.25465855226E+02 -0.51611926800E+03  0.53844019167E+03  0.12509000000E+03 0.  0.
         25    1    3    3    0    0  0.10389362735E+03 -0.28377873110E+02 -0.74049989628E+03  0.75867436623E+03  0.12509000000E+03 0.  0.
<mgrwt>
<rscale>  2 0.45000961E+03</rscale>
<asrwt>0</asrwt>
<pdfrwt beam="1">  1       21 0.39324551E-02 0.45000961E+03</pdfrwt>
<pdfrwt beam="2">  1       21 0.27842100E+00 0.45000961E+03</pdfrwt>
<totfact> 0.15657810E+04</totfact>
</mgrwt>
</event>
<event>
 7    0  0.4707675E-002  0.4523870E+03  0.7546771E-02  0.1027013E+00
         21   -1    0    0  502  501  0.00000000000E+00  0.00000000000E+00  0.42529971308E+02  0.42529971308E+02  0.00000000000E+00 0.  1.
         21   -1    0    0  501  502 -0.00000000000E+00 -0.00000000000E+00 -0.12029984593E+04  0.12029984593E+04  0.00000000000E+00 0.  1.
      99926    2    1    2    0    0  0.00000000000E+00  0.00000000000E+00 -0.11604684880E+04  0.12455284306E+04  0.45238695806E+03 0.  0.
      99925    2    3    3    0    0  0.36238653369E+02 -0.55773839148E+02 -0.97563165527E+03  0.10126419261E+04  0.26298779948E+03 0.  0.
         25    1    3    3    0    0 -0.36238653369E+02  0.55773839148E+02 -0.18483683270E+03  0.23288650444E+03  0.12509000000E+03 0.  0.
         25    1    4    4    0    0  0.20325919683E+02 -0.69083599089E+02 -0.53514508736E+03  0.55426840006E+03  0.12509000000E+03 0.  0.
         25    1    4    4    0    0  0.15912733687E+02  0.13309759942E+02 -0.44048656791E+03  0.45837352608E+03  0.12509000000E+03 0.  0.
<mgrwt>
<rscale>  2 0.45238696E+03</rscale>
<asrwt>0</asrwt>
<pdfrwt beam="1">  1       21 0.62544084E-02 0.45238696E+03</pdfrwt>
<pdfrwt beam="2">  1       21 0.17691151E+00 0.45238696E+03</pdfrwt>
<totfact> 0.31371914E+04</totfact>
</mgrwt>
</event>
<event>
 7    0  0.4707675E-002  0.4594615E+03  0.7546771E-02  0.1024938E+00
         21   -1    0    0  502  501  0.00000000000E+00  0.00000000000E+00  0.94896690244E+02  0.94896690244E+02  0.00000000000E+00 0.  1.
         21   -1    0    0  501  502 -0.00000000000E+00 -0.00000000000E+00 -0.55614387708E+03  0.55614387708E+03  0.00000000000E+00 0.  1.
      99926    2    1    2    0    0  0.14210854715E-13  0.00000000000E+00 -0.46124718683E+03  0.65104056732E+03  0.45946148145E+03 0.  0.
      99925    2    3    3    0    0 -0.11691417202E+03 -0.86300243272E+01 -0.29389632222E+03  0.41146339619E+03  0.26302790204E+03 0.  0.
         25    1    4    4    0    0 -0.10119459703E+03  0.41533212660E+00 -0.15053363425E+03  0.22033701938E+03  0.12509000000E+03 0.  0.
         25    1    3    3    0    0  0.11691417202E+03  0.86300243272E+01 -0.16735086462E+03  0.23957717113E+03  0.12509000000E+03 0.  0.
         25    1    4    4    0    0 -0.15719574985E+02 -0.90453564538E+01 -0.14336268796E+03  0.19112637681E+03  0.12509000000E+03 0.  0.
<mgrwt>
<rscale>  2 0.45946148E+03</rscale>
<asrwt>0</asrwt>
<pdfrwt beam="1">  1       21 0.13955396E-01 0.45946148E+03</pdfrwt>
<pdfrwt beam="2">  1       21 0.81785863E-01 0.45946148E+03</pdfrwt>
<totfact> 0.53725511E+04</totfact>
</mgrwt>
</event>
<event>
 7    0  0.4707675E-002  0.4661813E+03  0.7546771E-02  0.1023004E+00
         21   -1    0    0  502  501  0.00000000000E+00  0.00000000000E+00  0.17461061973E+03  0.17461061973E+03  0.00000000000E+00 0. -1.
         21   -1    0    0  501  502 -0.00000000000E+00 -0.00000000000E+00 -0.31115663611E+03  0.31115663611E+03  0.00000000000E+00 0. -1.
      99926    2    1    2    0    0  0.00000000000E+00  0.00000000000E+00 -0.13654601638E+03  0.48576725585E+03  0.46618130836E+03 0.  0.
      99925    2    3    3    0    0  0.10230851755E+03  0.59926642122E+02 -0.11807120374E+03  0.31242637203E+03  0.26383933291E+03 0.  0.
         25    1    4    4    0    0  0.58516374469E+02  0.17427751380E+02 -0.16597886327E+02  0.14018163407E+03  0.12509000000E+03 0.  0.
         25    1    3    3    0    0 -0.10230851755E+03 -0.59926642122E+02 -0.18474812635E+02  0.17334088381E+03  0.12509000000E+03 0.  0.
         25    1    4    4    0    0  0.43792143081E+02  0.42498890742E+02 -0.10147331742E+03  0.17224473797E+03  0.12509000000E+03 0.  0.
<mgrwt>
<rscale>  2 0.46618131E+03</rscale>
<asrwt>0</asrwt>
<pdfrwt beam="1">  1       21 0.25678033E-01 0.46618131E+03</pdfrwt>
<pdfrwt beam="2">  1       21 0.45758328E-01 0.46618131E+03</pdfrwt>
<totfact> 0.60712918E+04</totfact>
</mgrwt>
</event>
<event>
 7    0  0.4707675E-002  0.4562632E+03  0.7546771E-02  0.1025871E+00
         21   -1    0    0  502  501  0.00000000000E+00  0.00000000000E+00  0.14906591806E+03  0.14906591806E+03  0.00000000000E+00 0.  1.
         21   -1    0    0  501  502 -0.00000000000E+00 -0.00000000000E+00 -0.34913431605E+03  0.34913431605E+03  0.00000000000E+00 0.  1.
      99926    2    1    2    0    0  0.00000000000E+00  0.71054273576E-14 -0.20006839799E+03  0.49820023411E+03  0.45626320189E+03 0.  0.
      99925    2    3    3    0    0  0.81003425939E+02  0.46731819479E+02 -0.19755640762E+03  0.34199768560E+03  0.26303700272E+03 0.  0.
         25    1    4    4    0    0  0.29594707609E+01  0.37351289837E+01 -0.79586305199E+02  0.14833811961E+03  0.12509000000E+03 0.  0.
         25    1    4    4    0    0  0.78043955178E+02  0.42996690495E+02 -0.11797010242E+03  0.19365956599E+03  0.12509000000E+03 0.  0.
         25    1    3    3    0    0 -0.81003425939E+02 -0.46731819479E+02 -0.25119903736E+01  0.15620254851E+03  0.12509000000E+03 0.  0.
<mgrwt>
<rscale>  2 0.45626320E+03</rscale>
<asrwt>0</asrwt>
<pdfrwt beam="1">  1       21 0.21921459E-01 0.45626320E+03</pdfrwt>
<pdfrwt beam="2">  1       21 0.51343280E-01 0.45626320E+03</pdfrwt>
<totfact> 0.64745594E+04</totfact>
</mgrwt>
</event>
<event>
 7    0  0.4707675E-002  0.4853284E+03  0.7546771E-02  0.1017681E+00
         21   -1    0    0  502  501  0.00000000000E+00  0.00000000000E+00  0.25300576424E+03  0.25300576424E+03  0.00000000000E+00 0. -1.
         21   -1    0    0  501  502 -0.00000000000E+00 -0.00000000000E+00 -0.23274529942E+03  0.23274529942E+03  0.00000000000E+00 0. -1.
      99926    2    1    2    0    0  0.00000000000E+00  0.71054273576E-14  0.20260464824E+02  0.48575106366E+03  0.48532835216E+03 0.  0.
      99925    2    3    3    0    0 -0.10536328303E+03  0.48123034701E+02 -0.65640334113E+02  0.29484872413E+03  0.26307768582E+03 0.  0.
         25    1    4    4    0    0 -0.61384509744E+02  0.22765034956E+02  0.73555616715E+01  0.14137863078E+03  0.12509000000E+03 0.  0.
         25    1    4    4    0    0 -0.43978773289E+02  0.25357999745E+02 -0.72995895784E+02  0.15347009335E+03  0.12509000000E+03 0.  0.
         25    1    3    3    0    0  0.10536328303E+03 -0.48123034701E+02  0.85900798937E+02  0.19090233953E+03  0.12509000000E+03 0.  0.
<mgrwt>
<rscale>  2 0.48532835E+03</rscale>
<asrwt>0</asrwt>
<pdfrwt beam="1">  1       21 0.37206730E-01 0.48532835E+03</pdfrwt>
<pdfrwt beam="2">  1       21 0.34227250E-01 0.48532835E+03</pdfrwt>
<totfact> 0.52458618E+04</totfact>
</mgrwt>
</event>
<event>
 7    0  0.4707675E-002  0.4609753E+03  0.7546771E-02  0.1024499E+00
         21   -1    0    0  502  501  0.00000000000E+00  0.00000000000E+00  0.16188182989E+03  0.16188182989E+03  0.00000000000E+00 0. -1.
         21   -1    0    0  501  502 -0.00000000000E+00 -0.00000000000E+00 -0.32816872062E+03  0.32816872062E+03  0.00000000000E+00 0. -1.
      99926    2    1    2    0    0  0.14210854715E-13  0.00000000000E+00 -0.16628689073E+03  0.49005055052E+03  0.46097528354E+03 0.  0.
      99925    2    3    3    0    0 -0.84182771960E+02 -0.32300587661E+02 -0.22083287239E+02  0.27892912949E+03  0.26302798452E+03 0.  0.
         25    1    4    4    0    0 -0.64798538584E+02 -0.51555590860E+02 -0.11950187421E+02  0.15048968281E+03  0.12509000000E+03 0.  0.
         25    1    4    4    0    0 -0.19384233376E+02  0.19255003199E+02 -0.10133099818E+02  0.12843944668E+03  0.12509000000E+03 0.  0.
         25    1    3    3    0    0  0.84182771960E+02  0.32300587661E+02 -0.14420360349E+03  0.21112142103E+03  0.12509000000E+03 0.  0.
<mgrwt>
<rscale>  2 0.46097528E+03</rscale>
<asrwt>0</asrwt>
<pdfrwt beam="1">  1       21 0.23806152E-01 0.46097528E+03</pdfrwt>
<pdfrwt beam="2">  1       21 0.48260105E-01 0.46097528E+03</pdfrwt>
<totfact> 0.62936669E+04</totfact>
</mgrwt>
</event>
<event>
 7    0  0.4707675E-002  0.4448994E+03  0.7546771E-02  0.1029254E+00
         21   -1    0    0  502  501  0.00000000000E+00  0.00000000000E+00  0.51848652800E+02  0.51848652800E+02  0.00000000000E+00 0.  1.
         21   -1    0    0  501  502 -0.00000000000E+00 -0.00000000000E+00 -0.95439049219E+03  0.95439049219E+03  0.00000000000E+00 0.  1.
      99926    2    1    2    0    0  0.00000000000E+00 -0.17763568394E-14 -0.90254183939E+03  0.10062391450E+04  0.44489936509E+03 0.  0.
      99925    2    3    3    0    0  0.83264273660E+02 -0.10939405678E+02 -0.70979486444E+03  0.76159345360E+03  0.26298902850E+03 0.  0.
         25    1    4    4    0    0  0.19478973897E+02 -0.20196023251E+02 -0.42526423319E+03  0.44416718239E+03  0.12509000000E+03 0.  0.
         25    1    4    4    0    0  0.63785299763E+02  0.92566175727E+01 -0.28453063125E+03  0.31742627121E+03  0.12509000000E+03 0.  0.
         25    1    3    3    0    0 -0.83264273660E+02  0.10939405678E+02 -0.19274697495E+03  0.24464569139E+03  0.12509000000E+03 0.  0.
<mgrwt>
<rscale>  2 0.44489937E+03</rscale>
<asrwt>0</asrwt>
<pdfrwt beam="1">  1       21 0.76248027E-02 0.44489937E+03</pdfrwt>
<pdfrwt beam="2">  1       21 0.14035153E+00 0.44489937E+03</pdfrwt>
<totfact> 0.42153007E+04</totfact>
</mgrwt>
</event>
<event>
 7    0  0.4707675E-002  0.4544925E+03  0.7546771E-02  0.1026391E+00
         21   -1    0    0  502  501  0.00000000000E+00  0.00000000000E+00  0.29240222612E+02  0.29240222612E+02  0.00000000000E+00 0. -1.
         21   -1    0    0  501  502 -0.00000000000E+00 -0.00000000000E+00 -0.17660896482E+04  0.17660896482E+04  0.00000000000E+00 0. -1.
      99926    2    1    2    0    0  0.00000000000E+00  0.00000000000E+00 -0.17368494256E+04  0.17953298708E+04  0.45449248383E+03 0.  0.
      99925    2    3    3    0    0  0.19826394793E+02 -0.97309057809E+02 -0.88396637585E+03  0.92762073562E+03  0.26309986100E+03 0.  0.
         25    1    4    4    0    0  0.46231191719E+02 -0.58307987775E+02 -0.40528552697E+03  0.43062862306E+03  0.12509000000E+03 0.  0.
         25    1    3    3    0    0 -0.19826394793E+02  0.97309057809E+02 -0.85288304972E+03  0.86770913517E+03  0.12509000000E+03 0.  0.
         25    1    4    4    0    0 -0.26404796926E+02 -0.39001070034E+02 -0.47868084888E+03  0.49699211256E+03  0.12509000000E+03 0.  0.
<mgrwt>
<rscale>  2 0.45449248E+03</rscale>
<asrwt>0</asrwt>
<pdfrwt beam="1">  1       21 0.43000325E-02 0.45449248E+03</pdfrwt>
<pdfrwt beam="2">  1       21 0.25971908E+00 0.45449248E+03</pdfrwt>
<totfact> 0.17417877E+04</totfact>
</mgrwt>
</event>
<event>
 7    0  0.4707675E-002  0.4472243E+03  0.7546771E-02  0.1028553E+00
         21   -1    0    0  502  501  0.00000000000E+00  0.00000000000E+00  0.26210764835E+04  0.26210764835E+04  0.00000000000E+00 0. -1.
         21   -1    0    0  501  502 -0.00000000000E+00 -0.00000000000E+00 -0.19077045646E+02  0.19077045646E+02  0.00000000000E+00 0. -1.
      99926    2    1    2    0    0  0.71054273576E-14  0.00000000000E+00  0.26019994378E+04  0.26401535291E+04  0.44722430935E+03 0.  0.
      99925    2    3    3    0    0  0.60809240176E+02 -0.84819455318E+02  0.15198099021E+04  0.15457706880E+04  0.26209307038E+03 0.  0.
         25    1    4    4    0    0  0.34566047677E+02 -0.52838895855E+02  0.98780746206E+03  0.99769627180E+03  0.12509000000E+03 0.  0.
         25    1    4    4    0    0  0.26243192498E+02 -0.31980559462E+02  0.53200244004E+03  0.54807441616E+03  0.12509000000E+03 0.  0.
         25    1    3    3    0    0 -0.60809240176E+02  0.84819455318E+02  0.10821895357E+04  0.10943828412E+04  0.12509000000E+03 0.  0.
<mgrwt>
<rscale>  2 0.44722431E+03</rscale>
<asrwt>0</asrwt>
<pdfrwt beam="1">  1       21 0.38545218E+00 0.44722431E+03</pdfrwt>
<pdfrwt beam="2">  1       21 0.28054497E-02 0.44722431E+03</pdfrwt>
<totfact> 0.61659330E+03</totfact>
</mgrwt>
</event>
<event>
 7    0  0.4707675E-002  0.4577709E+03  0.7546771E-02  0.1025430E+00
         21   -1    0    0  502  501  0.00000000000E+00  0.00000000000E+00  0.82918504818E+03  0.82918504818E+03  0.00000000000E+00 0. -1.
         21   -1    0    0  501  502 -0.00000000000E+00 -0.00000000000E+00 -0.63180777212E+02  0.63180777212E+02  0.00000000000E+00 0. -1.
      99926    2    1    2    0    0  0.00000000000E+00  0.00000000000E+00  0.76600427097E+03  0.89236582539E+03  0.45777092872E+03 0.  0.
      99925    2    3    3    0    0 -0.73256103195E+02  0.88843848448E+02  0.50171891046E+03  0.57811441976E+03  0.26312493451E+03 0.  0.
         25    1    3    3    0    0  0.73256103195E+02 -0.88843848448E+02  0.26428536051E+03  0.31425140563E+03  0.12509000000E+03 0.  0.
         25    1    4    4    0    0 -0.17021744905E+02  0.59283436672E+02  0.18474396948E+03  0.23147809405E+03  0.12509000000E+03 0.  0.
         25    1    4    4    0    0 -0.56234358290E+02  0.29560411775E+02  0.31697494098E+03  0.34663632571E+03  0.12509000000E+03 0.  0.
<mgrwt>
<rscale>  2 0.45777093E+03</rscale>
<asrwt>0</asrwt>
<pdfrwt beam="1">  1       21 0.12193897E+00 0.45777093E+03</pdfrwt>
<pdfrwt beam="2">  1       21 0.92912913E-02 0.45777093E+03</pdfrwt>
<totfact> 0.42632831E+04</totfact>
</mgrwt>
</event>
<event>
 7    0  0.4707675E-002  0.4550309E+03  0.7546771E-02  0.1026232E+00
         21   -1    0    0  502  501  0.00000000000E+00  0.00000000000E+00  0.50360454291E+02  0.50360454291E+02  0.00000000000E+00 0. -1.
         21   -1    0    0  501  502 -0.00000000000E+00 -0.00000000000E+00 -0.10278557909E+04  0.10278557909E+04  0.00000000000E+00 0. -1.
      99926    2    1    2    0    0  0.00000000000E+00  0.00000000000E+00 -0.97749533657E+03  0.10782162451E+04  0.45503092015E+03 0.  0.
      99925    2    3    3    0    0  0.74416889953E+02 -0.69307739505E+02 -0.49754348682E+03  0.57191325045E+03  0.26304716022E+03 0.  0.
         25    1    3    3    0    0 -0.74416889953E+02  0.69307739505E+02 -0.47995184975E+03  0.50630299470E+03  0.12509000000E+03 0.  0.
         25    1    4    4    0    0  0.62564749592E+02 -0.16466522419E+02 -0.19972497112E+03  0.24438303223E+03  0.12509000000E+03 0.  0.
         25    1    4    4    0    0  0.11852140360E+02 -0.52841217086E+02 -0.29781851570E+03  0.32753021822E+03  0.12509000000E+03 0.  0.
<mgrwt>
<rscale>  2 0.45503092E+03</rscale>
<asrwt>0</asrwt>
<pdfrwt beam="1">  1       21 0.74059494E-02 0.45503092E+03</pdfrwt>
<pdfrwt beam="2">  1       21 0.15115526E+00 0.45503092E+03</pdfrwt>
<totfact> 0.36250033E+04</totfact>
</mgrwt>
</event>
<event>
 7    0  0.4707675E-002  0.4520986E+03  0.7546771E-02  0.1027098E+00
         21   -1    0    0  502  501  0.00000000000E+00  0.00000000000E+00  0.13430394073E+03  0.13430394073E+03  0.00000000000E+00 0.  1.
         21   -1    0    0  501  502 -0.00000000000E+00 -0.00000000000E+00 -0.38046755834E+03  0.38046755834E+03  0.00000000000E+00 0.  1.
      99926    2    1    2    0    0 -0.35527136788E-14  0.00000000000E+00 -0.24616361760E+03  0.51477149907E+03  0.45209862820E+03 0.  0.
      99925    2    3    3    0    0 -0.30916073156E+02 -0.73473533378E+02 -0.24246035151E+03  0.36639567231E+03  0.26287754363E+03 0.  0.
         25    1    4    4    0    0 -0.36828634328E+02 -0.11654214666E+02 -0.85830359822E+02  0.15654560931E+03  0.12509000000E+03 0.  0.
         25    1    4    4    0    0  0.59125611718E+01 -0.61819318712E+02 -0.15662999169E+03  0.20985006300E+03  0.12509000000E+03 0.  0.
         25    1    3    3    0    0  0.30916073156E+02  0.73473533378E+02 -0.37032660946E+01  0.14837582676E+03  0.12509000000E+03 0.  0.
<mgrwt>
<rscale>  2 0.45209863E+03</rscale>
<asrwt>0</asrwt>
<pdfrwt beam="1">  1       21 0.19750579E-01 0.45209863E+03</pdfrwt>
<pdfrwt beam="2">  1       21 0.55951112E-01 0.45209863E+03</pdfrwt>
<totfact> 0.65745464E+04</totfact>
</mgrwt>
</event>
<event>
 7    0  0.4707675E-002  0.4638160E+03  0.7546771E-02  0.1023680E+00
         21   -1    0    0  502  501  0.00000000000E+00  0.00000000000E+00  0.15102470406E+04  0.15102470406E+04  0.00000000000E+00 0.  1.
         21   -1    0    0  501  502 -0.00000000000E+00 -0.00000000000E+00 -0.35610938905E+02  0.35610938905E+02  0.00000000000E+00 0.  1.
      99926    2    1    2    0    0  0.35527136788E-14  0.00000000000E+00  0.14746361017E+04  0.15458579795E+04  0.46381597684E+03 0.  0.
      99925    2    3    3    0    0 -0.30263684656E+02 -0.11337341220E+03  0.10206860362E+04  0.10605873424E+04  0.26320354309E+03 0.  0.
         25    1    4    4    0    0 -0.92358242625E+00 -0.75955568121E+02  0.65592113586E+03  0.67204921390E+03  0.12509000000E+03 0.  0.
         25    1    3    3    0    0  0.30263684656E+02  0.11337341220E+03  0.45395006549E+03  0.48527063713E+03  0.12509000000E+03 0.  0.
         25    1    4    4    0    0 -0.29340102229E+02 -0.37417844083E+02  0.36476490034E+03  0.38853812847E+03  0.12509000000E+03 0.  0.
<mgrwt>
<rscale>  2 0.46381598E+03</rscale>
<asrwt>0</asrwt>
<pdfrwt beam="1">  1       21 0.22209511E+00 0.46381598E+03</pdfrwt>
<pdfrwt beam="2">  1       21 0.52369038E-02 0.46381598E+03</pdfrwt>
<totfact> 0.21188982E+04</totfact>
</mgrwt>
</event>
<event>
 7    0  0.4707675E-002  0.4491853E+03  0.7546771E-02  0.1027965E+00
         21   -1    0    0  502  501  0.00000000000E+00  0.00000000000E+00  0.54505458116E+02  0.54505458116E+02  0.00000000000E+00 0.  1.
         21   -1    0    0  501  502 -0.00000000000E+00 -0.00000000000E+00 -0.92544594752E+03  0.92544594752E+03  0.00000000000E+00 0.  1.
      99926    2    1    2    0    0  0.00000000000E+00 -0.35527136788E-14 -0.87094048940E+03  0.97995140563E+03  0.44918528618E+03 0.  0.
      99925    2    3    3    0    0  0.77284308045E+02 -0.31025432306E+02 -0.69982396172E+03  0.75221511984E+03  0.26294213699E+03 0.  0.
         25    1    4    4    0    0  0.55787406618E+02  0.72833335689E+01 -0.43409687251E+03  0.45525035366E+03  0.12509000000E+03 0.  0.
         25    1    3    3    0    0 -0.77284308045E+02  0.31025432306E+02 -0.17111652768E+03  0.22773628579E+03  0.12509000000E+03 0.  0.
         25    1    4    4    0    0  0.21496901427E+02 -0.38308765875E+02 -0.26572708921E+03  0.29696476618E+03  0.12509000000E+03 0.  0.
<mgrwt>
<rscale>  2 0.44918529E+03</rscale>
<asrwt>0</asrwt>
<pdfrwt beam="1">  1       21 0.80155080E-02 0.44918529E+03</pdfrwt>
<pdfrwt beam="2">  1       21 0.13609500E+00 0.44918529E+03</pdfrwt>
<totfact> 0.41819775E+04</totfact>
</mgrwt>
</event>
<event>
 7    0  0.4707675E-002  0.4559379E+03  0.7546771E-02  0.1025966E+00
         21   -1    0    0  502  501  0.00000000000E+00  0.00000000000E+00  0.13966673550E+03  0.13966673550E+03  0.00000000000E+00 0.  1.
         21   -1    0    0  501  502 -0.00000000000E+00 -0.00000000000E+00 -0.37209897065E+03  0.37209897065E+03  0.00000000000E+00 0.  1.
      99926    2    1    2    0    0 -0.88817841970E-15  0.00000000000E+00 -0.23243223515E+03  0.51176570615E+03  0.45593792786E+03 0.  0.
      99925    2    3    3    0    0  0.76475836693E+01  0.61672994377E+02 -0.25345394878E+03  0.37051605371E+03  0.26302318934E+03 0.  0.
         25    1    4    4    0    0 -0.73207340900E+01  0.46174698823E+02 -0.80312871156E+02  0.15583119499E+03  0.12509000000E+03 0.  0.
         25    1    4    4    0    0  0.14968317759E+02  0.15498295554E+02 -0.17314107762E+03  0.21468485872E+03  0.12509000000E+03 0.  0.
         25    1    3    3    0    0 -0.76475836693E+01 -0.61672994377E+02  0.21021713633E+02  0.14124965244E+03  0.12509000000E+03 0.  0.
<mgrwt>
<rscale>  2 0.45593793E+03</rscale>
<asrwt>0</asrwt>
<pdfrwt beam="1">  1       21 0.20539226E-01 0.45593793E+03</pdfrwt>
<pdfrwt beam="2">  1       21 0.54720437E-01 0.45593793E+03</pdfrwt>
<totfact> 0.63974225E+04</totfact>
</mgrwt>
</event>
<event>
 7    0  0.4707675E-002  0.4527213E+03  0.7546771E-02  0.1026914E+00
         21   -1    0    0  502  501  0.00000000000E+00  0.00000000000E+00  0.39589044478E+03  0.39589044478E+03  0.00000000000E+00 0.  1.
         21   -1    0    0  501  502 -0.00000000000E+00 -0.00000000000E+00 -0.12942757615E+03  0.12942757615E+03  0.00000000000E+00 0.  1.
      99926    2    1    2    0    0  0.00000000000E+00  0.00000000000E+00  0.26646286863E+03  0.52531802094E+03  0.45272128596E+03 0.  0.
      99925    2    3    3    0    0  0.23309489579E+02  0.92790321777E+02  0.10220640368E+03  0.29776347693E+03  0.26279947321E+03 0.  0.
         25    1    4    4    0    0  0.15058364105E+02  0.88747741063E+02  0.51754919652E+02  0.16256997165E+03  0.12509000000E+03 0.  0.
         25    1    4    4    0    0  0.82511254739E+01  0.40425807137E+01  0.50451484030E+02  0.13519350529E+03  0.12509000000E+03 0.  0.
         25    1    3    3    0    0 -0.23309489579E+02 -0.92790321777E+02  0.16425646495E+03  0.22755454400E+03  0.12509000000E+03 0.  0.
<mgrwt>
<rscale>  2 0.45272129E+03</rscale>
<asrwt>0</asrwt>
<pdfrwt beam="1">  1       21 0.58219183E-01 0.45272129E+03</pdfrwt>
<pdfrwt beam="2">  1       21 0.19033467E-01 0.45272129E+03</pdfrwt>
<totfact> 0.64685121E+04</totfact>
</mgrwt>
</event>
<event>
 7    0  0.4707675E-002  0.4518653E+03  0.7546771E-02  0.1027167E+00
         21   -1    0    0  502  501  0.00000000000E+00  0.00000000000E+00  0.13638970752E+03  0.13638970752E+03  0.00000000000E+00 0. -1.
         21   -1    0    0  501  502 -0.00000000000E+00 -0.00000000000E+00 -0.37426259481E+03  0.37426259481E+03  0.00000000000E+00 0. -1.
      99926    2    1    2    0    0  0.35527136788E-14  0.71054273576E-14 -0.23787288728E+03  0.51065230233E+03  0.45186531552E+03 0.  0.
      99925    2    3    3    0    0  0.16468354060E+02  0.57156760096E+02 -0.25504321827E+03  0.37107999033E+03  0.26289772560E+03 0.  0.
         25    1    3    3    0    0 -0.16468354060E+02 -0.57156760096E+02  0.17170330990E+02  0.13957231200E+03  0.12509000000E+03 0.  0.
         25    1    4    4    0    0  0.73827542090E+01  0.59244580329E+02 -0.17086679638E+03  0.22001680746E+03  0.12509000000E+03 0.  0.
         25    1    4    4    0    0  0.90855998506E+01 -0.20878202329E+01 -0.84176421894E+02  0.15106318288E+03  0.12509000000E+03 0.  0.
<mgrwt>
<rscale>  2 0.45186532E+03</rscale>
<asrwt>0</asrwt>
<pdfrwt beam="1">  1       21 0.20057310E-01 0.45186532E+03</pdfrwt>
<pdfrwt beam="2">  1       21 0.55038616E-01 0.45186532E+03</pdfrwt>
<totfact> 0.66159115E+04</totfact>
</mgrwt>
</event>
<event>
 7    0  0.4707675E-002  0.4600852E+03  0.7546771E-02  0.1024757E+00
         21   -1    0    0  502  501  0.00000000000E+00  0.00000000000E+00  0.53962221898E+02  0.53962221898E+02  0.00000000000E+00 0.  1.
         21   -1    0    0  501  502 -0.00000000000E+00 -0.00000000000E+00 -0.98067870425E+03  0.98067870425E+03  0.00000000000E+00 0.  1.
      99926    2    1    2    0    0  0.00000000000E+00  0.00000000000E+00 -0.92671648235E+03  0.10346409261E+04  0.46008521754E+03 0.  0.
      99925    2    3    3    0    0  0.31185199436E+02  0.11356013447E+03 -0.58814997639E+03  0.65497896089E+03  0.26307531939E+03 0.  0.
         25    1    3    3    0    0 -0.31185199436E+02 -0.11356013447E+03 -0.33856650596E+03  0.37966196526E+03  0.12509000000E+03 0.  0.
         25    1    4    4    0    0  0.51283868955E+01  0.28305916648E+02 -0.20119794521E+03  0.23865382152E+03  0.12509000000E+03 0.  0.
         25    1    4    4    0    0  0.26056812540E+02  0.85254217820E+02 -0.38695203118E+03  0.41632513937E+03  0.12509000000E+03 0.  0.
<mgrwt>
<rscale>  2 0.46008522E+03</rscale>
<asrwt>0</asrwt>
<pdfrwt beam="1">  1       21 0.79356214E-02 0.46008522E+03</pdfrwt>
<pdfrwt beam="2">  1       21 0.14421745E+00 0.46008522E+03</pdfrwt>
<totfact> 0.36380237E+04</totfact>
</mgrwt>
</event>
<event>
 7    0  0.4707675E-002  0.4566951E+03  0.7546771E-02  0.1025744E+00
         21   -1    0    0  502  501  0.00000000000E+00  0.00000000000E+00  0.39632421452E+02  0.39632421452E+02  0.00000000000E+00 0. -1.
         21   -1    0    0  501  502 -0.00000000000E+00 -0.00000000000E+00 -0.13156550987E+04  0.13156550987E+04  0.00000000000E+00 0. -1.
      99926    2    1    2    0    0  0.00000000000E+00  0.00000000000E+00 -0.12760226772E+04  0.13552875201E+04  0.45669507269E+03 0.  0.
      99925    2    3    3    0    0 -0.10190406302E+03  0.52685402852E+02 -0.80789179951E+03  0.85733750606E+03  0.26301758469E+03 0.  0.
         25    1    3    3    0    0  0.10190406302E+03 -0.52685402852E+02 -0.46813087770E+03  0.49795001405E+03  0.12509000000E+03 0.  0.
         25    1    4    4    0    0 -0.39749037783E+02  0.10255096129E+02 -0.49260075769E+03  0.50989034858E+03  0.12509000000E+03 0.  0.
         25    1    4    4    0    0 -0.62155025240E+02  0.42430306723E+02 -0.31529104182E+03  0.34744715748E+03  0.12509000000E+03 0.  0.
<mgrwt>
<rscale>  2 0.45669507E+03</rscale>
<asrwt>0</asrwt>
<pdfrwt beam="1">  1       21 0.58282980E-02 0.45669507E+03</pdfrwt>
<pdfrwt beam="2">  1       21 0.19347867E+00 0.45669507E+03</pdfrwt>
<totfact> 0.27188261E+04</totfact>
</mgrwt>
</event>
<event>
 7    0  0.4707675E-002  0.4556993E+03  0.7546771E-02  0.1026036E+00
         21   -1    0    0  502  501  0.00000000000E+00  0.00000000000E+00  0.73603329777E+02  0.73603329777E+02  0.00000000000E+00 0.  1.
         21   -1    0    0  501  502 -0.00000000000E+00 -0.00000000000E+00 -0.70534123366E+03  0.70534123366E+03  0.00000000000E+00 0.  1.
      99926    2    1    2    0    0  0.00000000000E+00  0.14210854715E-13 -0.63173790388E+03  0.77894456344E+03  0.45569930185E+03 0.  0.
      99925    2    3    3    0    0 -0.96742045872E+01 -0.11264760166E+03 -0.41552910490E+03  0.50476063748E+03  0.26331690363E+03 0.  0.
         25    1    4    4    0    0  0.14771556114E+02 -0.92805020232E+02 -0.20544669442E+03  0.25823791937E+03  0.12509000000E+03 0.  0.
         25    1    3    3    0    0  0.96742045872E+01  0.11264760166E+03 -0.21620879899E+03  0.27418392596E+03  0.12509000000E+03 0.  0.
         25    1    4    4    0    0 -0.24445760701E+02 -0.19842581432E+02 -0.21008241048E+03  0.24652271811E+03  0.12509000000E+03 0.  0.
<mgrwt>
<rscale>  2 0.45569930E+03</rscale>
<asrwt>0</asrwt>
<pdfrwt beam="1">  1       21 0.10824019E-01 0.45569930E+03</pdfrwt>
<pdfrwt beam="2">  1       21 0.10372665E+00 0.45569930E+03</pdfrwt>
<totfact> 0.48533186E+04</totfact>
</mgrwt>
</event>
<event>
 7    0  0.4707675E-002  0.4462385E+03  0.7546771E-02  0.1028850E+00
         21   -1    0    0  502  501  0.00000000000E+00  0.00000000000E+00  0.10417692654E+03  0.10417692654E+03  0.00000000000E+00 0. -1.
         21   -1    0    0  501  502 -0.00000000000E+00 -0.00000000000E+00 -0.47786207198E+03  0.47786207198E+03  0.00000000000E+00 0. -1.
      99926    2    1    2    0    0  0.00000000000E+00 -0.14210854715E-13 -0.37368514544E+03  0.58203899852E+03  0.44623851007E+03 0.  0.
      99925    2    3    3    0    0 -0.33893863980E+02  0.97735989071E+02 -0.25948378400E+03  0.38356840465E+03  0.26285313259E+03 0.  0.
         25    1    4    4    0    0 -0.74474569161E+01  0.89199933455E+02 -0.15309560113E+03  0.21702042284E+03  0.12509000000E+03 0.  0.
         25    1    3    3    0    0  0.33893863980E+02 -0.97735989071E+02 -0.11420136143E+03  0.19847059386E+03  0.12509000000E+03 0.  0.
         25    1    4    4    0    0 -0.26446407063E+02  0.85360556158E+01 -0.10638818287E+03  0.16654798182E+03  0.12509000000E+03 0.  0.
<mgrwt>
<rscale>  2 0.44623851E+03</rscale>
<asrwt>0</asrwt>
<pdfrwt beam="1">  1       21 0.15320136E-01 0.44623851E+03</pdfrwt>
<pdfrwt beam="2">  1       21 0.70273836E-01 0.44623851E+03</pdfrwt>
<totfact> 0.64124868E+04</totfact>
</mgrwt>
</event>
<event>
 7    0  0.4707675E-002  0.4536596E+03  0.7546771E-02  0.1026636E+00
         21   -1    0    0  502  501  0.00000000000E+00  0.00000000000E+00  0.46111349017E+03  0.46111349017E+03  0.00000000000E+00 0. -1.
         21   -1    0    0  501  502 -0.00000000000E+00 -0.00000000000E+00 -0.11158155515E+03  0.11158155515E+03  0.00000000000E+00 0. -1.
      99926    2    1    2    0    0  0.00000000000E+00  0.00000000000E+00  0.34953193502E+03  0.57269504532E+03  0.45365960955E+03 0.  0.
      99925    2    3    3    0    0  0.31549992224E+02  0.10424233273E+03  0.18794358104E+03  0.34113475040E+03  0.26303661786E+03 0.  0.
         25    1    3    3    0    0 -0.31549992224E+02 -0.10424233273E+03  0.16158835398E+03  0.23156029492E+03  0.12509000000E+03 0.  0.
         25    1    4    4    0    0 -0.22569033094E+02  0.50649765129E+02  0.10775902807E+03  0.17416737982E+03  0.12509000000E+03 0.  0.
         25    1    4    4    0    0  0.54119025318E+02  0.53592567601E+02  0.80184552966E+02  0.16696737058E+03  0.12509000000E+03 0.  0.
<mgrwt>
<rscale>  2 0.45365961E+03</rscale>
<asrwt>0</asrwt>
<pdfrwt beam="1">  1       21 0.67810807E-01 0.45365961E+03</pdfrwt>
<pdfrwt beam="2">  1       21 0.16409052E-01 0.45365961E+03</pdfrwt>
<totfact> 0.61035581E+04</totfact>
</mgrwt>
</event>
<event>
 7    0  0.4707675E-002  0.4552563E+03  0.7546771E-02  0.1026166E+00
         21   -1    0    0  502  501  0.00000000000E+00  0.00000000000E+00  0.77301205997E+03  0.77301205997E+03  0.00000000000E+00 0. -1.
         21   -1    0    0  501  502 -0.00000000000E+00 -0.00000000000E+00 -0.67029451686E+02  0.67029451686E+02  0.00000000000E+00 0. -1.
      99926    2    1    2    0    0  0.35527136788E-14  0.00000000000E+00  0.70598260829E+03  0.84004151166E+03  0.45525629936E+03 0.  0.
      99925    2    3    3    0    0 -0.31674117229E+02  0.97663200583E+01  0.24412675939E+03  0.36039897396E+03  0.26304166034E+03 0.  0.
         25    1    4    4    0    0 -0.37430118634E+02  0.21166308901E+02  0.16642252412E+03  0.21258643195E+03  0.12509000000E+03 0.  0.
         25    1    3    3    0    0  0.31674117229E+02 -0.97663200583E+01  0.46185584890E+03  0.47964253770E+03  0.12509000000E+03 0.  0.
         25    1    4    4    0    0  0.57560014043E+01 -0.11399988843E+02  0.77704235270E+02  0.14781254201E+03  0.12509000000E+03 0.  0.
<mgrwt>
<rscale>  2 0.45525630E+03</rscale>
<asrwt>0</asrwt>
<pdfrwt beam="1">  1       21 0.11367824E+00 0.45525630E+03</pdfrwt>
<pdfrwt beam="2">  1       21 0.98572728E-02 0.45525630E+03</pdfrwt>
<totfact> 0.45796041E+04</totfact>
</mgrwt>
</event>
<event>
 7    0  0.4707675E-002  0.4481355E+03  0.7546771E-02  0.1028280E+00
         21   -1    0    0  502  501  0.00000000000E+00  0.00000000000E+00  0.90816462251E+03  0.90816462251E+03  0.00000000000E+00 0. -1.
         21   -1    0    0  501  502 -0.00000000000E+00 -0.00000000000E+00 -0.55283309951E+02  0.55283309951E+02  0.00000000000E+00 0. -1.
      99926    2    1    2    0    0 -0.88817841970E-15  0.00000000000E+00  0.85288131256E+03  0.96344793246E+03  0.44813545413E+03 0.  0.
      99925    2    3    3    0    0  0.25484656420E+01  0.71886883768E+02  0.37075294886E+03  0.46018906675E+03  0.26294868194E+03 0.  0.
         25    1    4    4    0    0  0.41722357580E+02  0.34736247060E+02  0.18663907738E+03  0.23114717236E+03  0.12509000000E+03 0.  0.
         25    1    3    3    0    0 -0.25484656420E+01 -0.71886883768E+02  0.48212836369E+03  0.50325886571E+03  0.12509000000E+03 0.  0.
         25    1    4    4    0    0 -0.39173891938E+02  0.37150636708E+02  0.18411387148E+03  0.22904189440E+03  0.12509000000E+03 0.  0.
<mgrwt>
<rscale>  2 0.44813545E+03</rscale>
<asrwt>0</asrwt>
<pdfrwt beam="1">  1       21 0.13355361E+00 0.44813545E+03</pdfrwt>
<pdfrwt beam="2">  1       21 0.81298991E-02 0.44813545E+03</pdfrwt>
<totfact> 0.42855277E+04</totfact>
</mgrwt>
</event>
<event>
 7    0  0.4707675E-002  0.4548997E+03  0.7546771E-02  0.1026271E+00
         21   -1    0    0  502  501  0.00000000000E+00  0.00000000000E+00  0.15200882922E+04  0.15200882922E+04  0.00000000000E+00 0.  1.
         21   -1    0    0  501  502 -0.00000000000E+00 -0.00000000000E+00 -0.34033180050E+02  0.34033180050E+02  0.00000000000E+00 0.  1.
      99926    2    1    2    0    0  0.00000000000E+00  0.00000000000E+00  0.14860551122E+04  0.15541214723E+04  0.45489971880E+03 0.  0.
      99925    2    3    3    0    0  0.29572174317E+02  0.71737915337E+02  0.64735742293E+03  0.70260390696E+03  0.26183921606E+03 0.  0.
         25    1    4    4    0    0 -0.73202270299E+01  0.53124101183E+02  0.39732992776E+03  0.41999325643E+03  0.12509000000E+03 0.  0.
         25    1    4    4    0    0  0.36892401347E+02  0.18613814154E+02  0.25002749516E+03  0.28261065053E+03  0.12509000000E+03 0.  0.
         25    1    3    3    0    0 -0.29572174317E+02 -0.71737915337E+02  0.83869768923E+03  0.85151756529E+03  0.12509000000E+03 0.  0.
<mgrwt>
<rscale>  2 0.45489972E+03</rscale>
<asrwt>0</asrwt>
<pdfrwt beam="1">  1       21 0.22354235E+00 0.45489972E+03</pdfrwt>
<pdfrwt beam="2">  1       21 0.50048804E-02 0.45489972E+03</pdfrwt>
<totfact> 0.22500872E+04</totfact>
</mgrwt>
</event>
<event>
 7    0  0.4707675E-002  0.4605452E+03  0.7546771E-02  0.1024623E+00
         21   -1    0    0  502  501  0.00000000000E+00  0.00000000000E+00  0.91789623680E+03  0.91789623680E+03  0.00000000000E+00 0.  1.
         21   -1    0    0  501  502 -0.00000000000E+00 -0.00000000000E+00 -0.57768477218E+02  0.57768477218E+02  0.00000000000E+00 0.  1.
      99926    2    1    2    0    0  0.00000000000E+00  0.00000000000E+00  0.86012775959E+03  0.97566471402E+03  0.46054518929E+03 0.  0.
      99925    2    3    3    0    0 -0.29729073234E+02 -0.65871619568E+02  0.34023351979E+03  0.43607188908E+03  0.26301512579E+03 0.  0.
         25    1    4    4    0    0 -0.52223508229E+02 -0.19387019586E+02  0.18430830935E+03  0.22960882460E+03  0.12509000000E+03 0.  0.
         25    1    4    4    0    0  0.22494434996E+02 -0.46484599982E+02  0.15592521045E+03  0.20646306448E+03  0.12509000000E+03 0.  0.
         25    1    3    3    0    0  0.29729073234E+02  0.65871619568E+02  0.51989423979E+03  0.53959282494E+03  0.12509000000E+03 0.  0.
<mgrwt>
<rscale>  2 0.46054519E+03</rscale>
<asrwt>0</asrwt>
<pdfrwt beam="1">  1       21 0.13498473E+00 0.46054519E+03</pdfrwt>
<pdfrwt beam="2">  1       21 0.84953649E-02 0.46054519E+03</pdfrwt>
<totfact> 0.38425657E+04</totfact>
</mgrwt>
</event>
<event>
 7    0  0.4707675E-002  0.4508838E+03  0.7546771E-02  0.1027459E+00
         21   -1    0    0  502  501  0.00000000000E+00  0.00000000000E+00  0.20866065734E+04  0.20866065734E+04  0.00000000000E+00 0. -1.
         21   -1    0    0  501  502 -0.00000000000E+00 -0.00000000000E+00 -0.24357273033E+02  0.24357273033E+02  0.00000000000E+00 0. -1.
      99926    2    1    2    0    0  0.00000000000E+00 -0.29143354396E-14  0.20622493004E+04  0.21109638465E+04  0.45088378113E+03 0.  0.
      99925    2    3    3    0    0 -0.78395107172E+02  0.24453897098E+00  0.94515461067E+03  0.98415689470E+03  0.26287202720E+03 0.  0.
         25    1    4    4    0    0 -0.66974856490E+02 -0.26568947445E+02  0.44828411964E+03  0.47095403215E+03  0.12509000000E+03 0.  0.
         25    1    4    4    0    0 -0.11420250682E+02  0.26813486416E+02  0.49687049103E+03  0.51320286255E+03  0.12509000000E+03 0.  0.
         25    1    3    3    0    0  0.78395107172E+02 -0.24453897098E+00  0.11170946897E+04  0.11268069518E+04  0.12509000000E+03 0.  0.
<mgrwt>
<rscale>  2 0.45088378E+03</rscale>
<asrwt>0</asrwt>
<pdfrwt beam="1">  1       21 0.30685379E+00 0.45088378E+03</pdfrwt>
<pdfrwt beam="2">  1       21 0.35819533E-02 0.45088378E+03</pdfrwt>
<totfact> 0.12372091E+04</totfact>
</mgrwt>
</event>
<event>
 7    0  0.4707675E-002  0.4563731E+03  0.7546771E-02  0.1025838E+00
         21   -1    0    0  502  501  0.00000000000E+00  0.00000000000E+00  0.29128432174E+03  0.29128432174E+03  0.00000000000E+00 0. -1.
         21   -1    0    0  501  502 -0.00000000000E+00 -0.00000000000E+00 -0.17875695806E+03  0.17875695806E+03  0.00000000000E+00 0. -1.
      99926    2    1    2    0    0  0.00000000000E+00  0.00000000000E+00  0.11252736368E+03  0.47004127980E+03  0.45637308986E+03 0.  0.
      99925    2    3    3    0    0 -0.66438522972E+02  0.63527691512E+02  0.14092014561E+03  0.31223284185E+03  0.26302284153E+03 0.  0.
         25    1    4    4    0    0 -0.31492948496E+02  0.69355226916E+02  0.93939367106E+02  0.17399444272E+03  0.12509000000E+03 0.  0.
         25    1    3    3    0    0  0.66438522972E+02 -0.63527691512E+02 -0.28392781938E+02  0.15780843795E+03  0.12509000000E+03 0.  0.
         25    1    4    4    0    0 -0.34945574476E+02 -0.58275354048E+01  0.46980778507E+02  0.13823839913E+03  0.12509000000E+03 0.  0.
<mgrwt>
<rscale>  2 0.45637309E+03</rscale>
<asrwt>0</asrwt>
<pdfrwt beam="1">  1       21 0.42835930E-01 0.45637309E+03</pdfrwt>
<pdfrwt beam="2">  1       21 0.26287788E-01 0.45637309E+03</pdfrwt>
<totfact> 0.66703171E+04</totfact>
</mgrwt>
</event>
<event>
 7    0  0.4707675E-002  0.4559551E+03  0.7546771E-02  0.1025961E+00
         21   -1    0    0  502  501  0.00000000000E+00  0.00000000000E+00  0.58673665845E+02  0.58673665845E+02  0.00000000000E+00 0. -1.
         21   -1    0    0  501  502 -0.00000000000E+00 -0.00000000000E+00 -0.88581066080E+03  0.88581066080E+03  0.00000000000E+00 0. -1.
      99926    2    1    2    0    0  0.00000000000E+00  0.00000000000E+00 -0.82713699496E+03  0.94448432665E+03  0.45595507987E+03 0.  0.
      99925    2    3    3    0    0 -0.39381578132E+02 -0.38009052428E+02 -0.72731418381E+03  0.77534622187E+03  0.26302137752E+03 0.  0.
         25    1    3    3    0    0  0.39381578132E+02  0.38009052428E+02 -0.99822811148E+02  0.16913810478E+03  0.12509000000E+03 0.  0.
         25    1    4    4    0    0 -0.24047745038E+02 -0.59267330210E+02 -0.36089409927E+03  0.38727634766E+03  0.12509000000E+03 0.  0.
         25    1    4    4    0    0 -0.15333833093E+02  0.21258277781E+02 -0.36642008454E+03  0.38806987421E+03  0.12509000000E+03 0.  0.
<mgrwt>
<rscale>  2 0.45595508E+03</rscale>
<asrwt>0</asrwt>
<pdfrwt beam="1">  1       21 0.86284807E-02 0.45595508E+03</pdfrwt>
<pdfrwt beam="2">  1       21 0.13026627E+00 0.45595508E+03</pdfrwt>
<totfact> 0.41057440E+04</totfact>
</mgrwt>
</event>
<event>
 7    0  0.4707675E-002  0.4569096E+03  0.7546771E-02  0.1025681E+00
         21   -1    0    0  502  501  0.00000000000E+00  0.00000000000E+00  0.25178567683E+03  0.25178567683E+03  0.00000000000E+00 0. -1.
         21   -1    0    0  501  502 -0.00000000000E+00 -0.00000000000E+00 -0.20728584102E+03  0.20728584102E+03  0.00000000000E+00 0. -1.
      99926    2    1    2    0    0  0.14210854715E-13  0.00000000000E+00  0.44499835815E+02  0.45907151785E+03  0.45690964437E+03 0.  0.
      99925    2    3    3    0    0  0.73637223531E+02 -0.64567001858E+02  0.88431128842E+02  0.29424189362E+03  0.26299598665E+03 0.  0.
         25    1    4    4    0    0  0.65577593946E+02 -0.54139432181E+02  0.71565422653E+02  0.16733384823E+03  0.12509000000E+03 0.  0.
         25    1    3    3    0    0 -0.73637223531E+02  0.64567001858E+02 -0.43931293027E+02  0.16482962423E+03  0.12509000000E+03 0.  0.
         25    1    4    4    0    0  0.80596295847E+01 -0.10427569676E+02  0.16865706188E+02  0.12690804539E+03  0.12509000000E+03 0.  0.
<mgrwt>
<rscale>  2 0.45690964E+03</rscale>
<asrwt>0</asrwt>
<pdfrwt beam="1">  1       21 0.37027306E-01 0.45690964E+03</pdfrwt>
<pdfrwt beam="2">  1       21 0.30483212E-01 0.45690964E+03</pdfrwt>
<totfact> 0.67218528E+04</totfact>
</mgrwt>
</event>
<event>
 7    0  0.4707675E-002  0.4490861E+03  0.7546771E-02  0.1027995E+00
         21   -1    0    0  502  501  0.00000000000E+00  0.00000000000E+00  0.23160662126E+02  0.23160662126E+02  0.00000000000E+00 0.  1.
         21   -1    0    0  501  502 -0.00000000000E+00 -0.00000000000E+00 -0.21769493788E+04  0.21769493788E+04  0.00000000000E+00 0.  1.
      99926    2    1    2    0    0  0.00000000000E+00  0.35527136788E-14 -0.21537887167E+04  0.22001100409E+04  0.44908613440E+03 0.  0.
      99925    2    3    3    0    0 -0.16743549860E+02  0.26163236298E+02 -0.85658739098E+03  0.89652128335E+03  0.26276147305E+03 0.  0.
         25    1    3    3    0    0  0.16743549860E+02 -0.26163236298E+02 -0.12972013257E+04  0.13035887576E+04  0.12509000000E+03 0.  0.
         25    1    4    4    0    0  0.15751592681E+02  0.20972042535E+02 -0.32036221262E+03  0.34491650383E+03  0.12509000000E+03 0.  0.
         25    1    4    4    0    0 -0.32495142541E+02  0.51911937628E+01 -0.53622517836E+03  0.55160477952E+03  0.12509000000E+03 0.  0.
<mgrwt>
<rscale>  2 0.44908613E+03</rscale>
<asrwt>0</asrwt>
<pdfrwt beam="1">  1       21 0.34059791E-02 0.44908613E+03</pdfrwt>
<pdfrwt beam="2">  1       21 0.32013968E+00 0.44908613E+03</pdfrwt>
<totfact> 0.11215792E+04</totfact>
</mgrwt>
</event>
<event>
 7    0  0.4707675E-002  0.4563783E+03  0.7546771E-02  0.1025837E+00
         21   -1    0    0  502  501  0.00000000000E+00  0.00000000000E+00  0.12111374470E+04  0.12111374470E+04  0.00000000000E+00 0.  1.
         21   -1    0    0  501  502 -0.00000000000E+00 -0.00000000000E+00 -0.42992873909E+02  0.42992873909E+02  0.00000000000E+00 0.  1.
      99926    2    1    2    0    0  0.71054273576E-14  0.35527136788E-14  0.11681445731E+04  0.12541303209E+04  0.45637826216E+03 0.  0.
      99925    2    3    3    0    0 -0.49822113912E+02 -0.26053882500E+02  0.46034832324E+03  0.53316978993E+03  0.26303687641E+03 0.  0.
         25    1    4    4    0    0 -0.59798382723E+02 -0.65264765743E+01  0.28098315192E+03  0.31339668351E+03  0.12509000000E+03 0.  0.
         25    1    3    3    0    0  0.49822113912E+02  0.26053882500E+02  0.70779624982E+03  0.72096053095E+03  0.12509000000E+03 0.  0.
         25    1    4    4    0    0  0.99762688106E+01 -0.19527405926E+02  0.17936517132E+03  0.21977310642E+03  0.12509000000E+03 0.  0.
<mgrwt>
<rscale>  2 0.45637826E+03</rscale>
<asrwt>0</asrwt>
<pdfrwt beam="1">  1       21 0.17810843E+00 0.45637826E+03</pdfrwt>
<pdfrwt beam="2">  1       21 0.63224822E-02 0.45637826E+03</pdfrwt>
<totfact> 0.30151689E+04</totfact>
</mgrwt>
</event>
<event>
 7    0  0.4707675E-002  0.4488877E+03  0.7546771E-02  0.1028054E+00
         21   -1    0    0  502  501  0.00000000000E+00  0.00000000000E+00  0.16713077374E+03  0.16713077374E+03  0.00000000000E+00 0. -1.
         21   -1    0    0  501  502 -0.00000000000E+00 -0.00000000000E+00 -0.30141092594E+03  0.30141092594E+03  0.00000000000E+00 0. -1.
      99926    2    1    2    0    0  0.00000000000E+00  0.14210854715E-13 -0.13428015220E+03  0.46854169968E+03  0.44888769761E+03 0.  0.
      99925    2    3    3    0    0  0.62539961043E+02  0.72200911795E+02 -0.33870869378E+02  0.28185010756E+03  0.26299815389E+03 0.  0.
         25    1    4    4    0    0  0.34647175552E+02  0.77667405480E+02 -0.12190691139E+02  0.15175234330E+03  0.12509000000E+03 0.  0.
         25    1    3    3    0    0 -0.62539961043E+02 -0.72200911795E+02 -0.10040928283E+03  0.18669159212E+03  0.12509000000E+03 0.  0.
         25    1    4    4    0    0  0.27892785491E+02 -0.54664936853E+01 -0.21680178239E+02  0.13009776425E+03  0.12509000000E+03 0.  0.
<mgrwt>
<rscale>  2 0.44888770E+03</rscale>
<asrwt>0</asrwt>
<pdfrwt beam="1">  1       21 0.24578055E-01 0.44888770E+03</pdfrwt>
<pdfrwt beam="2">  1       21 0.44325136E-01 0.44888770E+03</pdfrwt>
<totfact> 0.70921868E+04</totfact>
</mgrwt>
</event>
<event>
 7    0  0.4707675E-002  0.4264724E+03  0.7546771E-02  0.1034980E+00
         21   -1    0    0  502  501  0.00000000000E+00  0.00000000000E+00  0.33396147771E+03  0.33396147771E+03  0.00000000000E+00 0. -1.
         21   -1    0    0  501  502 -0.00000000000E+00 -0.00000000000E+00 -0.13615246382E+03  0.13615246382E+03  0.00000000000E+00 0. -1.
      99926    2    1    2    0    0  0.00000000000E+00  0.35527136788E-14  0.19780901389E+03  0.47011394153E+03  0.42647240479E+03 0.  0.
      99925    2    3    3    0    0 -0.54345315159E+02 -0.29134053511E+02  0.65489438974E+02  0.27786882622E+03  0.26290684969E+03 0.  0.
         25    1    3    3    0    0  0.54345315159E+02  0.29134053511E+02  0.13231957492E+03  0.19224511531E+03  0.12509000000E+03 0.  0.
         25    1    4    4    0    0 -0.66160592477E+02 -0.82378582592E+01  0.23037895818E+02  0.14360828336E+03  0.12509000000E+03 0.  0.
         25    1    4    4    0    0  0.11815277318E+02 -0.20896195252E+02  0.42451543155E+02  0.13426054286E+03  0.12509000000E+03 0.  0.
<mgrwt>
<rscale>  2 0.42647240E+03</rscale>
<asrwt>0</asrwt>
<pdfrwt beam="1">  1       21 0.49111982E-01 0.42647240E+03</pdfrwt>
<pdfrwt beam="2">  1       21 0.20022421E-01 0.42647240E+03</pdfrwt>
<totfact> 0.85132844E+04</totfact>
</mgrwt>
</event>
<event>
 7    0  0.4707675E-002  0.4430618E+03  0.7546771E-02  0.1029812E+00
         21   -1    0    0  502  501  0.00000000000E+00  0.00000000000E+00  0.20983610467E+03  0.20983610467E+03  0.00000000000E+00 0. -1.
         21   -1    0    0  501  502 -0.00000000000E+00 -0.00000000000E+00 -0.23387750438E+03  0.23387750438E+03  0.00000000000E+00 0. -1.
      99926    2    1    2    0    0  0.35527136788E-14  0.14210854715E-13 -0.24041399712E+02  0.44371360906E+03  0.44306182183E+03 0.  0.
      99925    2    3    3    0    0  0.21328906721E+02  0.96530669981E+02  0.84699908100E+01  0.28099424597E+03  0.26289338717E+03 0.  0.
         25    1    3    3    0    0 -0.21328906721E+02 -0.96530669981E+02 -0.32511390522E+02  0.16271936308E+03  0.12509000000E+03 0.  0.
         25    1    4    4    0    0  0.12003417113E+02  0.53710245326E+01  0.56267830594E+01  0.12590511790E+03  0.12509000000E+03 0.  0.
         25    1    4    4    0    0  0.93254896077E+01  0.91159645448E+02  0.28432077506E+01  0.15508912807E+03  0.12509000000E+03 0.  0.
<mgrwt>
<rscale>  2 0.44306182E+03</rscale>
<asrwt>0</asrwt>
<pdfrwt beam="1">  1       21 0.30858251E-01 0.44306182E+03</pdfrwt>
<pdfrwt beam="2">  1       21 0.34393750E-01 0.44306182E+03</pdfrwt>
<totfact> 0.76403036E+04</totfact>
</mgrwt>
</event>
<event>
 7    0  0.4707675E-002  0.4559985E+03  0.7546771E-02  0.1025948E+00
         21   -1    0    0  502  501  0.00000000000E+00  0.00000000000E+00  0.95352370340E+02  0.95352370340E+02  0.00000000000E+00 0.  1.
         21   -1    0    0  501  502 -0.00000000000E+00 -0.00000000000E+00 -0.54517436246E+03  0.54517436246E+03  0.00000000000E+00 0.  1.
      99926    2    1    2    0    0 -0.17763568394E-14  0.00000000000E+00 -0.44982199212E+03  0.64052673280E+03  0.45599854258E+03 0.  0.
      99925    2    3    3    0    0  0.12205482174E+02  0.99451995045E+02 -0.20805744183E+03  0.35046246580E+03  0.26362163743E+03 0.  0.
         25    1    3    3    0    0 -0.12205482174E+02 -0.99451995045E+02 -0.24176455029E+03  0.29006426700E+03  0.12509000000E+03 0.  0.
         25    1    4    4    0    0 -0.10922409989E+02  0.89886598463E+02 -0.11141819420E+03  0.19042169446E+03  0.12509000000E+03 0.  0.
         25    1    4    4    0    0  0.23127892162E+02  0.95653965825E+01 -0.96639247627E+02  0.16004077134E+03  0.12509000000E+03 0.  0.
<mgrwt>
<rscale>  2 0.45599854E+03</rscale>
<asrwt>0</asrwt>
<pdfrwt beam="1">  1       21 0.14022408E-01 0.45599854E+03</pdfrwt>
<pdfrwt beam="2">  1       21 0.80172699E-01 0.45599854E+03</pdfrwt>
<totfact> 0.55809490E+04</totfact>
</mgrwt>
</event>
<event>
 6    0  0.4707675E-002  0.4625515E+03  0.7546771E-02  0.1024044E+00
         21   -1    0    0  502  501  0.00000000000E+00  0.00000000000E+00  0.29572401824E+02  0.29572401824E+02  0.00000000000E+00 0. -1.
         21   -1    0    0  501  502 -0.00000000000E+00 -0.00000000000E+00 -0.18087290560E+04  0.18087290560E+04  0.00000000000E+00 0. -1.
      99926    2    1    2    0    0  0.00000000000E+00 -0.35527136788E-14 -0.17791566542E+04  0.18383014579E+04  0.46255145632E+03 0.  0.
         25    1    3    3    0    0 -0.46363925754E+02  0.40926028733E+02 -0.82004335428E+03  0.83183121150E+03  0.12509000000E+03 0.  0.
         25    1    3    3    0    0 -0.28944719348E+02 -0.18335672702E+02 -0.66273416834E+03  0.67530591560E+03  0.12509000000E+03 0.  0.
         25    1    3    3    0    0  0.75308645102E+02 -0.22590356032E+02 -0.29637913159E+03  0.33116433074E+03  0.12509000000E+03 0.  0.
<mgrwt>
<rscale>  2 0.46255146E+03</rscale>
<asrwt>0</asrwt>
<pdfrwt beam="1">  1       21 0.43488825E-02 0.46255146E+03</pdfrwt>
<pdfrwt beam="2">  1       21 0.26598957E+00 0.46255146E+03</pdfrwt>
<totfact> 0.15600033E+04</totfact>
</mgrwt>
</event>
<event>
 7    0  0.4707675E-002  0.4545724E+03  0.7546771E-02  0.1026367E+00
         21   -1    0    0  502  501  0.00000000000E+00  0.00000000000E+00  0.31031000264E+03  0.31031000264E+03  0.00000000000E+00 0. -1.
         21   -1    0    0  501  502 -0.00000000000E+00 -0.00000000000E+00 -0.16647551503E+03  0.16647551503E+03  0.00000000000E+00 0. -1.
      99926    2    1    2    0    0 -0.35527136788E-14  0.00000000000E+00  0.14383448761E+03  0.47678551767E+03  0.45457240351E+03 0.  0.
      99925    2    3    3    0    0  0.28657871135E+02 -0.93107931041E+02  0.15011653611E+03  0.31811185056E+03  0.26300154876E+03 0.  0.
         25    1    4    4    0    0  0.46138332971E+02 -0.53195657240E+02  0.10619192310E+03  0.17855743152E+03  0.12509000000E+03 0.  0.
         25    1    4    4    0    0 -0.17480461836E+02 -0.39912273800E+02  0.43924613008E+02  0.13955441904E+03  0.12509000000E+03 0.  0.
         25    1    3    3    0    0 -0.28657871135E+02  0.93107931041E+02 -0.62820484950E+01  0.15867366711E+03  0.12509000000E+03 0.  0.
<mgrwt>
<rscale>  2 0.45457240E+03</rscale>
<asrwt>0</asrwt>
<pdfrwt beam="1">  1       21 0.45633824E-01 0.45457240E+03</pdfrwt>
<pdfrwt beam="2">  1       21 0.24481693E-01 0.45457240E+03</pdfrwt>
<totfact> 0.67162477E+04</totfact>
</mgrwt>
</event>
<event>
 7    0  0.4707675E-002  0.4592742E+03  0.7546771E-02  0.1024992E+00
         21   -1    0    0  502  501  0.00000000000E+00  0.00000000000E+00  0.60637587701E+02  0.60637587701E+02  0.00000000000E+00 0. -1.
         21   -1    0    0  501  502 -0.00000000000E+00 -0.00000000000E+00 -0.86964523015E+03  0.86964523015E+03  0.00000000000E+00 0. -1.
      99926    2    1    2    0    0 -0.14210854715E-13  0.00000000000E+00 -0.80900764245E+03  0.93028281785E+03  0.45927416174E+03 0.  0.
      99925    2    3    3    0    0 -0.78735630753E+02  0.84593533533E+02 -0.46815882045E+03  0.54925684364E+03  0.26297344667E+03 0.  0.
         25    1    4    4    0    0 -0.47617820248E+01  0.63408374478E+02 -0.22312719865E+03  0.26358404997E+03  0.12509000000E+03 0.  0.
         25    1    4    4    0    0 -0.73973848728E+02  0.21185159055E+02 -0.24503162181E+03  0.28567279367E+03  0.12509000000E+03 0.  0.
         25    1    3    3    0    0  0.78735630753E+02 -0.84593533533E+02 -0.34084882200E+03  0.38102597421E+03  0.12509000000E+03 0.  0.
<mgrwt>
<rscale>  2 0.45927416E+03</rscale>
<asrwt>0</asrwt>
<pdfrwt beam="1">  1       21 0.89172927E-02 0.45927416E+03</pdfrwt>
<pdfrwt beam="2">  1       21 0.12788900E+00 0.45927416E+03</pdfrwt>
<totfact> 0.40576083E+04</totfact>
</mgrwt>
</event>
<event>
 7    0  0.4707675E-002  0.4698201E+03  0.7546771E-02  0.1021971E+00
         21   -1    0    0  502  501  0.00000000000E+00  0.00000000000E+00  0.17903904879E+04  0.17903904879E+04  0.00000000000E+00 0. -1.
         21   -1    0    0  501  502 -0.00000000000E+00 -0.00000000000E+00 -0.30821621285E+02  0.30821621285E+02  0.00000000000E+00 0. -1.
      99926    2    1    2    0    0  0.00000000000E+00  0.00000000000E+00  0.17595688666E+04  0.18212121092E+04  0.46982012545E+03 0.  0.
      99925    2    3    3    0    0 -0.56395440538E+02  0.95607716212E+02  0.13288282834E+04  0.13591447556E+04  0.26299919927E+03 0.  0.
         25    1    4    4    0    0  0.10740899504E+02  0.51224715596E+02  0.69408407730E+03  0.70720545308E+03  0.12509000000E+03 0.  0.
         25    1    3    3    0    0  0.56395440538E+02 -0.95607716212E+02  0.43074058319E+03  0.46206735355E+03  0.12509000000E+03 0.  0.
         25    1    4    4    0    0 -0.67136340042E+02  0.44383000616E+02  0.63474420614E+03  0.65193930256E+03  0.12509000000E+03 0.  0.
<mgrwt>
<rscale>  2 0.46982013E+03</rscale>
<asrwt>0</asrwt>
<pdfrwt beam="1">  1       21 0.26329265E+00 0.46982013E+03</pdfrwt>
<pdfrwt beam="2">  1       21 0.45325926E-02 0.46982013E+03</pdfrwt>
<totfact> 0.15048166E+04</totfact>
</mgrwt>
</event>
<event>
 7    0  0.4707675E-002  0.4538285E+03  0.7546771E-02  0.1026586E+00
         21   -1    0    0  502  501  0.00000000000E+00  0.00000000000E+00  0.14920049079E+03  0.14920049079E+03  0.00000000000E+00 0.  1.
         21   -1    0    0  501  502 -0.00000000000E+00 -0.00000000000E+00 -0.34510662021E+03  0.34510662021E+03  0.00000000000E+00 0.  1.
      99926    2    1    2    0    0  0.00000000000E+00  0.00000000000E+00 -0.19590612943E+03  0.49430711100E+03  0.45382850113E+03 0.  0.
      99925    2    3    3    0    0 -0.33550786597E+02  0.10700053813E+03 -0.13074381394E+03  0.31411719480E+03  0.26268021765E+03 0.  0.
         25    1    3    3    0    0  0.33550786597E+02 -0.10700053813E+03 -0.65162315488E+02  0.18018991620E+03  0.12509000000E+03 0.  0.
         25    1    4    4    0    0 -0.55428480920E+02  0.56095128012E+02 -0.80545939353E+02  0.16838686508E+03  0.12509000000E+03 0.  0.
         25    1    4    4    0    0  0.21877694323E+02  0.50905410118E+02 -0.50197874584E+02  0.14573032972E+03  0.12509000000E+03 0.  0.
<mgrwt>
<rscale>  2 0.45382850E+03</rscale>
<asrwt>0</asrwt>
<pdfrwt beam="1">  1       21 0.21941249E-01 0.45382850E+03</pdfrwt>
<pdfrwt beam="2">  1       21 0.50750973E-01 0.45382850E+03</pdfrwt>
<totfact> 0.66286802E+04</totfact>
</mgrwt>
</event>
<event>
 7    0  0.4707675E-002  0.4592936E+03  0.7546771E-02  0.1024986E+00
         21   -1    0    0  502  501  0.00000000000E+00  0.00000000000E+00  0.17351479021E+04  0.17351479021E+04  0.00000000000E+00 0. -1.
         21   -1    0    0  501  502 -0.00000000000E+00 -0.00000000000E+00 -0.30393752241E+02  0.30393752241E+02  0.00000000000E+00 0. -1.
      99926    2    1    2    0    0  0.00000000000E+00  0.71054273576E-14  0.17047541499E+04  0.17655416544E+04  0.45929361170E+03 0.  0.
      99925    2    3    3    0    0 -0.10295463575E+03  0.51282073748E+02  0.96195078113E+03  0.10035483074E+04  0.26178310073E+03 0.  0.
         25    1    4    4    0    0 -0.76615269937E+02  0.58353193587E+02  0.53949463418E+03  0.56211828222E+03  0.12509000000E+03 0.  0.
         25    1    4    4    0    0 -0.26339365812E+02 -0.70711198393E+01  0.42245614695E+03  0.44143002517E+03  0.12509000000E+03 0.  0.
         25    1    3    3    0    0  0.10295463575E+03 -0.51282073748E+02  0.74280336875E+03  0.76199334698E+03  0.12509000000E+03 0.  0.
<mgrwt>
<rscale>  2 0.45929361E+03</rscale>
<asrwt>0</asrwt>
<pdfrwt beam="1">  1       21 0.25516874E+00 0.45929361E+03</pdfrwt>
<pdfrwt beam="2">  1       21 0.44696706E-02 0.45929361E+03</pdfrwt>
<totfact> 0.17345633E+04</totfact>
</mgrwt>
</event>
<event>
 7    0  0.4707675E-002  0.4530610E+03  0.7546771E-02  0.1026813E+00
         21   -1    0    0  502  501  0.00000000000E+00  0.00000000000E+00  0.13510836658E+04  0.13510836658E+04  0.00000000000E+00 0. -1.
         21   -1    0    0  501  502 -0.00000000000E+00 -0.00000000000E+00 -0.37981418505E+02  0.37981418505E+02  0.00000000000E+00 0. -1.
      99926    2    1    2    0    0  0.00000000000E+00  0.00000000000E+00  0.13131022473E+04  0.13890650843E+04  0.45306102964E+03 0.  0.
      99925    2    3    3    0    0 -0.58041866655E+02  0.35258123797E+02  0.55671570807E+03  0.61940275679E+03  0.26289808277E+03 0.  0.
         25    1    4    4    0    0 -0.35086555487E+02  0.56212865121E+02  0.31881582049E+03  0.34882945414E+03  0.12509000000E+03 0.  0.
         25    1    4    4    0    0 -0.22955311168E+02 -0.20954741324E+02  0.23789988758E+03  0.27057330265E+03  0.12509000000E+03 0.  0.
         25    1    3    3    0    0  0.58041866655E+02 -0.35258123797E+02  0.75638653923E+03  0.76966232752E+03  0.12509000000E+03 0.  0.
<mgrwt>
<rscale>  2 0.45306103E+03</rscale>
<asrwt>0</asrwt>
<pdfrwt beam="1">  1       21 0.19868874E+00 0.45306103E+03</pdfrwt>
<pdfrwt beam="2">  1       21 0.55855036E-02 0.45306103E+03</pdfrwt>
<totfact> 0.27029887E+04</totfact>
</mgrwt>
</event>
<event>
 7    0  0.4707675E-002  0.4392044E+03  0.7546771E-02  0.1030991E+00
         21   -1    0    0  502  501  0.00000000000E+00  0.00000000000E+00  0.44839894285E+03  0.44839894285E+03  0.00000000000E+00 0. -1.
         21   -1    0    0  501  502 -0.00000000000E+00 -0.00000000000E+00 -0.10754957910E+03  0.10754957910E+03  0.00000000000E+00 0. -1.
      99926    2    1    2    0    0  0.00000000000E+00  0.00000000000E+00  0.34084936375E+03  0.55594852195E+03  0.43920436051E+03 0.  0.
      99925    2    3    3    0    0  0.69632250401E+02 -0.67268701016E+02  0.23298329290E+03  0.36449010408E+03  0.26305530363E+03 0.  0.
         25    1    4    4    0    0  0.76330380614E+02 -0.32204692591E+02  0.11815647281E+03  0.19097625349E+03  0.12509000000E+03 0.  0.
         25    1    4    4    0    0 -0.66981302130E+01 -0.35064008425E+02  0.11482682009E+03  0.17351385059E+03  0.12509000000E+03 0.  0.
         25    1    3    3    0    0 -0.69632250401E+02  0.67268701016E+02  0.10786607085E+03  0.19145841787E+03  0.12509000000E+03 0.  0.
<mgrwt>
<rscale>  2 0.43920436E+03</rscale>
<asrwt>0</asrwt>
<pdfrwt beam="1">  1       21 0.65941021E-01 0.43920436E+03</pdfrwt>
<pdfrwt beam="2">  1       21 0.15816115E-01 0.43920436E+03</pdfrwt>
<totfact> 0.69795915E+04</totfact>
</mgrwt>
</event>
<event>
 7    0  0.4707675E-002  0.4587493E+03  0.7546771E-02  0.1025145E+00
         21   -1    0    0  502  501  0.00000000000E+00  0.00000000000E+00  0.44437210646E+03  0.44437210646E+03  0.00000000000E+00 0.  1.
         21   -1    0    0  501  502 -0.00000000000E+00 -0.00000000000E+00 -0.11839793013E+03  0.11839793013E+03  0.00000000000E+00 0.  1.
      99926    2    1    2    0    0  0.00000000000E+00  0.00000000000E+00  0.32597417633E+03  0.56277003659E+03  0.45874933292E+03 0.  0.
      99925    2    3    3    0    0 -0.75359027472E+02 -0.69820324140E+02  0.27231605026E+03  0.39223979506E+03  0.26294897778E+03 0.  0.
         25    1    4    4    0    0 -0.26667071644E+02  0.61720498842E+01  0.12462177415E+03  0.17868218043E+03  0.12509000000E+03 0.  0.
         25    1    4    4    0    0 -0.48691955828E+02 -0.75992374025E+02  0.14769427610E+03  0.21355761463E+03  0.12509000000E+03 0.  0.
         25    1    3    3    0    0  0.75359027472E+02  0.69820324140E+02  0.53658126067E+02  0.17053024153E+03  0.12509000000E+03 0.  0.
<mgrwt>
<rscale>  2 0.45874933E+03</rscale>
<asrwt>0</asrwt>
<pdfrwt beam="1">  1       21 0.65348839E-01 0.45874933E+03</pdfrwt>
<pdfrwt beam="2">  1       21 0.17411460E-01 0.45874933E+03</pdfrwt>
<totfact> 0.59253652E+04</totfact>
</mgrwt>
</event>
<event>
 7    0  0.4707675E-002  0.4600223E+03  0.7546771E-02  0.1024775E+00
         21   -1    0    0  502  501  0.00000000000E+00  0.00000000000E+00  0.28809098596E+02  0.28809098596E+02  0.00000000000E+00 0.  1.
         21   -1    0    0  501  502 -0.00000000000E+00 -0.00000000000E+00 -0.18364037641E+04  0.18364037641E+04  0.00000000000E+00 0.  1.
      99926    2    1    2    0    0  0.00000000000E+00  0.00000000000E+00 -0.18075946655E+04  0.18652128627E+04  0.46002233469E+03 0.  0.
      99925    2    3    3    0    0  0.41968795947E+02 -0.58094710921E+02 -0.15116166196E+04  0.15359912246E+04  0.26295981053E+03 0.  0.
         25    1    4    4    0    0 -0.12115746861E+02 -0.49112317377E+02 -0.68412608077E+03  0.69730539474E+03  0.12509000000E+03 0.  0.
         25    1    4    4    0    0  0.54084542808E+02 -0.89823935433E+01 -0.82749053886E+03  0.83868582983E+03  0.12509000000E+03 0.  0.
         25    1    3    3    0    0 -0.41968795947E+02  0.58094710921E+02 -0.29597804589E+03  0.32922163814E+03  0.12509000000E+03 0.  0.
<mgrwt>
<rscale>  2 0.46002233E+03</rscale>
<asrwt>0</asrwt>
<pdfrwt beam="1">  1       21 0.42366317E-02 0.46002233E+03</pdfrwt>
<pdfrwt beam="2">  1       21 0.27005941E+00 0.46002233E+03</pdfrwt>
<totfact> 0.15427770E+04</totfact>
</mgrwt>
</event>
<event>
 7    0  0.4707675E-002  0.4421299E+03  0.7546771E-02  0.1030095E+00
         21   -1    0    0  502  501  0.00000000000E+00  0.00000000000E+00  0.60850814745E+02  0.60850814745E+02  0.00000000000E+00 0. -1.
         21   -1    0    0  501  502 -0.00000000000E+00 -0.00000000000E+00 -0.80310702035E+03  0.80310702035E+03  0.00000000000E+00 0. -1.
      99926    2    1    2    0    0  0.17763568394E-14  0.00000000000E+00 -0.74225620560E+03  0.86395783509E+03  0.44212991989E+03 0.  0.
      99925    2    3    3    0    0 -0.14931945693E+02  0.53581722982E+02 -0.63657907851E+03  0.69101528009E+03  0.26301184399E+03 0.  0.
         25    1    4    4    0    0 -0.45701055850E+02  0.39534537690E+02 -0.31233558961E+03  0.34183708812E+03  0.12509000000E+03 0.  0.
         25    1    4    4    0    0  0.30769110158E+02  0.14047185292E+02 -0.32424348890E+03  0.34917819197E+03  0.12509000000E+03 0.  0.
         25    1    3    3    0    0  0.14931945693E+02 -0.53581722982E+02 -0.10567712709E+03  0.17294255500E+03  0.12509000000E+03 0.  0.
<mgrwt>
<rscale>  2 0.44212992E+03</rscale>
<asrwt>0</asrwt>
<pdfrwt beam="1">  1       21 0.89486496E-02 0.44212992E+03</pdfrwt>
<pdfrwt beam="2">  1       21 0.11810397E+00 0.44212992E+03</pdfrwt>
<totfact> 0.49645781E+04</totfact>
</mgrwt>
</event>
<event>
 7    0  0.4707675E-002  0.4353334E+03  0.7546771E-02  0.1032188E+00
         21   -1    0    0  502  501  0.00000000000E+00  0.00000000000E+00  0.66378257140E+03  0.66378257140E+03  0.00000000000E+00 0. -1.
         21   -1    0    0  501  502 -0.00000000000E+00 -0.00000000000E+00 -0.71376972225E+02  0.71376972225E+02  0.00000000000E+00 0. -1.
      99926    2    1    2    0    0  0.00000000000E+00 -0.71054273576E-14  0.59240559918E+03  0.73515954363E+03  0.43533339023E+03 0.  0.
      99925    2    3    3    0    0 -0.21182742988E+02  0.45879621357E+02  0.24703787300E+03  0.36437655772E+03  0.26303786203E+03 0.  0.
         25    1    4    4    0    0 -0.14604690887E+02 -0.17796653735E+02  0.12322967825E+03  0.17709624384E+03  0.12509000000E+03 0.  0.
         25    1    4    4    0    0 -0.65780521004E+01  0.63676275091E+02  0.12380819475E+03  0.18728031388E+03  0.12509000000E+03 0.  0.
         25    1    3    3    0    0  0.21182742988E+02 -0.45879621357E+02  0.34536772618E+03  0.37078298591E+03  0.12509000000E+03 0.  0.
<mgrwt>
<rscale>  2 0.43533339E+03</rscale>
<asrwt>0</asrwt>
<pdfrwt beam="1">  1       21 0.97615081E-01 0.43533339E+03</pdfrwt>
<pdfrwt beam="2">  1       21 0.10496614E-01 0.43533339E+03</pdfrwt>
<totfact> 0.59752319E+04</totfact>
</mgrwt>
</event>
<event>
 7    0  0.4707675E-002  0.4521316E+03  0.7546771E-02  0.1027088E+00
         21   -1    0    0  502  501  0.00000000000E+00  0.00000000000E+00  0.26306584866E+03  0.26306584866E+03  0.00000000000E+00 0. -1.
         21   -1    0    0  501  502 -0.00000000000E+00 -0.00000000000E+00 -0.19426977204E+03  0.19426977204E+03  0.00000000000E+00 0. -1.
      99926    2    1    2    0    0  0.00000000000E+00  0.00000000000E+00  0.68796076618E+02  0.45733562070E+03  0.45213158461E+03 0.  0.
      99925    2    3    3    0    0  0.80350746752E+02 -0.75865889581E+02  0.39525534421E+02  0.28787722331E+03  0.26286717582E+03 0.  0.
         25    1    4    4    0    0  0.95496417278E+01 -0.57780094895E+02  0.36977452815E+02  0.14298452762E+03  0.12509000000E+03 0.  0.
         25    1    4    4    0    0  0.70801105024E+02 -0.18085794686E+02  0.25480816062E+01  0.14489269568E+03  0.12509000000E+03 0.  0.
         25    1    3    3    0    0 -0.80350746752E+02  0.75865889581E+02  0.29270542197E+02  0.16945839739E+03  0.12509000000E+03 0.  0.
<mgrwt>
<rscale>  2 0.45213158E+03</rscale>
<asrwt>0</asrwt>
<pdfrwt beam="1">  1       21 0.38686154E-01 0.45213158E+03</pdfrwt>
<pdfrwt beam="2">  1       21 0.28569084E-01 0.45213158E+03</pdfrwt>
<totfact> 0.69961874E+04</totfact>
</mgrwt>
</event>
<event>
 7    0  0.4707675E-002  0.4468736E+03  0.7546771E-02  0.1028658E+00
         21   -1    0    0  502  501  0.00000000000E+00  0.00000000000E+00  0.62395587122E+03  0.62395587122E+03  0.00000000000E+00 0. -1.
         21   -1    0    0  501  502 -0.00000000000E+00 -0.00000000000E+00 -0.80012069056E+02  0.80012069056E+02  0.00000000000E+00 0. -1.
      99926    2    1    2    0    0  0.00000000000E+00  0.00000000000E+00  0.54394380217E+03  0.70396794028E+03  0.44687358506E+03 0.  0.
      99925    2    3    3    0    0 -0.58448158415E+02 -0.85978525566E+02  0.37161127776E+03  0.46699853055E+03  0.26302887996E+03 0.  0.
         25    1    4    4    0    0  0.19714413689E+01 -0.61671360428E+02  0.15494141696E+03  0.20847444464E+03  0.12509000000E+03 0.  0.
         25    1    4    4    0    0 -0.60419599784E+02 -0.24307165138E+02  0.21666986080E+03  0.25852408591E+03  0.12509000000E+03 0.  0.
         25    1    3    3    0    0  0.58448158415E+02  0.85978525566E+02  0.17233252441E+03  0.23696940973E+03  0.12509000000E+03 0.  0.
<mgrwt>
<rscale>  2 0.44687359E+03</rscale>
<asrwt>0</asrwt>
<pdfrwt beam="1">  1       21 0.91758214E-01 0.44687359E+03</pdfrwt>
<pdfrwt beam="2">  1       21 0.11766481E-01 0.44687359E+03</pdfrwt>
<totfact> 0.56196240E+04</totfact>
</mgrwt>
</event>
<event>
 7    0  0.4707675E-002  0.4492050E+03  0.7546771E-02  0.1027959E+00
         21   -1    0    0  502  501  0.00000000000E+00  0.00000000000E+00  0.84211480576E+02  0.84211480576E+02  0.00000000000E+00 0. -1.
         21   -1    0    0  501  502 -0.00000000000E+00 -0.00000000000E+00 -0.59904272705E+03  0.59904272705E+03  0.00000000000E+00 0. -1.
      99926    2    1    2    0    0  0.00000000000E+00 -0.35527136788E-14 -0.51483124648E+03  0.68325420763E+03  0.44920496423E+03 0.  0.
      99925    2    3    3    0    0 -0.89109851281E+02 -0.24858699791E+02 -0.40947545262E+03  0.49535563938E+03  0.26296110476E+03 0.  0.
         25    1    3    3    0    0  0.89109851281E+02  0.24858699791E+02 -0.10535579385E+03  0.18789856825E+03  0.12509000000E+03 0.  0.
         25    1    4    4    0    0 -0.49527560512E+02  0.11616406931E+02 -0.26114688798E+03  0.29399511112E+03  0.12509000000E+03 0.  0.
         25    1    4    4    0    0 -0.39582290768E+02 -0.36475106722E+02 -0.14832856464E+03  0.20136052826E+03  0.12509000000E+03 0.  0.
<mgrwt>
<rscale>  2 0.44920496E+03</rscale>
<asrwt>0</asrwt>
<pdfrwt beam="1">  1       21 0.12384041E-01 0.44920496E+03</pdfrwt>
<pdfrwt beam="2">  1       21 0.88094519E-01 0.44920496E+03</pdfrwt>
<totfact> 0.56349217E+04</totfact>
</mgrwt>
</event>
<event>
 7    0  0.4707675E-002  0.4552722E+03  0.7546771E-02  0.1026161E+00
         21   -1    0    0  502  501  0.00000000000E+00  0.00000000000E+00  0.18948863858E+03  0.18948863858E+03  0.00000000000E+00 0.  1.
         21   -1    0    0  501  502 -0.00000000000E+00 -0.00000000000E+00 -0.27346335334E+03  0.27346335334E+03  0.00000000000E+00 0.  1.
      99926    2    1    2    0    0  0.00000000000E+00 -0.14210854715E-13 -0.83974714759E+02  0.46295199192E+03  0.45527221978E+03 0.  0.
      99925    2    3    3    0    0  0.49119356950E+01  0.94550109830E+02  0.10748966798E+02  0.27969279207E+03  0.26296134177E+03 0.  0.
         25    1    4    4    0    0 -0.42323112391E-01  0.65261700886E+02 -0.31113512950E+02  0.14448062217E+03  0.12509000000E+03 0.  0.
         25    1    3    3    0    0 -0.49119356950E+01 -0.94550109830E+02 -0.94723681557E+02  0.18325919985E+03  0.12509000000E+03 0.  0.
         25    1    4    4    0    0  0.49542588073E+01  0.29288408943E+02  0.41862479748E+02  0.13521216990E+03  0.12509000000E+03 0.  0.
<mgrwt>
<rscale>  2 0.45527222E+03</rscale>
<asrwt>0</asrwt>
<pdfrwt beam="1">  1       21 0.27865976E-01 0.45527222E+03</pdfrwt>
<pdfrwt beam="2">  1       21 0.40215199E-01 0.45527222E+03</pdfrwt>
<totfact> 0.67815572E+04</totfact>
</mgrwt>
</event>
<event>
 7    0  0.4707675E-002  0.4414147E+03  0.7546771E-02  0.1030314E+00
         21   -1    0    0  502  501  0.00000000000E+00  0.00000000000E+00  0.19384106337E+03  0.19384106337E+03  0.00000000000E+00 0. -1.
         21   -1    0    0  501  502 -0.00000000000E+00 -0.00000000000E+00 -0.25129730792E+03  0.25129730792E+03  0.00000000000E+00 0. -1.
      99926    2    1    2    0    0 -0.14210854715E-13  0.35527136788E-14 -0.57456244551E+02  0.44513837129E+03  0.44141471380E+03 0.  0.
      99925    2    3    3    0    0 -0.64474388364E+02  0.20217474824E+02 -0.11076704322E+03  0.29329884285E+03  0.26303836281E+03 0.  0.
         25    1    4    4    0    0 -0.38156101600E+02  0.49320747506E+02 -0.67721733051E+02  0.15531312067E+03  0.12509000000E+03 0.  0.
         25    1    3    3    0    0  0.64474388364E+02 -0.20217474824E+02  0.53310798667E+02  0.15183952844E+03  0.12509000000E+03 0.  0.
         25    1    4    4    0    0 -0.26318286764E+02 -0.29103272682E+02 -0.43045310166E+02  0.13798572218E+03  0.12509000000E+03 0.  0.
<mgrwt>
<rscale>  2 0.44141471E+03</rscale>
<asrwt>0</asrwt>
<pdfrwt beam="1">  1       21 0.28506039E-01 0.44141471E+03</pdfrwt>
<pdfrwt beam="2">  1       21 0.36955486E-01 0.44141471E+03</pdfrwt>
<totfact> 0.77321000E+04</totfact>
</mgrwt>
</event>
<event>
 7    0  0.4707675E-002  0.4532530E+03  0.7546771E-02  0.1026756E+00
         21   -1    0    0  502  501  0.00000000000E+00  0.00000000000E+00  0.40288363884E+03  0.40288363884E+03  0.00000000000E+00 0.  1.
         21   -1    0    0  501  502 -0.00000000000E+00 -0.00000000000E+00 -0.12747990782E+03  0.12747990782E+03  0.00000000000E+00 0.  1.
      99926    2    1    2    0    0  0.14210854715E-13  0.00000000000E+00  0.27540373103E+03  0.53036354666E+03  0.45325299399E+03 0.  0.
      99925    2    3    3    0    0 -0.72312748493E+02 -0.33742330684E+02  0.26463638245E+03  0.38159822016E+03  0.26309144462E+03 0.  0.
         25    1    4    4    0    0 -0.55483516152E+02  0.18789863935E+02  0.12818612632E+03  0.18844275161E+03  0.12509000000E+03 0.  0.
         25    1    3    3    0    0  0.72312748493E+02  0.33742330684E+02  0.10767348571E+02  0.14876532650E+03  0.12509000000E+03 0.  0.
         25    1    4    4    0    0 -0.16829232341E+02 -0.52532194619E+02  0.13645025613E+03  0.19315546855E+03  0.12509000000E+03 0.  0.
<mgrwt>
<rscale>  2 0.45325299E+03</rscale>
<asrwt>0</asrwt>
<pdfrwt beam="1">  1       21 0.59247593E-01 0.45325299E+03</pdfrwt>
<pdfrwt beam="2">  1       21 0.18747045E-01 0.45325299E+03</pdfrwt>
<totfact> 0.64064366E+04</totfact>
</mgrwt>
</event>
<event>
 7    0  0.4707675E-002  0.4590158E+03  0.7546771E-02  0.1025067E+00
         21   -1    0    0  502  501  0.00000000000E+00  0.00000000000E+00  0.51039458222E+02  0.51039458222E+02  0.00000000000E+00 0.  1.
         21   -1    0    0  501  502 -0.00000000000E+00 -0.00000000000E+00 -0.10320224905E+04  0.10320224905E+04  0.00000000000E+00 0.  1.
      99926    2    1    2    0    0 -0.71054273576E-14  0.00000000000E+00 -0.98098303228E+03  0.10830619487E+04  0.45901576787E+03 0.  0.
      99925    2    3    3    0    0  0.45520873208E+02 -0.79359822813E+02 -0.78697226568E+03  0.83475202740E+03  0.26289821018E+03 0.  0.
         25    1    3    3    0    0 -0.45520873208E+02  0.79359822813E+02 -0.19401076660E+03  0.24830992133E+03  0.12509000000E+03 0.  0.
         25    1    4    4    0    0  0.26110094690E+02 -0.26098311070E+02 -0.49814982452E+03  0.51494039913E+03  0.12509000000E+03 0.  0.
         25    1    4    4    0    0  0.19410778518E+02 -0.53261511743E+02 -0.28882244116E+03  0.31981162826E+03  0.12509000000E+03 0.  0.
<mgrwt>
<rscale>  2 0.45901577E+03</rscale>
<asrwt>0</asrwt>
<pdfrwt beam="1">  1       21 0.75058024E-02 0.45901577E+03</pdfrwt>
<pdfrwt beam="2">  1       21 0.15176802E+00 0.45901577E+03</pdfrwt>
<totfact> 0.34978221E+04</totfact>
</mgrwt>
</event>
<event>
 7    0  0.4707675E-002  0.4500452E+03  0.7546771E-02  0.1027709E+00
         21   -1    0    0  502  501  0.00000000000E+00  0.00000000000E+00  0.64520297162E+03  0.64520297162E+03  0.00000000000E+00 0.  1.
         21   -1    0    0  501  502 -0.00000000000E+00 -0.00000000000E+00 -0.78479430349E+02  0.78479430349E+02  0.00000000000E+00 0.  1.
      99926    2    1    2    0    0  0.00000000000E+00  0.00000000000E+00  0.56672354127E+03  0.72368240196E+03  0.45004516072E+03 0.  0.
      99925    2    3    3    0    0 -0.59415212040E+02  0.81385019019E+02  0.42477153542E+03  0.50931923160E+03  0.26233858587E+03 0.  0.
         25    1    4    4    0    0 -0.15409876113E+02  0.53733746873E+02  0.27588586835E+03  0.30803457645E+03  0.12509000000E+03 0.  0.
         25    1    4    4    0    0 -0.44005335927E+02  0.27651272146E+02  0.14888566707E+03  0.20128465515E+03  0.12509000000E+03 0.  0.
         25    1    3    3    0    0  0.59415212040E+02 -0.81385019019E+02  0.14195200585E+03  0.21436317036E+03  0.12509000000E+03 0.  0.
<mgrwt>
<rscale>  2 0.45004516E+03</rscale>
<asrwt>0</asrwt>
<pdfrwt beam="1">  1       21 0.94882787E-01 0.45004516E+03</pdfrwt>
<pdfrwt beam="2">  1       21 0.11541093E-01 0.45004516E+03</pdfrwt>
<totfact> 0.53698137E+04</totfact>
</mgrwt>
</event>
<event>
 7    0  0.4707675E-002  0.4497922E+03  0.7546771E-02  0.1027784E+00
         21   -1    0    0  502  501  0.00000000000E+00  0.00000000000E+00  0.57126420422E+02  0.57126420422E+02  0.00000000000E+00 0. -1.
         21   -1    0    0  501  502 -0.00000000000E+00 -0.00000000000E+00 -0.88537398834E+03  0.88537398834E+03  0.00000000000E+00 0. -1.
      99926    2    1    2    0    0  0.00000000000E+00  0.00000000000E+00 -0.82824756792E+03  0.94250040876E+03  0.44979215951E+03 0.  0.
      99925    2    3    3    0    0  0.69005843016E+02  0.53938547170E+02 -0.38985578640E+03  0.47827413264E+03  0.26284489442E+03 0.  0.
         25    1    3    3    0    0 -0.69005843016E+02 -0.53938547170E+02 -0.43839178152E+03  0.46422627613E+03  0.12509000000E+03 0.  0.
         25    1    4    4    0    0  0.41205598543E+02  0.55557908479E+02 -0.25437523006E+03  0.29178562048E+03  0.12509000000E+03 0.  0.
         25    1    4    4    0    0  0.27800244473E+02 -0.16193613089E+01 -0.13548055633E+03  0.18648851216E+03  0.12509000000E+03 0.  0.
<mgrwt>
<rscale>  2 0.44979216E+03</rscale>
<asrwt>0</asrwt>
<pdfrwt beam="1">  1       21 0.84009440E-02 0.44979216E+03</pdfrwt>
<pdfrwt beam="2">  1       21 0.13020206E+00 0.44979216E+03</pdfrwt>
<totfact> 0.43177851E+04</totfact>
</mgrwt>
</event>
<event>
 7    0  0.4707675E-002  0.4528294E+03  0.7546771E-02  0.1026882E+00
         21   -1    0    0  502  501  0.00000000000E+00  0.00000000000E+00  0.78284369361E+02  0.78284369361E+02  0.00000000000E+00 0.  1.
         21   -1    0    0  501  502 -0.00000000000E+00 -0.00000000000E+00 -0.65483855679E+03  0.65483855679E+03  0.00000000000E+00 0.  1.
      99926    2    1    2    0    0 -0.17763568394E-14  0.00000000000E+00 -0.57655418743E+03  0.73312292615E+03  0.45282943125E+03 0.  0.
      99925    2    3    3    0    0 -0.10526250165E+02 -0.69100968271E+02 -0.22362170049E+03  0.35221008285E+03  0.26298199895E+03 0.  0.
         25    1    4    4    0    0 -0.22584123470E+02 -0.13541681949E+02 -0.68658825709E+02  0.14510328125E+03  0.12509000000E+03 0.  0.
         25    1    3    3    0    0  0.10526250165E+02  0.69100968271E+02 -0.35293248694E+03  0.38091284330E+03  0.12509000000E+03 0.  0.
         25    1    4    4    0    0  0.12057873304E+02 -0.55559286322E+02 -0.15496287478E+03  0.20710680159E+03  0.12509000000E+03 0.  0.
<mgrwt>
<rscale>  2 0.45282943E+03</rscale>
<asrwt>0</asrwt>
<pdfrwt beam="1">  1       21 0.11512407E-01 0.45282943E+03</pdfrwt>
<pdfrwt beam="2">  1       21 0.96299788E-01 0.45282943E+03</pdfrwt>
<totfact> 0.52023454E+04</totfact>
</mgrwt>
</event>
<event>
 7    0  0.4707675E-002  0.4210383E+03  0.7546771E-02  0.1036729E+00
         21   -1    0    0  502  501  0.00000000000E+00  0.00000000000E+00  0.10599510470E+03  0.10599510470E+03  0.00000000000E+00 0.  1.
         21   -1    0    0  501  502 -0.00000000000E+00 -0.00000000000E+00 -0.41811666665E+03  0.41811666665E+03  0.00000000000E+00 0.  1.
      99926    2    1    2    0    0  0.35527136788E-14  0.22204460493E-15 -0.31212156195E+03  0.52411177135E+03  0.42103833487E+03 0.  0.
      99925    2    3    3    0    0 -0.27501613187E+02  0.63272689843E+00 -0.29288769908E+03  0.39459656509E+03  0.26299525820E+03 0.  0.
         25    1    4    4    0    0 -0.44870604002E+02  0.26454595744E+02 -0.15283069602E+03  0.20424971600E+03  0.12509000000E+03 0.  0.
         25    1    3    3    0    0  0.27501613187E+02 -0.63272689843E+00 -0.19233862866E+02  0.12951520626E+03  0.12509000000E+03 0.  0.
         25    1    4    4    0    0  0.17368990816E+02 -0.25821868845E+02 -0.14005700306E+03  0.19034684909E+03  0.12509000000E+03 0.  0.
<mgrwt>
<rscale>  2 0.42103833E+03</rscale>
<asrwt>0</asrwt>
<pdfrwt beam="1">  1       21 0.15587516E-01 0.42103833E+03</pdfrwt>
<pdfrwt beam="2">  1       21 0.61487744E-01 0.42103833E+03</pdfrwt>
<totfact> 0.84024796E+04</totfact>
</mgrwt>
</event>
<event>
 7    0  0.4707675E-002  0.4667091E+03  0.7546771E-02  0.1022853E+00
         21   -1    0    0  502  501  0.00000000000E+00  0.00000000000E+00  0.14111553343E+04  0.14111553343E+04  0.00000000000E+00 0.  1.
         21   -1    0    0  501  502 -0.00000000000E+00 -0.00000000000E+00 -0.38588479124E+02  0.38588479124E+02  0.00000000000E+00 0.  1.
      99926    2    1    2    0    0  0.00000000000E+00  0.00000000000E+00  0.13725668552E+04  0.14497438134E+04  0.46670906638E+03 0.  0.
      99925    2    3    3    0    0  0.72161947063E+02 -0.52806516100E+02  0.11210335455E+04  0.11549347418E+04  0.26298702041E+03 0.  0.
         25    1    4    4    0    0 -0.67549661988E+00 -0.24194280750E+02  0.60202556180E+03  0.61536014226E+03  0.12509000000E+03 0.  0.
         25    1    3    3    0    0 -0.72161947063E+02  0.52806516100E+02  0.25153330971E+03  0.29480907168E+03  0.12509000000E+03 0.  0.
         25    1    4    4    0    0  0.72837443683E+02 -0.28612235350E+02  0.51900798368E+03  0.53957459951E+03  0.12509000000E+03 0.  0.
<mgrwt>
<rscale>  2 0.46670907E+03</rscale>
<asrwt>0</asrwt>
<pdfrwt beam="1">  1       21 0.20752281E+00 0.46670907E+03</pdfrwt>
<pdfrwt beam="2">  1       21 0.56747773E-02 0.46670907E+03</pdfrwt>
<totfact> 0.22882464E+04</totfact>
</mgrwt>
</event>
<event>
 7    0  0.4707675E-002  0.4288882E+03  0.7546771E-02  0.1034212E+00
         21   -1    0    0  502  501  0.00000000000E+00  0.00000000000E+00  0.10677180331E+03  0.10677180331E+03  0.00000000000E+00 0. -1.
         21   -1    0    0  501  502 -0.00000000000E+00 -0.00000000000E+00 -0.43069687842E+03  0.43069687842E+03  0.00000000000E+00 0. -1.
      99926    2    1    2    0    0  0.00000000000E+00  0.00000000000E+00 -0.32392507511E+03  0.53746868173E+03  0.42888824833E+03 0.  0.
      99925    2    3    3    0    0 -0.28203021572E+02  0.20664389216E+02 -0.30810606039E+03  0.40662458849E+03  0.26304331223E+03 0.  0.
         25    1    3    3    0    0  0.28203021572E+02 -0.20664389216E+02 -0.15819014718E+02  0.13084409323E+03  0.12509000000E+03 0.  0.
         25    1    4    4    0    0 -0.50788451614E+01 -0.33660947074E+01 -0.20873909878E+03  0.24342687757E+03  0.12509000000E+03 0.  0.
         25    1    4    4    0    0 -0.23124176410E+02  0.24030483924E+02 -0.99366961609E+02  0.16319771093E+03  0.12509000000E+03 0.  0.
<mgrwt>
<rscale>  2 0.42888825E+03</rscale>
<asrwt>0</asrwt>
<pdfrwt beam="1">  1       21 0.15701736E-01 0.42888825E+03</pdfrwt>
<pdfrwt beam="2">  1       21 0.63337774E-01 0.42888825E+03</pdfrwt>
<totfact> 0.77523347E+04</totfact>
</mgrwt>
</event>
<event>
 7    0  0.4707675E-002  0.4322504E+03  0.7546771E-02  0.1033151E+00
         21   -1    0    0  502  501  0.00000000000E+00  0.00000000000E+00  0.47243460413E+02  0.47243460413E+02  0.00000000000E+00 0. -1.
         21   -1    0    0  501  502 -0.00000000000E+00 -0.00000000000E+00 -0.98871036593E+03  0.98871036593E+03  0.00000000000E+00 0. -1.
      99926    2    1    2    0    0  0.00000000000E+00  0.00000000000E+00 -0.94146690552E+03  0.10359538263E+04  0.43225038592E+03 0.  0.
      99925    2    3    3    0    0 -0.66222020333E+02 -0.60900595686E+02 -0.59187499607E+03  0.65391161692E+03  0.26304021220E+03 0.  0.
         25    1    3    3    0    0  0.66222020333E+02  0.60900595686E+02 -0.34959190945E+03  0.38204220942E+03  0.12509000000E+03 0.  0.
         25    1    4    4    0    0 -0.12897156460E+02 -0.58295485898E+02 -0.24780209935E+03  0.28393324719E+03  0.12509000000E+03 0.  0.
         25    1    4    4    0    0 -0.53324863872E+02 -0.26051097884E+01 -0.34407289672E+03  0.36997836973E+03  0.12509000000E+03 0.  0.
<mgrwt>
<rscale>  2 0.43225039E+03</rscale>
<asrwt>0</asrwt>
<pdfrwt beam="1">  1       21 0.69475677E-02 0.43225039E+03</pdfrwt>
<pdfrwt beam="2">  1       21 0.14539858E+00 0.43225039E+03</pdfrwt>
<totfact> 0.45327498E+04</totfact>
</mgrwt>
</event>
<event>
 7    0  0.4707675E-002  0.4506004E+03  0.7546771E-02  0.1027543E+00
         21   -1    0    0  502  501  0.00000000000E+00  0.00000000000E+00  0.17440480031E+03  0.17440480031E+03  0.00000000000E+00 0. -1.
         21   -1    0    0  501  502 -0.00000000000E+00 -0.00000000000E+00 -0.29104803367E+03  0.29104803367E+03  0.00000000000E+00 0. -1.
      99926    2    1    2    0    0 -0.17763568394E-14 -0.14210854715E-13 -0.11664323336E+03  0.46545283398E+03  0.45060037369E+03 0.  0.
      99925    2    3    3    0    0 -0.86897546029E+01  0.10850991249E+03 -0.80104753853E+02  0.29565153384E+03  0.26295084128E+03 0.  0.
         25    1    4    4    0    0  0.28362492186E+02  0.28552614111E+02 -0.31870449351E+02  0.13521433496E+03  0.12509000000E+03 0.  0.
         25    1    3    3    0    0  0.86897546029E+01 -0.10850991249E+03 -0.36538479510E+02  0.16980130014E+03  0.12509000000E+03 0.  0.
         25    1    4    4    0    0 -0.37052246789E+02  0.79957298377E+02 -0.48234304501E+02  0.16043719889E+03  0.12509000000E+03 0.  0.
<mgrwt>
<rscale>  2 0.45060037E+03</rscale>
<asrwt>0</asrwt>
<pdfrwt beam="1">  1       21 0.25647765E-01 0.45060037E+03</pdfrwt>
<pdfrwt beam="2">  1       21 0.42801181E-01 0.45060037E+03</pdfrwt>
<totfact> 0.70193444E+04</totfact>
</mgrwt>
</event>
<event>
 7    0  0.4707675E-002  0.4558011E+03  0.7546771E-02  0.1026006E+00
         21   -1    0    0  502  501  0.00000000000E+00  0.00000000000E+00  0.56753399397E+03  0.56753399397E+03  0.00000000000E+00 0.  1.
         21   -1    0    0  501  502 -0.00000000000E+00 -0.00000000000E+00 -0.91516387301E+02  0.91516387301E+02  0.00000000000E+00 0.  1.
      99926    2    1    2    0    0  0.14210854715E-13  0.14210854715E-13  0.47601760667E+03  0.65905038127E+03  0.45580110048E+03 0.  0.
      99925    2    3    3    0    0  0.75240127308E+02  0.82430647625E+02  0.33231453517E+03  0.43824737114E+03  0.26300555051E+03 0.  0.
         25    1    3    3    0    0 -0.75240127308E+02 -0.82430647625E+02  0.14370307150E+03  0.22080301013E+03  0.12509000000E+03 0.  0.
         25    1    4    4    0    0  0.70868722705E+02  0.44054280454E+02  0.13898891783E+03  0.20476470122E+03  0.12509000000E+03 0.  0.
         25    1    4    4    0    0  0.43714046022E+01  0.38376367171E+02  0.19332561734E+03  0.23348266992E+03  0.12509000000E+03 0.  0.
<mgrwt>
<rscale>  2 0.45580110E+03</rscale>
<asrwt>0</asrwt>
<pdfrwt beam="1">  1       21 0.83460880E-01 0.45580110E+03</pdfrwt>
<pdfrwt beam="2">  1       21 0.13458293E-01 0.45580110E+03</pdfrwt>
<totfact> 0.54835536E+04</totfact>
</mgrwt>
</event>
<event>
 7    0  0.4707675E-002  0.4564460E+03  0.7546771E-02  0.1025817E+00
         21   -1    0    0  502  501  0.00000000000E+00  0.00000000000E+00  0.21930750374E+02  0.21930750374E+02  0.00000000000E+00 0.  1.
         21   -1    0    0  501  502 -0.00000000000E+00 -0.00000000000E+00 -0.23750092149E+04  0.23750092149E+04  0.00000000000E+00 0.  1.
      99926    2    1    2    0    0 -0.14210854715E-13  0.00000000000E+00 -0.23530784645E+04  0.23969399652E+04  0.45644598466E+03 0.  0.
      99925    2    3    3    0    0 -0.10319822763E+03  0.43094355505E+02 -0.16079411518E+04  0.16331441021E+04  0.26301694424E+03 0.  0.
         25    1    4    4    0    0 -0.50263238565E+02  0.38940130048E+02 -0.60627289833E+03  0.62229981700E+03  0.12509000000E+03 0.  0.
         25    1    3    3    0    0  0.10319822763E+03 -0.43094355505E+02 -0.74513731271E+03  0.76379586314E+03  0.12509000000E+03 0.  0.
         25    1    4    4    0    0 -0.52934989065E+02  0.41542254575E+01 -0.10016682535E+04  0.10108442851E+04  0.12509000000E+03 0.  0.
<mgrwt>
<rscale>  2 0.45644598E+03</rscale>
<asrwt>0</asrwt>
<pdfrwt beam="1">  1       21 0.32251136E-02 0.45644598E+03</pdfrwt>
<pdfrwt beam="2">  1       21 0.34926571E+00 0.45644598E+03</pdfrwt>
<totfact> 0.81524991E+03</totfact>
</mgrwt>
</event>
<event>
 7    0  0.4707675E-002  0.4552180E+03  0.7546771E-02  0.1026177E+00
         21   -1    0    0  502  501  0.00000000000E+00  0.00000000000E+00  0.14246723994E+03  0.14246723994E+03  0.00000000000E+00 0.  1.
         21   -1    0    0  501  502 -0.00000000000E+00 -0.00000000000E+00 -0.36363345761E+03  0.36363345761E+03  0.00000000000E+00 0.  1.
      99926    2    1    2    0    0  0.00000000000E+00  0.00000000000E+00 -0.22116621767E+03  0.50610069755E+03  0.45521799197E+03 0.  0.
      99925    2    3    3    0    0  0.16036788858E+02  0.10960592698E+03 -0.11263044782E+03  0.30685672834E+03  0.26306804467E+03 0.  0.
         25    1    4    4    0    0 -0.56676663359E+01  0.94372621481E+02 -0.73216512153E+02  0.17305051251E+03  0.12509000000E+03 0.  0.
         25    1    3    3    0    0 -0.16036788858E+02 -0.10960592698E+03 -0.10853576986E+03  0.19924396920E+03  0.12509000000E+03 0.  0.
         25    1    4    4    0    0  0.21704455194E+02  0.15233305496E+02 -0.39413935666E+02  0.13380621584E+03  0.12509000000E+03 0.  0.
<mgrwt>
<rscale>  2 0.45521799E+03</rscale>
<asrwt>0</asrwt>
<pdfrwt beam="1">  1       21 0.20951065E-01 0.45521799E+03</pdfrwt>
<pdfrwt beam="2">  1       21 0.53475508E-01 0.45521799E+03</pdfrwt>
<totfact> 0.64732086E+04</totfact>
</mgrwt>
</event>
<event>
 7    0  0.4707675E-002  0.4550469E+03  0.7546771E-02  0.1026228E+00
         21   -1    0    0  502  501  0.00000000000E+00  0.00000000000E+00  0.20731276005E+04  0.20731276005E+04  0.00000000000E+00 0. -1.
         21   -1    0    0  501  502 -0.00000000000E+00 -0.00000000000E+00 -0.24970440879E+02  0.24970440879E+02  0.00000000000E+00 0. -1.
      99926    2    1    2    0    0  0.00000000000E+00  0.00000000000E+00  0.20481571596E+04  0.20980980414E+04  0.45504685554E+03 0.  0.
      99925    2    3    3    0    0  0.16189593982E+02  0.29642402098E+02  0.17870140363E+04  0.18065778638E+04  0.26298980444E+03 0.  0.
         25    1    4    4    0    0 -0.24813333922E+02  0.43426971501E+01  0.72581526057E+03  0.73694630817E+03  0.12509000000E+03 0.  0.
         25    1    4    4    0    0  0.41002927904E+02  0.25299704948E+02  0.10611987757E+04  0.10696315556E+04  0.12509000000E+03 0.  0.
         25    1    3    3    0    0 -0.16189593982E+02 -0.29642402098E+02  0.26114312337E+03  0.29152017758E+03  0.12509000000E+03 0.  0.
<mgrwt>
<rscale>  2 0.45504686E+03</rscale>
<asrwt>0</asrwt>
<pdfrwt beam="1">  1       21 0.30487159E+00 0.45504686E+03</pdfrwt>
<pdfrwt beam="2">  1       21 0.36721251E-02 0.45504686E+03</pdfrwt>
<totfact> 0.12169062E+04</totfact>
</mgrwt>
</event>
<event>
 7    0  0.4707675E-002  0.4459747E+03  0.7546771E-02  0.1028929E+00
         21   -1    0    0  502  501  0.00000000000E+00  0.00000000000E+00  0.34357887287E+03  0.34357887287E+03  0.00000000000E+00 0.  1.
         21   -1    0    0  501  502 -0.00000000000E+00 -0.00000000000E+00 -0.14472181475E+03  0.14472181475E+03  0.00000000000E+00 0.  1.
      99926    2    1    2    0    0  0.14210854715E-13  0.14210854715E-13  0.19885705812E+03  0.48830068763E+03  0.44597469881E+03 0.  0.
      99925    2    3    3    0    0 -0.64058232749E+02 -0.69550692438E+02  0.17583817269E+03  0.32981367495E+03  0.26252093480E+03 0.  0.
         25    1    3    3    0    0  0.64058232749E+02  0.69550692438E+02  0.23018885426E+02  0.15848701268E+03  0.12509000000E+03 0.  0.
         25    1    4    4    0    0 -0.14491789561E+02 -0.64512814511E+00  0.60726466720E+02  0.13980572240E+03  0.12509000000E+03 0.  0.
         25    1    4    4    0    0 -0.49566443187E+02 -0.68905564293E+02  0.11511170597E+03  0.19000795255E+03  0.12509000000E+03 0.  0.
<mgrwt>
<rscale>  2 0.44597470E+03</rscale>
<asrwt>0</asrwt>
<pdfrwt beam="1">  1       21 0.50526305E-01 0.44597470E+03</pdfrwt>
<pdfrwt beam="2">  1       21 0.21282620E-01 0.44597470E+03</pdfrwt>
<totfact> 0.71056905E+04</totfact>
</mgrwt>
</event>
<event>
 7    0  0.4707675E-002  0.4525826E+03  0.7546771E-02  0.1026955E+00
         21   -1    0    0  502  501  0.00000000000E+00  0.00000000000E+00  0.36770243609E+02  0.36770243609E+02  0.00000000000E+00 0.  1.
         21   -1    0    0  501  502 -0.00000000000E+00 -0.00000000000E+00 -0.13926408527E+04  0.13926408527E+04  0.00000000000E+00 0.  1.
      99926    2    1    2    0    0  0.00000000000E+00  0.00000000000E+00 -0.13558706091E+04  0.14294110963E+04  0.45258256004E+03 0.  0.
      99925    2    3    3    0    0  0.45848870234E+02 -0.92626204269E+02 -0.98213102066E+03  0.10219672098E+04  0.26297129781E+03 0.  0.
         25    1    3    3    0    0 -0.45848870234E+02  0.92626204269E+02 -0.37373958840E+03  0.40744388651E+03  0.12509000000E+03 0.  0.
         25    1    4    4    0    0 -0.20779746665E+01 -0.56650919171E+02 -0.59781724725E+03  0.61338944712E+03  0.12509000000E+03 0.  0.
         25    1    4    4    0    0  0.47926844901E+02 -0.35975285097E+02 -0.38431377341E+03  0.40857776265E+03  0.12509000000E+03 0.  0.
<mgrwt>
<rscale>  2 0.45258256E+03</rscale>
<asrwt>0</asrwt>
<pdfrwt beam="1">  1       21 0.54073895E-02 0.45258256E+03</pdfrwt>
<pdfrwt beam="2">  1       21 0.20480010E+00 0.45258256E+03</pdfrwt>
<totfact> 0.26044504E+04</totfact>
</mgrwt>
</event>
<event>
 7    0  0.4707675E-002  0.4525873E+03  0.7546771E-02  0.1026953E+00
         21   -1    0    0  502  501  0.00000000000E+00  0.00000000000E+00  0.35607557631E+03  0.35607557631E+03  0.00000000000E+00 0.  1.
         21   -1    0    0  501  502 -0.00000000000E+00 -0.00000000000E+00 -0.14381446193E+03  0.14381446193E+03  0.00000000000E+00 0.  1.
      99926    2    1    2    0    0  0.71054273576E-14 -0.14210854715E-13  0.21226111438E+03  0.49989003824E+03  0.45258730611E+03 0.  0.
      99925    2    3    3    0    0  0.33474663239E+02 -0.10534273313E+03  0.12239743323E+03  0.31030988687E+03  0.26285632906E+03 0.  0.
         25    1    3    3    0    0 -0.33474663239E+02  0.10534273313E+03  0.89863681149E+02  0.18958015137E+03  0.12509000000E+03 0.  0.
         25    1    4    4    0    0  0.28862032336E+02 -0.20609596529E+02  0.82466047507E+02  0.15396730001E+03  0.12509000000E+03 0.  0.
         25    1    4    4    0    0  0.46126309032E+01 -0.84733136599E+02  0.39931385726E+02  0.15634258687E+03  0.12509000000E+03 0.  0.
<mgrwt>
<rscale>  2 0.45258731E+03</rscale>
<asrwt>0</asrwt>
<pdfrwt beam="1">  1       21 0.52364055E-01 0.45258731E+03</pdfrwt>
<pdfrwt beam="2">  1       21 0.21149186E-01 0.45258731E+03</pdfrwt>
<totfact> 0.66543708E+04</totfact>
</mgrwt>
</event>
<event>
 7    0  0.4707675E-002  0.4572906E+03  0.7546771E-02  0.1025570E+00
         21   -1    0    0  502  501  0.00000000000E+00  0.00000000000E+00  0.57506307726E+02  0.57506307726E+02  0.00000000000E+00 0.  1.
         21   -1    0    0  501  502 -0.00000000000E+00 -0.00000000000E+00 -0.90909477396E+03  0.90909477396E+03  0.00000000000E+00 0.  1.
      99926    2    1    2    0    0  0.35527136788E-14  0.00000000000E+00 -0.85158846623E+03  0.96660108169E+03  0.45729064641E+03 0.  0.
      99925    2    3    3    0    0 -0.20030111765E+02  0.92235786950E+02 -0.39499723010E+03  0.48386750011E+03  0.26305189621E+03 0.  0.
         25    1    4    4    0    0 -0.31398970460E+02  0.78086592914E+02 -0.24546630122E+03  0.28807051997E+03  0.12509000000E+03 0.  0.
         25    1    4    4    0    0  0.11368858694E+02  0.14149194036E+02 -0.14953092888E+03  0.19579698014E+03  0.12509000000E+03 0.  0.
         25    1    3    3    0    0  0.20030111765E+02 -0.92235786950E+02 -0.45659123613E+03  0.48273358158E+03  0.12509000000E+03 0.  0.
<mgrwt>
<rscale>  2 0.45729065E+03</rscale>
<asrwt>0</asrwt>
<pdfrwt beam="1">  1       21 0.84568110E-02 0.45729065E+03</pdfrwt>
<pdfrwt beam="2">  1       21 0.13369039E+00 0.45729065E+03</pdfrwt>
<totfact> 0.39758989E+04</totfact>
</mgrwt>
</event>
<event>
 7    0  0.4707675E-002  0.4442904E+03  0.7546771E-02  0.1029439E+00
         21   -1    0    0  502  501  0.00000000000E+00  0.00000000000E+00  0.30039443384E+02  0.30039443384E+02  0.00000000000E+00 0.  1.
         21   -1    0    0  501  502 -0.00000000000E+00 -0.00000000000E+00 -0.16427894501E+04  0.16427894501E+04  0.00000000000E+00 0.  1.
      99926    2    1    2    0    0  0.35527136788E-14  0.00000000000E+00 -0.16127500067E+04  0.16728288935E+04  0.44429035856E+03 0.  0.
      99925    2    3    3    0    0 -0.24725310327E+02  0.23555359687E+02 -0.13901242135E+04  0.14151935934E+04  0.26298551653E+03 0.  0.
         25    1    4    4    0    0  0.20933817969E+02 -0.68176674573E+01 -0.59261159448E+03  0.60606989311E+03  0.12509000000E+03 0.  0.
         25    1    4    4    0    0 -0.45659128295E+02  0.30373027144E+02 -0.79751261906E+03  0.80912370033E+03  0.12509000000E+03 0.  0.
         25    1    3    3    0    0  0.24725310327E+02 -0.23555359687E+02 -0.22262579318E+03  0.25763530004E+03  0.12509000000E+03 0.  0.
<mgrwt>
<rscale>  2 0.44429036E+03</rscale>
<asrwt>0</asrwt>
<pdfrwt beam="1">  1       21 0.44175631E-02 0.44429036E+03</pdfrwt>
<pdfrwt beam="2">  1       21 0.24158680E+00 0.44429036E+03</pdfrwt>
<totfact> 0.21571789E+04</totfact>
</mgrwt>
</event>
<event>
 7    0  0.4707675E-002  0.4675924E+03  0.7546771E-02  0.1022602E+00
         21   -1    0    0  502  501  0.00000000000E+00  0.00000000000E+00  0.52661479464E+03  0.52661479464E+03  0.00000000000E+00 0. -1.
         21   -1    0    0  501  502 -0.00000000000E+00 -0.00000000000E+00 -0.10379628098E+03  0.10379628098E+03  0.00000000000E+00 0. -1.
      99926    2    1    2    0    0 -0.14210854715E-13  0.00000000000E+00  0.42281851366E+03  0.63041107562E+03  0.46759237458E+03 0.  0.
      99925    2    3    3    0    0 -0.11566808527E+03  0.46216411370E+02  0.25805138394E+03  0.38893482882E+03  0.26299186620E+03 0.  0.
         25    1    4    4    0    0 -0.61388951878E+02 -0.12957952153E+02  0.10023436846E+03  0.17213642455E+03  0.12509000000E+03 0.  0.
         25    1    3    3    0    0  0.11566808527E+03 -0.46216411370E+02  0.16476712972E+03  0.24147624680E+03  0.12509000000E+03 0.  0.
         25    1    4    4    0    0 -0.54279133392E+02  0.59174363524E+02  0.15781701548E+03  0.21679840427E+03  0.12509000000E+03 0.  0.
<mgrwt>
<rscale>  2 0.46759237E+03</rscale>
<asrwt>0</asrwt>
<pdfrwt beam="1">  1       21 0.77443351E-01 0.46759237E+03</pdfrwt>
<pdfrwt beam="2">  1       21 0.15264159E-01 0.46759237E+03</pdfrwt>
<totfact> 0.51527605E+04</totfact>
</mgrwt>
</event>
<event>
 7    0  0.4707675E-002  0.4563520E+03  0.7546771E-02  0.1025845E+00
         21   -1    0    0  502  501  0.00000000000E+00  0.00000000000E+00  0.61519654799E+02  0.61519654799E+02  0.00000000000E+00 0. -1.
         21   -1    0    0  501  502 -0.00000000000E+00 -0.00000000000E+00 -0.84630316623E+03  0.84630316623E+03  0.00000000000E+00 0. -1.
      99926    2    1    2    0    0 -0.17763568394E-14  0.00000000000E+00 -0.78478351143E+03  0.90782282103E+03  0.45635196347E+03 0.  0.
      99925    2    3    3    0    0  0.14478069986E+02  0.10135987201E+03 -0.59435279936E+03  0.65803330491E+03  0.26319031535E+03 0.  0.
         25    1    3    3    0    0 -0.14478069986E+02 -0.10135987201E+03 -0.19043071207E+03  0.24978951612E+03  0.12509000000E+03 0.  0.
         25    1    4    4    0    0 -0.14987012681E+02  0.86927515805E+02 -0.32605767146E+03  0.36019733032E+03  0.12509000000E+03 0.  0.
         25    1    4    4    0    0  0.29465082668E+02  0.14432356206E+02 -0.26829512790E+03  0.29783597459E+03  0.12509000000E+03 0.  0.
<mgrwt>
<rscale>  2 0.45635196E+03</rscale>
<asrwt>0</asrwt>
<pdfrwt beam="1">  1       21 0.90470081E-02 0.45635196E+03</pdfrwt>
<pdfrwt beam="2">  1       21 0.12445635E+00 0.45635196E+03</pdfrwt>
<totfact> 0.42446182E+04</totfact>
</mgrwt>
</event>
<event>
 7    0  0.4707675E-002  0.4589171E+03  0.7546771E-02  0.1025096E+00
         21   -1    0    0  502  501  0.00000000000E+00  0.00000000000E+00  0.12004105965E+03  0.12004105965E+03  0.00000000000E+00 0. -1.
         21   -1    0    0  501  502 -0.00000000000E+00 -0.00000000000E+00 -0.43861022249E+03  0.43861022249E+03  0.00000000000E+00 0. -1.
      99926    2    1    2    0    0  0.00000000000E+00 -0.71054273576E-14 -0.31856916284E+03  0.55865128214E+03  0.45891714233E+03 0.  0.
      99925    2    3    3    0    0  0.60236020557E+02 -0.45907030631E+02 -0.30795569290E+03  0.41203618238E+03  0.26306134868E+03 0.  0.
         25    1    4    4    0    0  0.29981697827E+02 -0.64128284405E+02 -0.15845045529E+03  0.21392847858E+03  0.12509000000E+03 0.  0.
         25    1    4    4    0    0  0.30254322730E+02  0.18221253774E+02 -0.14950523761E+03  0.19810770380E+03  0.12509000000E+03 0.  0.
         25    1    3    3    0    0 -0.60236020557E+02  0.45907030631E+02 -0.10613469944E+02  0.14661509976E+03  0.12509000000E+03 0.  0.
<mgrwt>
<rscale>  2 0.45891714E+03</rscale>
<asrwt>0</asrwt>
<pdfrwt beam="1">  1       21 0.17653097E-01 0.45891714E+03</pdfrwt>
<pdfrwt beam="2">  1       21 0.64501503E-01 0.45891714E+03</pdfrwt>
<totfact> 0.59435271E+04</totfact>
</mgrwt>
</event>
<event>
 7    0  0.4707675E-002  0.4590788E+03  0.7546771E-02  0.1025049E+00
         21   -1    0    0  502  501  0.00000000000E+00  0.00000000000E+00  0.24543686350E+03  0.24543686350E+03  0.00000000000E+00 0.  1.
         21   -1    0    0  501  502 -0.00000000000E+00 -0.00000000000E+00 -0.21467166131E+03  0.21467166131E+03  0.00000000000E+00 0.  1.
      99926    2    1    2    0    0  0.00000000000E+00  0.00000000000E+00  0.30765202194E+02  0.46010852481E+03  0.45907881342E+03 0.  0.
      99925    2    3    3    0    0 -0.47079968395E+02 -0.47272476957E+02 -0.76992793712E+02  0.28203409014E+03  0.26299073598E+03 0.  0.
         25    1    4    4    0    0  0.14740873714E+02 -0.79354403403E+01 -0.40429311268E+02  0.13252283532E+03  0.12509000000E+03 0.  0.
         25    1    4    4    0    0 -0.61820842109E+02 -0.39337036617E+02 -0.36563482444E+02  0.14951125482E+03  0.12509000000E+03 0.  0.
         25    1    3    3    0    0  0.47079968395E+02  0.47272476957E+02  0.10775799591E+03  0.17807443467E+03  0.12509000000E+03 0.  0.
<mgrwt>
<rscale>  2 0.45907881E+03</rscale>
<asrwt>0</asrwt>
<pdfrwt beam="1">  1       21 0.36093656E-01 0.45907881E+03</pdfrwt>
<pdfrwt beam="2">  1       21 0.31569362E-01 0.45907881E+03</pdfrwt>
<totfact> 0.65999028E+04</totfact>
</mgrwt>
</event>
<event>
 7    0  0.4707675E-002  0.4588668E+03  0.7546771E-02  0.1025110E+00
         21   -1    0    0  502  501  0.00000000000E+00  0.00000000000E+00  0.32836481925E+03  0.32836481925E+03  0.00000000000E+00 0.  1.
         21   -1    0    0  501  502 -0.00000000000E+00 -0.00000000000E+00 -0.16030854579E+03  0.16030854579E+03  0.00000000000E+00 0.  1.
      99926    2    1    2    0    0  0.00000000000E+00  0.00000000000E+00  0.16805627346E+03  0.48867336504E+03  0.45886680709E+03 0.  0.
      99925    2    3    3    0    0  0.95662068702E+02  0.50491733827E+02  0.15236150066E+03  0.32255750016E+03  0.26292331097E+03 0.  0.
         25    1    4    4    0    0  0.33445432249E+02  0.26547439518E+02  0.11687211545E+03  0.17643685259E+03  0.12509000000E+03 0.  0.
         25    1    3    3    0    0 -0.95662068702E+02 -0.50491733827E+02  0.15694772796E+02  0.16611586488E+03  0.12509000000E+03 0.  0.
         25    1    4    4    0    0  0.62216636453E+02  0.23944294310E+02  0.35489385214E+02  0.14612064756E+03  0.12509000000E+03 0.  0.
<mgrwt>
<rscale>  2 0.45886681E+03</rscale>
<asrwt>0</asrwt>
<pdfrwt beam="1">  1       21 0.48288944E-01 0.45886681E+03</pdfrwt>
<pdfrwt beam="2">  1       21 0.23574786E-01 0.45886681E+03</pdfrwt>
<totfact> 0.64084087E+04</totfact>
</mgrwt>
</event>
<event>
 7    0  0.4707675E-002  0.4681373E+03  0.7546771E-02  0.1022447E+00
         21   -1    0    0  502  501  0.00000000000E+00  0.00000000000E+00  0.50038781496E+03  0.50038781496E+03  0.00000000000E+00 0. -1.
         21   -1    0    0  501  502 -0.00000000000E+00 -0.00000000000E+00 -0.10949135874E+03  0.10949135874E+03  0.00000000000E+00 0. -1.
      99926    2    1    2    0    0  0.14210854715E-13  0.00000000000E+00  0.39089645622E+03  0.60987917370E+03  0.46813733779E+03 0.  0.
      99925    2    3    3    0    0  0.10853341549E+03 -0.48239017969E+02  0.19191736893E+03  0.34654157591E+03  0.26296821520E+03 0.  0.
         25    1    4    4    0    0  0.43939217934E+02 -0.11230462684E+02  0.46936583536E+02  0.14109333485E+03  0.12509000000E+03 0.  0.
         25    1    3    3    0    0 -0.10853341549E+03  0.48239017969E+02  0.19897908729E+03  0.26333759779E+03  0.12509000000E+03 0.  0.
         25    1    4    4    0    0  0.64594197552E+02 -0.37008555286E+02  0.14498078539E+03  0.20544824106E+03  0.12509000000E+03 0.  0.
<mgrwt>
<rscale>  2 0.46813734E+03</rscale>
<asrwt>0</asrwt>
<pdfrwt beam="1">  1       21 0.73586442E-01 0.46813734E+03</pdfrwt>
<pdfrwt beam="2">  1       21 0.16101671E-01 0.46813734E+03</pdfrwt>
<totfact> 0.52418778E+04</totfact>
</mgrwt>
</event>
<event>
 7    0  0.4707675E-002  0.4557607E+03  0.7546771E-02  0.1026018E+00
         21   -1    0    0  502  501  0.00000000000E+00  0.00000000000E+00  0.22617229775E+03  0.22617229775E+03  0.00000000000E+00 0. -1.
         21   -1    0    0  501  502 -0.00000000000E+00 -0.00000000000E+00 -0.22960134450E+03  0.22960134450E+03  0.00000000000E+00 0. -1.
      99926    2    1    2    0    0  0.14210854715E-13  0.00000000000E+00 -0.34290467513E+01  0.45577364225E+03  0.45576074272E+03 0.  0.
      99925    2    3    3    0    0  0.76614197309E+02  0.82467067325E+02 -0.24676298123E+02  0.28615788174E+03  0.26192911478E+03 0.  0.
         25    1    4    4    0    0  0.72463555611E+02  0.22637856222E+02 -0.15163146590E+02  0.14710835646E+03  0.12509000000E+03 0.  0.
         25    1    4    4    0    0  0.41506416977E+01  0.59829211102E+02 -0.95131515330E+01  0.13904952528E+03  0.12509000000E+03 0.  0.
         25    1    3    3    0    0 -0.76614197309E+02 -0.82467067325E+02  0.21247251371E+02  0.16961576051E+03  0.12509000000E+03 0.  0.
<mgrwt>
<rscale>  2 0.45576074E+03</rscale>
<asrwt>0</asrwt>
<pdfrwt beam="1">  1       21 0.33260632E-01 0.45576074E+03</pdfrwt>
<pdfrwt beam="2">  1       21 0.33764903E-01 0.45576074E+03</pdfrwt>
<totfact> 0.68075001E+04</totfact>
</mgrwt>
</event>
<event>
 7    0  0.4707675E-002  0.4554022E+03  0.7546771E-02  0.1026123E+00
         21   -1    0    0  502  501  0.00000000000E+00  0.00000000000E+00  0.61244460489E+03  0.61244460489E+03  0.00000000000E+00 0. -1.
         21   -1    0    0  501  502 -0.00000000000E+00 -0.00000000000E+00 -0.84657098106E+02  0.84657098106E+02  0.00000000000E+00 0. -1.
      99926    2    1    2    0    0  0.00000000000E+00  0.00000000000E+00  0.52778750679E+03  0.69710170300E+03  0.45540216513E+03 0.  0.
      99925    2    3    3    0    0  0.43217458416E+02  0.10349766773E+03  0.30302421221E+03  0.41648530536E+03  0.26278664436E+03 0.  0.
         25    1    3    3    0    0 -0.43217458416E+02 -0.10349766773E+03  0.22476329457E+03  0.28061639764E+03  0.12509000000E+03 0.  0.
         25    1    4    4    0    0  0.31905175550E+02  0.90489779020E+02  0.14486647570E+03  0.21410311585E+03  0.12509000000E+03 0.  0.
         25    1    4    4    0    0  0.11312282866E+02  0.13007888706E+02  0.15815773652E+03  0.20238218951E+03  0.12509000000E+03 0.  0.
<mgrwt>
<rscale>  2 0.45540217E+03</rscale>
<asrwt>0</asrwt>
<pdfrwt beam="1">  1       21 0.90065381E-01 0.45540217E+03</pdfrwt>
<pdfrwt beam="2">  1       21 0.12449574E-01 0.45540217E+03</pdfrwt>
<totfact> 0.52892996E+04</totfact>
</mgrwt>
</event>
<event>
 7    0  0.4707675E-002  0.4482056E+03  0.7546771E-02  0.1028259E+00
         21   -1    0    0  502  501  0.00000000000E+00  0.00000000000E+00  0.25463534146E+03  0.25463534146E+03  0.00000000000E+00 0. -1.
         21   -1    0    0  501  502 -0.00000000000E+00 -0.00000000000E+00 -0.19723130770E+03  0.19723130770E+03  0.00000000000E+00 0. -1.
      99926    2    1    2    0    0  0.00000000000E+00  0.14210854715E-13  0.57404033763E+02  0.45186664916E+03  0.44820558401E+03 0.  0.
      99925    2    3    3    0    0 -0.23475919158E+01 -0.10651563019E+03  0.31797078839E+02  0.28557078360E+03  0.26303712202E+03 0.  0.
         25    1    4    4    0    0  0.87422929804E+00 -0.55647156354E+02  0.56753572319E+02  0.14820879312E+03  0.12509000000E+03 0.  0.
         25    1    3    3    0    0  0.23475919158E+01  0.10651563019E+03  0.25606954925E+02  0.16629586556E+03  0.12509000000E+03 0.  0.
         25    1    4    4    0    0 -0.32218212138E+01 -0.50868473836E+02 -0.24956493480E+02  0.13736199048E+03  0.12509000000E+03 0.  0.
<mgrwt>
<rscale>  2 0.44820558E+03</rscale>
<asrwt>0</asrwt>
<pdfrwt beam="1">  1       21 0.37446374E-01 0.44820558E+03</pdfrwt>
<pdfrwt beam="2">  1       21 0.29004604E-01 0.44820558E+03</pdfrwt>
<totfact> 0.72633959E+04</totfact>
</mgrwt>
</event>
<event>
 7    0  0.4707675E-002  0.4488949E+03  0.7546771E-02  0.1028052E+00
         21   -1    0    0  502  501  0.00000000000E+00  0.00000000000E+00  0.89696275458E+03  0.89696275458E+03  0.00000000000E+00 0.  1.
         21   -1    0    0  501  502 -0.00000000000E+00 -0.00000000000E+00 -0.56163603627E+02  0.56163603627E+02  0.00000000000E+00 0.  1.
      99926    2    1    2    0    0  0.00000000000E+00 -0.71054273576E-14  0.84079915096E+03  0.95312635821E+03  0.44889491250E+03 0.  0.
      99925    2    3    3    0    0  0.82005397033E+02 -0.57935393067E+02  0.61237023126E+03  0.67400510434E+03  0.26306688431E+03 0.  0.
         25    1    4    4    0    0  0.26463560900E+02 -0.54089652965E+02  0.24001197255E+03  0.27727110502E+03  0.12509000000E+03 0.  0.
         25    1    3    3    0    0 -0.82005397033E+02  0.57935393067E+02  0.22842891969E+03  0.27912125388E+03  0.12509000000E+03 0.  0.
         25    1    4    4    0    0  0.55541836134E+02 -0.38457401017E+01  0.37235825871E+03  0.39673399931E+03  0.12509000000E+03 0.  0.
<mgrwt>
<rscale>  2 0.44889491E+03</rscale>
<asrwt>0</asrwt>
<pdfrwt beam="1">  1       21 0.13190628E+00 0.44889491E+03</pdfrwt>
<pdfrwt beam="2">  1       21 0.82593540E-02 0.44889491E+03</pdfrwt>
<totfact> 0.43032335E+04</totfact>
</mgrwt>
</event>
<event>
 7    0  0.4707675E-002  0.4587642E+03  0.7546771E-02  0.1025140E+00
         21   -1    0    0  502  501  0.00000000000E+00  0.00000000000E+00  0.57910832430E+02  0.57910832430E+02  0.00000000000E+00 0.  1.
         21   -1    0    0  501  502 -0.00000000000E+00 -0.00000000000E+00 -0.90857182093E+03  0.90857182093E+03  0.00000000000E+00 0.  1.
      99926    2    1    2    0    0  0.71054273576E-14  0.00000000000E+00 -0.85066098850E+03  0.96648265336E+03  0.45876421165E+03 0.  0.
      99925    2    3    3    0    0  0.62887228023E+02 -0.65138578346E+02 -0.68825797280E+03  0.74238426996E+03  0.26313025161E+03 0.  0.
         25    1    3    3    0    0 -0.62887228023E+02  0.65138578346E+02 -0.16240301569E+03  0.22409838340E+03  0.12509000000E+03 0.  0.
         25    1    4    4    0    0  0.14863895736E+02  0.24443393290E+01 -0.36107998709E+03  0.38243061511E+03  0.12509000000E+03 0.  0.
         25    1    4    4    0    0  0.48023332288E+02 -0.67582917675E+02 -0.32717798571E+03  0.35995365485E+03  0.12509000000E+03 0.  0.
<mgrwt>
<rscale>  2 0.45876421E+03</rscale>
<asrwt>0</asrwt>
<pdfrwt beam="1">  1       21 0.85162993E-02 0.45876421E+03</pdfrwt>
<pdfrwt beam="2">  1       21 0.13361350E+00 0.45876421E+03</pdfrwt>
<totfact> 0.39310786E+04</totfact>
</mgrwt>
</event>
<event>
 7    0  0.4707675E-002  0.4569913E+03  0.7546771E-02  0.1025657E+00
         21   -1    0    0  502  501  0.00000000000E+00  0.00000000000E+00  0.57190220768E+02  0.57190220768E+02  0.00000000000E+00 0.  1.
         21   -1    0    0  501  502 -0.00000000000E+00 -0.00000000000E+00 -0.91292290959E+03  0.91292290959E+03  0.00000000000E+00 0.  1.
      99926    2    1    2    0    0  0.14210854715E-13  0.00000000000E+00 -0.85573268882E+03  0.97011313035E+03  0.45699130295E+03 0.  0.
      99925    2    3    3    0    0 -0.74389866799E+02 -0.82150588637E+02 -0.60303763850E+03  0.66715295467E+03  0.26297547410E+03 0.  0.
         25    1    4    4    0    0 -0.75741586183E+02 -0.61104134476E+02 -0.32992448926E+03  0.36601663875E+03  0.12509000000E+03 0.  0.
         25    1    3    3    0    0  0.74389866799E+02  0.82150588637E+02 -0.25269505032E+03  0.30296017569E+03  0.12509000000E+03 0.  0.
         25    1    4    4    0    0  0.13517193839E+01 -0.21046454161E+02 -0.27311314924E+03  0.30113631592E+03  0.12509000000E+03 0.  0.
<mgrwt>
<rscale>  2 0.45699130E+03</rscale>
<asrwt>0</asrwt>
<pdfrwt beam="1">  1       21 0.84103264E-02 0.45699130E+03</pdfrwt>
<pdfrwt beam="2">  1       21 0.13425337E+00 0.45699130E+03</pdfrwt>
<totfact> 0.39715037E+04</totfact>
</mgrwt>
</event>
<event>
 7    0  0.4707675E-002  0.4612445E+03  0.7546771E-02  0.1024421E+00
         21   -1    0    0  502  501  0.00000000000E+00  0.00000000000E+00  0.22449300886E+03  0.22449300886E+03  0.00000000000E+00 0. -1.
         21   -1    0    0  501  502 -0.00000000000E+00 -0.00000000000E+00 -0.23691883220E+03  0.23691883220E+03  0.00000000000E+00 0. -1.
      99926    2    1    2    0    0  0.44408920985E-15  0.00000000000E+00 -0.12425823339E+02  0.46141184106E+03  0.46124449697E+03 0.  0.
      99925    2    3    3    0    0 -0.12697455198E+01 -0.45362853429E+02 -0.11775115837E+03  0.29170522651E+03  0.26299658391E+03 0.  0.
         25    1    3    3    0    0  0.12697455198E+01  0.45362853429E+02  0.10532533503E+03  0.16970661456E+03  0.12509000000E+03 0.  0.
         25    1    4    4    0    0  0.18353019725E+02 -0.13068089672E+02 -0.20341775142E+02  0.12872025566E+03  0.12509000000E+03 0.  0.
         25    1    4    4    0    0 -0.19622765245E+02 -0.32294763757E+02 -0.97409383228E+02  0.16298497085E+03  0.12509000000E+03 0.  0.
<mgrwt>
<rscale>  2 0.46124450E+03</rscale>
<asrwt>0</asrwt>
<pdfrwt beam="1">  1       21 0.33013678E-01 0.46124450E+03</pdfrwt>
<pdfrwt beam="2">  1       21 0.34841005E-01 0.46124450E+03</pdfrwt>
<totfact> 0.64789814E+04</totfact>
</mgrwt>
</event>
<event>
 7    0  0.4707675E-002  0.4466341E+03  0.7546771E-02  0.1028731E+00
         21   -1    0    0  502  501  0.00000000000E+00  0.00000000000E+00  0.50439152092E+02  0.50439152092E+02  0.00000000000E+00 0.  1.
         21   -1    0    0  501  502 -0.00000000000E+00 -0.00000000000E+00 -0.98872594318E+03  0.98872594318E+03  0.00000000000E+00 0.  1.
      99926    2    1    2    0    0  0.00000000000E+00 -0.71054273576E-14 -0.93828679109E+03  0.10391650953E+04  0.44663407047E+03 0.  0.
      99925    2    3    3    0    0 -0.33983087939E+02 -0.39614310057E+02 -0.80731940962E+03  0.85068669615E+03  0.26301916666E+03 0.  0.
         25    1    4    4    0    0  0.23619444246E+01 -0.55594253321E+02 -0.41172979361E+03  0.43389541463E+03  0.12509000000E+03 0.  0.
         25    1    4    4    0    0 -0.36345032364E+02  0.15979943264E+02 -0.39558961600E+03  0.41679128152E+03  0.12509000000E+03 0.  0.
         25    1    3    3    0    0  0.33983087939E+02  0.39614310057E+02 -0.13096738147E+03  0.18847839913E+03  0.12509000000E+03 0.  0.
<mgrwt>
<rscale>  2 0.44663407E+03</rscale>
<asrwt>0</asrwt>
<pdfrwt beam="1">  1       21 0.74175231E-02 0.44663407E+03</pdfrwt>
<pdfrwt beam="2">  1       21 0.14540086E+00 0.44663407E+03</pdfrwt>
<totfact> 0.40241964E+04</totfact>
</mgrwt>
</event>
<event>
 7    0  0.4707675E-002  0.4568127E+03  0.7546771E-02  0.1025710E+00
         21   -1    0    0  502  501  0.00000000000E+00  0.00000000000E+00  0.30239320071E+03  0.30239320071E+03  0.00000000000E+00 0.  1.
         21   -1    0    0  501  502 -0.00000000000E+00 -0.00000000000E+00 -0.17252195316E+03  0.17252195316E+03  0.00000000000E+00 0.  1.
      99926    2    1    2    0    0  0.00000000000E+00  0.14210854715E-13  0.12987124754E+03  0.47491515387E+03  0.45681272140E+03 0.  0.
      99925    2    3    3    0    0 -0.11080310323E+02 -0.11082894610E+03  0.11065306657E+03  0.30632489570E+03  0.26303043932E+03 0.  0.
         25    1    4    4    0    0  0.31169922806E+02 -0.37071986946E+02  0.45440643333E+02  0.14162717419E+03  0.12509000000E+03 0.  0.
         25    1    3    3    0    0  0.11080310323E+02  0.11082894610E+03  0.19218180971E+02  0.16859025817E+03  0.12509000000E+03 0.  0.
         25    1    4    4    0    0 -0.42250233129E+02 -0.73756959156E+02  0.65212423239E+02  0.16469772150E+03  0.12509000000E+03 0.  0.
<mgrwt>
<rscale>  2 0.45681272E+03</rscale>
<asrwt>0</asrwt>
<pdfrwt beam="1">  1       21 0.44469588E-01 0.45681272E+03</pdfrwt>
<pdfrwt beam="2">  1       21 0.25370875E-01 0.45681272E+03</pdfrwt>
<totfact> 0.66115986E+04</totfact>
</mgrwt>
</event>
<event>
 7    0  0.4707675E-002  0.4582873E+03  0.7546771E-02  0.1025279E+00
         21   -1    0    0  502  501  0.00000000000E+00  0.00000000000E+00  0.23510913878E+03  0.23510913878E+03  0.00000000000E+00 0. -1.
         21   -1    0    0  501  502 -0.00000000000E+00 -0.00000000000E+00 -0.22332955950E+03  0.22332955950E+03  0.00000000000E+00 0. -1.
      99926    2    1    2    0    0 -0.14210854715E-13  0.00000000000E+00  0.11779579273E+02  0.45843869828E+03  0.45828733519E+03 0.  0.
      99925    2    3    3    0    0 -0.76575104085E+02 -0.30120667765E+02 -0.73955734269E+02  0.28590159131E+03  0.26362713838E+03 0.  0.
         25    1    3    3    0    0  0.76575104085E+02  0.30120667765E+02  0.85735313541E+02  0.17253710697E+03  0.12509000000E+03 0.  0.
         25    1    4    4    0    0 -0.75353826520E+02 -0.10491850963E+02 -0.18175463970E+02  0.14753350026E+03  0.12509000000E+03 0.  0.
         25    1    4    4    0    0 -0.12212775643E+01 -0.19628816802E+02 -0.55780270298E+02  0.13836809106E+03  0.12509000000E+03 0.  0.
<mgrwt>
<rscale>  2 0.45828734E+03</rscale>
<asrwt>0</asrwt>
<pdfrwt beam="1">  1       21 0.34574873E-01 0.45828734E+03</pdfrwt>
<pdfrwt beam="2">  1       21 0.32842582E-01 0.45828734E+03</pdfrwt>
<totfact> 0.66532309E+04</totfact>
</mgrwt>
</event>
<event>
 7    0  0.4707675E-002  0.4405025E+03  0.7546771E-02  0.1030593E+00
         21   -1    0    0  502  501  0.00000000000E+00  0.00000000000E+00  0.23237215703E+03  0.23237215703E+03  0.00000000000E+00 0.  1.
         21   -1    0    0  501  502 -0.00000000000E+00 -0.00000000000E+00 -0.20876256216E+03  0.20876256216E+03  0.00000000000E+00 0.  1.
      99926    2    1    2    0    0  0.00000000000E+00 -0.14210854715E-13  0.23609594867E+02  0.44113471919E+03  0.44050247162E+03 0.  0.
      99925    2    3    3    0    0 -0.55738619431E+02  0.76553328182E+02 -0.14249618741E+02  0.27974068613E+03  0.26283948351E+03 0.  0.
         25    1    4    4    0    0 -0.24120969055E+02 -0.12188492737E+01  0.70314865090E+01  0.12759410897E+03  0.12509000000E+03 0.  0.
         25    1    4    4    0    0 -0.31617650376E+02  0.77772177456E+02 -0.21281105250E+02  0.15214657716E+03  0.12509000000E+03 0.  0.
         25    1    3    3    0    0  0.55738619431E+02 -0.76553328182E+02  0.37859213608E+02  0.16139403306E+03  0.12509000000E+03 0.  0.
<mgrwt>
<rscale>  2 0.44050247E+03</rscale>
<asrwt>0</asrwt>
<pdfrwt beam="1">  1       21 0.34172376E-01 0.44050247E+03</pdfrwt>
<pdfrwt beam="2">  1       21 0.30700377E-01 0.44050247E+03</pdfrwt>
<totfact> 0.78239864E+04</totfact>
</mgrwt>
</event>
<event>
 7    0  0.4707675E-002  0.4489400E+03  0.7546771E-02  0.1028039E+00
         21   -1    0    0  502  501  0.00000000000E+00  0.00000000000E+00  0.51579643847E+03  0.51579643847E+03  0.00000000000E+00 0.  1.
         21   -1    0    0  501  502 -0.00000000000E+00 -0.00000000000E+00 -0.97687334877E+02  0.97687334877E+02  0.00000000000E+00 0.  1.
      99926    2    1    2    0    0  0.14210854715E-13  0.00000000000E+00  0.41810910359E+03  0.61348377335E+03  0.44893999338E+03 0.  0.
      99925    2    3    3    0    0 -0.10509904801E+03 -0.18588077983E+02  0.24831715610E+03  0.37711935118E+03  0.26299480695E+03 0.  0.
         25    1    3    3    0    0  0.10509904801E+03  0.18588077983E+02  0.16979194749E+03  0.23636442217E+03  0.12509000000E+03 0.  0.
         25    1    4    4    0    0 -0.44775743567E+02  0.14284527133E+02  0.77291120472E+02  0.15437078846E+03  0.12509000000E+03 0.  0.
         25    1    4    4    0    0 -0.60323304445E+02 -0.32872605115E+02  0.17102603563E+03  0.22274856271E+03  0.12509000000E+03 0.  0.
<mgrwt>
<rscale>  2 0.44893999E+03</rscale>
<asrwt>0</asrwt>
<pdfrwt beam="1">  1       21 0.75852416E-01 0.44893999E+03</pdfrwt>
<pdfrwt beam="2">  1       21 0.14365785E-01 0.44893999E+03</pdfrwt>
<totfact> 0.60709752E+04</totfact>
</mgrwt>
</event>
<event>
 7    0  0.4707675E-002  0.4497308E+03  0.7546771E-02  0.1027802E+00
         21   -1    0    0  502  501  0.00000000000E+00  0.00000000000E+00  0.48467520840E+03  0.48467520840E+03  0.00000000000E+00 0.  1.
         21   -1    0    0  501  502 -0.00000000000E+00 -0.00000000000E+00 -0.10432644710E+03  0.10432644710E+03  0.00000000000E+00 0.  1.
      99926    2    1    2    0    0  0.35527136788E-14  0.00000000000E+00  0.38034876129E+03  0.58900165550E+03  0.44973077498E+03 0.  0.
      99925    2    3    3    0    0  0.30193968769E+02  0.18371489564E+02  0.10734381690E+03  0.28663036859E+03  0.26341048915E+03 0.  0.
         25    1    3    3    0    0 -0.30193968769E+02 -0.18371489564E+02  0.27300494440E+03  0.30237128690E+03  0.12509000000E+03 0.  0.
         25    1    4    4    0    0  0.36620485572E+02 -0.24862788207E+02  0.63123806978E+02  0.14693992415E+03  0.12509000000E+03 0.  0.
         25    1    4    4    0    0 -0.64265168026E+01  0.43234277771E+02  0.44220009920E+02  0.13969044445E+03  0.12509000000E+03 0.  0.
<mgrwt>
<rscale>  2 0.44973077E+03</rscale>
<asrwt>0</asrwt>
<pdfrwt beam="1">  1       21 0.71275765E-01 0.44973077E+03</pdfrwt>
<pdfrwt beam="2">  1       21 0.15342125E-01 0.44973077E+03</pdfrwt>
<totfact> 0.61898200E+04</totfact>
</mgrwt>
</event>
<event>
 7    0  0.4707675E-002  0.4506702E+03  0.7546771E-02  0.1027522E+00
         21   -1    0    0  502  501  0.00000000000E+00  0.00000000000E+00  0.19333723503E+04  0.19333723503E+04  0.00000000000E+00 0.  1.
         21   -1    0    0  501  502 -0.00000000000E+00 -0.00000000000E+00 -0.26262865152E+02  0.26262865152E+02  0.00000000000E+00 0.  1.
      99926    2    1    2    0    0  0.62172489379E-14  0.00000000000E+00  0.19071094852E+04  0.19596352155E+04  0.45067015577E+03 0.  0.
      99925    2    3    3    0    0  0.71366834733E+01 -0.10533125959E+03  0.13229016114E+04  0.13529293935E+04  0.26306589280E+03 0.  0.
         25    1    4    4    0    0  0.43706331413E+02 -0.53334514340E+02  0.63585196271E+03  0.65169781372E+03  0.12509000000E+03 0.  0.
         25    1    3    3    0    0 -0.71366834733E+01  0.10533125959E+03  0.58420787380E+03  0.60670582196E+03  0.12509000000E+03 0.  0.
         25    1    4    4    0    0 -0.36569647940E+02 -0.51996745250E+02  0.68704964865E+03  0.70123157978E+03  0.12509000000E+03 0.  0.
<mgrwt>
<rscale>  2 0.45067016E+03</rscale>
<asrwt>0</asrwt>
<pdfrwt beam="1">  1       21 0.28431937E+00 0.45067016E+03</pdfrwt>
<pdfrwt beam="2">  1       21 0.38621874E-02 0.45067016E+03</pdfrwt>
<totfact> 0.14873893E+04</totfact>
</mgrwt>
</event>
<event>
 7    0  0.4707675E-002  0.4573013E+03  0.7546771E-02  0.1025567E+00
         21   -1    0    0  502  501  0.00000000000E+00  0.00000000000E+00  0.73698352198E+03  0.73698352198E+03  0.00000000000E+00 0.  1.
         21   -1    0    0  501  502 -0.00000000000E+00 -0.00000000000E+00 -0.70939347217E+02  0.70939347217E+02  0.00000000000E+00 0.  1.
      99926    2    1    2    0    0  0.00000000000E+00  0.71054273576E-14  0.66604417477E+03  0.80792286920E+03  0.45730134467E+03 0.  0.
      99925    2    3    3    0    0 -0.99396070521E+02 -0.54735182442E+02  0.38082519707E+03  0.47645206751E+03  0.26287491870E+03 0.  0.
         25    1    3    3    0    0  0.99396070521E+02  0.54735182442E+02  0.28521897770E+03  0.33147080169E+03  0.12509000000E+03 0.  0.
         25    1    4    4    0    0 -0.41321644325E+02 -0.46906065805E+02  0.24860409791E+03  0.28523527639E+03  0.12509000000E+03 0.  0.
         25    1    4    4    0    0 -0.58074426196E+02 -0.78291166361E+01  0.13222109916E+03  0.19121679112E+03  0.12509000000E+03 0.  0.
<mgrwt>
<rscale>  2 0.45730134E+03</rscale>
<asrwt>0</asrwt>
<pdfrwt beam="1">  1       21 0.10837993E+00 0.45730134E+03</pdfrwt>
<pdfrwt beam="2">  1       21 0.10432257E-01 0.45730134E+03</pdfrwt>
<totfact> 0.46537820E+04</totfact>
</mgrwt>
</event>
<event>
 7    0  0.4707675E-002  0.4584360E+03  0.7546771E-02  0.1025236E+00
         21   -1    0    0  502  501  0.00000000000E+00  0.00000000000E+00  0.33160093301E+03  0.33160093301E+03  0.00000000000E+00 0. -1.
         21   -1    0    0  501  502 -0.00000000000E+00 -0.00000000000E+00 -0.15844617182E+03  0.15844617182E+03  0.00000000000E+00 0. -1.
      99926    2    1    2    0    0 -0.88817841970E-15  0.00000000000E+00  0.17315476118E+03  0.49004710483E+03  0.45843603003E+03 0.  0.
      99925    2    3    3    0    0  0.20256429399E+01  0.42189064453E+02  0.22450983550E+03  0.34838245805E+03  0.26302404919E+03 0.  0.
         25    1    4    4    0    0 -0.19888917891E+02  0.22550532649E+02  0.66844926306E+02  0.14498223288E+03  0.12509000000E+03 0.  0.
         25    1    4    4    0    0  0.21914560830E+02  0.19638531804E+02  0.15766490920E+03  0.20340022517E+03  0.12509000000E+03 0.  0.
         25    1    3    3    0    0 -0.20256429399E+01 -0.42189064453E+02 -0.51355074318E+02  0.14166464678E+03  0.12509000000E+03 0.  0.
<mgrwt>
<rscale>  2 0.45843603E+03</rscale>
<asrwt>0</asrwt>
<pdfrwt beam="1">  1       21 0.48764843E-01 0.45843603E+03</pdfrwt>
<pdfrwt beam="2">  1       21 0.23300908E-01 0.45843603E+03</pdfrwt>
<totfact> 0.64206368E+04</totfact>
</mgrwt>
</event>
<event>
 7    0  0.4707675E-002  0.4581703E+03  0.7546771E-02  0.1025313E+00
         21   -1    0    0  502  501  0.00000000000E+00  0.00000000000E+00  0.60326912257E+03  0.60326912257E+03  0.00000000000E+00 0.  1.
         21   -1    0    0  501  502 -0.00000000000E+00 -0.00000000000E+00 -0.86992698208E+02  0.86992698208E+02  0.00000000000E+00 0.  1.
      99926    2    1    2    0    0  0.00000000000E+00  0.14210854715E-13  0.51627642436E+03  0.69026182078E+03  0.45817031208E+03 0.  0.
      99925    2    3    3    0    0  0.64965513889E+02 -0.78832202092E+02  0.24016938875E+03  0.37039053839E+03  0.26281701154E+03 0.  0.
         25    1    4    4    0    0  0.62820044283E+02 -0.17398339763E+02  0.10147836244E+03  0.17376543481E+03  0.12509000000E+03 0.  0.
         25    1    3    3    0    0 -0.64965513889E+02  0.78832202092E+02  0.27610703562E+03  0.31987128239E+03  0.12509000000E+03 0.  0.
         25    1    4    4    0    0  0.21454696066E+01 -0.61433862329E+02  0.13869102630E+03  0.19662510358E+03  0.12509000000E+03 0.  0.
<mgrwt>
<rscale>  2 0.45817031E+03</rscale>
<asrwt>0</asrwt>
<pdfrwt beam="1">  1       21 0.88716046E-01 0.45817031E+03</pdfrwt>
<pdfrwt beam="2">  1       21 0.12793044E-01 0.45817031E+03</pdfrwt>
<totfact> 0.52121949E+04</totfact>
</mgrwt>
</event>
<event>
 7    0  0.4707675E-002  0.4521430E+03  0.7546771E-02  0.1027085E+00
         21   -1    0    0  502  501  0.00000000000E+00  0.00000000000E+00  0.20679652781E+03  0.20679652781E+03  0.00000000000E+00 0.  1.
         21   -1    0    0  501  502 -0.00000000000E+00 -0.00000000000E+00 -0.24714298946E+03  0.24714298946E+03  0.00000000000E+00 0.  1.
      99926    2    1    2    0    0 -0.35527136788E-14  0.00000000000E+00 -0.40346461654E+02  0.45393951727E+03  0.45214295125E+03 0.  0.
      99925    2    3    3    0    0  0.27632140307E+02 -0.49099842567E+02  0.69999702151E+02  0.27787670551E+03  0.26294709629E+03 0.  0.
         25    1    4    4    0    0 -0.21232367913E+02 -0.39945908047E+02  0.48384636582E+02  0.14154529372E+03  0.12509000000E+03 0.  0.
         25    1    3    3    0    0 -0.27632140307E+02  0.49099842567E+02 -0.11034616381E+03  0.17606281176E+03  0.12509000000E+03 0.  0.
         25    1    4    4    0    0  0.48864508220E+02 -0.91539345204E+01  0.21615065569E+02  0.13633141179E+03  0.12509000000E+03 0.  0.
<mgrwt>
<rscale>  2 0.45214295E+03</rscale>
<asrwt>0</asrwt>
<pdfrwt beam="1">  1       21 0.30411254E-01 0.45214295E+03</pdfrwt>
<pdfrwt beam="2">  1       21 0.36344557E-01 0.45214295E+03</pdfrwt>
<totfact> 0.70210446E+04</totfact>
</mgrwt>
</event>
<event>
 7    0  0.4707675E-002  0.4583519E+03  0.7546771E-02  0.1025260E+00
         21   -1    0    0  502  501  0.00000000000E+00  0.00000000000E+00  0.23544890814E+03  0.23544890814E+03  0.00000000000E+00 0. -1.
         21   -1    0    0  501  502 -0.00000000000E+00 -0.00000000000E+00 -0.22307016420E+03  0.22307016420E+03  0.00000000000E+00 0. -1.
      99926    2    1    2    0    0 -0.14210854715E-13  0.00000000000E+00  0.12378743937E+02  0.45851907235E+03  0.45835194600E+03 0.  0.
      99925    2    3    3    0    0 -0.10225099042E+03  0.54725856364E+02  0.15677893694E+02  0.28790671381E+03  0.26304808517E+03 0.  0.
         25    1    4    4    0    0 -0.76943510846E+02  0.58368340865E+02 -0.71962394367E+01  0.15819753803E+03  0.12509000000E+03 0.  0.
         25    1    4    4    0    0 -0.25307479569E+02 -0.36424845003E+01  0.22874133131E+02  0.12970917578E+03  0.12509000000E+03 0.  0.
         25    1    3    3    0    0  0.10225099042E+03 -0.54725856364E+02 -0.32991497568E+01  0.17061235853E+03  0.12509000000E+03 0.  0.
<mgrwt>
<rscale>  2 0.45835195E+03</rscale>
<asrwt>0</asrwt>
<pdfrwt beam="1">  1       21 0.34624840E-01 0.45835195E+03</pdfrwt>
<pdfrwt beam="2">  1       21 0.32804436E-01 0.45835195E+03</pdfrwt>
<totfact> 0.66492548E+04</totfact>
</mgrwt>
</event>
<event>
 7    0  0.4707675E-002  0.4574103E+03  0.7546771E-02  0.1025535E+00
         21   -1    0    0  502  501  0.00000000000E+00  0.00000000000E+00  0.23335166110E+03  0.23335166110E+03  0.00000000000E+00 0.  1.
         21   -1    0    0  501  502 -0.00000000000E+00 -0.00000000000E+00 -0.22415116539E+03  0.22415116539E+03  0.00000000000E+00 0.  1.
      99926    2    1    2    0    0  0.00000000000E+00 -0.17763568394E-14  0.92004957163E+01  0.45750282649E+03  0.45741030501E+03 0.  0.
      99925    2    3    3    0    0 -0.70792607545E+02 -0.13827606788E+02  0.95433471154E+02  0.28931712512E+03  0.26342751466E+03 0.  0.
         25    1    4    4    0    0 -0.13042806611E+02  0.15683206685E+02  0.74085607042E+02  0.14680689033E+03  0.12509000000E+03 0.  0.
         25    1    4    4    0    0 -0.57749800934E+02 -0.29510813473E+02  0.21347864112E+02  0.14251023480E+03  0.12509000000E+03 0.  0.
         25    1    3    3    0    0  0.70792607545E+02  0.13827606788E+02 -0.86232975437E+02  0.16818570137E+03  0.12509000000E+03 0.  0.
<mgrwt>
<rscale>  2 0.45741031E+03</rscale>
<asrwt>0</asrwt>
<pdfrwt beam="1">  1       21 0.34316421E-01 0.45741031E+03</pdfrwt>
<pdfrwt beam="2">  1       21 0.32963406E-01 0.45741031E+03</pdfrwt>
<totfact> 0.67063769E+04</totfact>
</mgrwt>
</event>
<event>
 7    0  0.4707675E-002  0.4568118E+03  0.7546771E-02  0.1025710E+00
         21   -1    0    0  502  501  0.00000000000E+00  0.00000000000E+00  0.31304180604E+04  0.31304180604E+04  0.00000000000E+00 0.  1.
         21   -1    0    0  501  502 -0.00000000000E+00 -0.00000000000E+00 -0.16665265579E+02  0.16665265579E+02  0.00000000000E+00 0.  1.
      99926    2    1    2    0    0  0.00000000000E+00 -0.14210854715E-13  0.31137527948E+04  0.31470833260E+04  0.45681177020E+03 0.  0.
      99925    2    3    3    0    0  0.51096933430E+01  0.98526851949E+02  0.15521654358E+04  0.15773902867E+04  0.26307589598E+03 0.  0.
         25    1    3    3    0    0 -0.51096933430E+01 -0.98526851949E+02  0.15615873591E+04  0.15696930393E+04  0.12509000000E+03 0.  0.
         25    1    4    4    0    0  0.28444429518E+02  0.28640339329E+02  0.60065911994E+03  0.61487254051E+03  0.12509000000E+03 0.  0.
         25    1    4    4    0    0 -0.23334736175E+02  0.69886512619E+02  0.95150631582E+03  0.96251774617E+03  0.12509000000E+03 0.  0.
<mgrwt>
<rscale>  2 0.45681177E+03</rscale>
<asrwt>0</asrwt>
<pdfrwt beam="1">  1       21 0.46035519E+00 0.45681177E+03</pdfrwt>
<pdfrwt beam="2">  1       21 0.24507765E-02 0.45681177E+03</pdfrwt>
<totfact> 0.24736311E+03</totfact>
</mgrwt>
</event>
<event>
 7    0  0.4707675E-002  0.4528980E+03  0.7546771E-02  0.1026861E+00
         21   -1    0    0  502  501  0.00000000000E+00  0.00000000000E+00  0.27438549719E+03  0.27438549719E+03  0.00000000000E+00 0. -1.
         21   -1    0    0  501  502 -0.00000000000E+00 -0.00000000000E+00 -0.18688721434E+03  0.18688721434E+03  0.00000000000E+00 0. -1.
      99926    2    1    2    0    0  0.00000000000E+00  0.00000000000E+00  0.87498282856E+02  0.46127271153E+03  0.45289796301E+03 0.  0.
      99925    2    3    3    0    0 -0.42242964844E+02  0.99528821356E+02  0.81533402709E+02  0.29582319580E+03  0.26300800949E+03 0.  0.
         25    1    3    3    0    0  0.42242964844E+02 -0.99528821356E+02  0.59648801471E+01  0.16544951573E+03  0.12509000000E+03 0.  0.
         25    1    4    4    0    0 -0.23618108497E+02  0.84312200069E+01  0.48578210227E+02  0.13651465536E+03  0.12509000000E+03 0.  0.
         25    1    4    4    0    0 -0.18624856347E+02  0.91097601350E+02  0.32955192482E+02  0.15930854044E+03  0.12509000000E+03 0.  0.
<mgrwt>
<rscale>  2 0.45289796E+03</rscale>
<asrwt>0</asrwt>
<pdfrwt beam="1">  1       21 0.40350809E-01 0.45289796E+03</pdfrwt>
<pdfrwt beam="2">  1       21 0.27483414E-01 0.45289796E+03</pdfrwt>
<totfact> 0.69237494E+04</totfact>
</mgrwt>
</event>
<event>
 7    0  0.4707675E-002  0.4473293E+03  0.7546771E-02  0.1028521E+00
         21   -1    0    0  502  501  0.00000000000E+00  0.00000000000E+00  0.63467550118E+02  0.63467550118E+02  0.00000000000E+00 0.  1.
         21   -1    0    0  501  502 -0.00000000000E+00 -0.00000000000E+00 -0.78821168349E+03  0.78821168349E+03  0.00000000000E+00 0.  1.
      99926    2    1    2    0    0  0.71054273576E-14  0.14210854715E-13 -0.72474413338E+03  0.85167923361E+03  0.44732925022E+03 0.  0.
      99925    2    3    3    0    0 -0.63028514492E+02 -0.64667798736E+02 -0.35409841273E+03  0.45020659922E+03  0.26295584848E+03 0.  0.
         25    1    4    4    0    0 -0.13644477697E+02  0.39704975853E+01 -0.18147179547E+03  0.22086524687E+03  0.12509000000E+03 0.  0.
         25    1    4    4    0    0 -0.49384036795E+02 -0.68638296321E+02 -0.17262661726E+03  0.22934135235E+03  0.12509000000E+03 0.  0.
         25    1    3    3    0    0  0.63028514492E+02  0.64667798736E+02 -0.37064572065E+03  0.40147263439E+03  0.12509000000E+03 0.  0.
<mgrwt>
<rscale>  2 0.44732925E+03</rscale>
<asrwt>0</asrwt>
<pdfrwt beam="1">  1       21 0.93334639E-02 0.44732925E+03</pdfrwt>
<pdfrwt beam="2">  1       21 0.11591348E+00 0.44732925E+03</pdfrwt>
<totfact> 0.48199792E+04</totfact>
</mgrwt>
</event>
<event>
 7    0  0.4707675E-002  0.4529832E+03  0.7546771E-02  0.1026836E+00
         21   -1    0    0  502  501  0.00000000000E+00  0.00000000000E+00  0.21375641980E+04  0.21375641980E+04  0.00000000000E+00 0.  1.
         21   -1    0    0  501  502 -0.00000000000E+00 -0.00000000000E+00 -0.23998551770E+02  0.23998551770E+02  0.00000000000E+00 0.  1.
      99926    2    1    2    0    0 -0.71054273576E-14  0.00000000000E+00  0.21135656462E+04  0.21615627498E+04  0.45298320087E+03 0.  0.
      99925    2    3    3    0    0 -0.44645991820E+02  0.36118434773E+02  0.87753336566E+03  0.91789031998E+03  0.26298293812E+03 0.  0.
         25    1    3    3    0    0  0.44645991820E+02 -0.36118434773E+02  0.12360322806E+04  0.12436724298E+04  0.12509000000E+03 0.  0.
         25    1    4    4    0    0 -0.43904793241E+01  0.98403188963E+01  0.30395488459E+03  0.32886499989E+03  0.12509000000E+03 0.  0.
         25    1    4    4    0    0 -0.40255512496E+02  0.26278115877E+02  0.57357848106E+03  0.58902532008E+03  0.12509000000E+03 0.  0.
<mgrwt>
<rscale>  2 0.45298320E+03</rscale>
<asrwt>0</asrwt>
<pdfrwt beam="1">  1       21 0.31434755E+00 0.45298320E+03</pdfrwt>
<pdfrwt beam="2">  1       21 0.35292003E-02 0.45298320E+03</pdfrwt>
<totfact> 0.11424738E+04</totfact>
</mgrwt>
</event>
<event>
 7    0  0.4707675E-002  0.4527272E+03  0.7546771E-02  0.1026912E+00
         21   -1    0    0  502  501  0.00000000000E+00  0.00000000000E+00  0.20098606689E+03  0.20098606689E+03  0.00000000000E+00 0.  1.
         21   -1    0    0  501  502 -0.00000000000E+00 -0.00000000000E+00 -0.25494545404E+03  0.25494545404E+03  0.00000000000E+00 0.  1.
      99926    2    1    2    0    0  0.14210854715E-13  0.71054273576E-14 -0.53959387149E+02  0.45593152093E+03  0.45272722064E+03 0.  0.
      99925    2    3    3    0    0 -0.90786833699E+02 -0.35617650259E+02 -0.86990863922E+02  0.29391469235E+03  0.26326330886E+03 0.  0.
         25    1    4    4    0    0 -0.10537463678E+02 -0.32675672235E+02 -0.21525813436E+02  0.13148994806E+03  0.12509000000E+03 0.  0.
         25    1    3    3    0    0  0.90786833699E+02  0.35617650259E+02  0.33031476773E+02  0.16201682857E+03  0.12509000000E+03 0.  0.
         25    1    4    4    0    0 -0.80249370021E+02 -0.29419780246E+01 -0.65465050486E+02  0.16242474429E+03  0.12509000000E+03 0.  0.
<mgrwt>
<rscale>  2 0.45272722E+03</rscale>
<asrwt>0</asrwt>
<pdfrwt beam="1">  1       21 0.29556775E-01 0.45272722E+03</pdfrwt>
<pdfrwt beam="2">  1       21 0.37491978E-01 0.45272722E+03</pdfrwt>
<totfact> 0.69733424E+04</totfact>
</mgrwt>
</event>
<event>
 7    0  0.4707675E-002  0.4423849E+03  0.7546771E-02  0.1030018E+00
         21   -1    0    0  502  501  0.00000000000E+00  0.00000000000E+00  0.14594391806E+03  0.14594391806E+03  0.00000000000E+00 0. -1.
         21   -1    0    0  501  502 -0.00000000000E+00 -0.00000000000E+00 -0.33523899811E+03  0.33523899811E+03  0.00000000000E+00 0. -1.
      99926    2    1    2    0    0  0.00000000000E+00 -0.71054273576E-14 -0.18929508005E+03  0.48118291617E+03  0.44238486805E+03 0.  0.
      99925    2    3    3    0    0  0.72123248908E+02  0.58209648733E+02 -0.16378912264E+03  0.32342300934E+03  0.26303125297E+03 0.  0.
         25    1    4    4    0    0  0.29950584659E+02  0.29339741793E+02 -0.12758314748E+03  0.18352881406E+03  0.12509000000E+03 0.  0.
         25    1    4    4    0    0  0.42172664248E+02  0.28869906940E+02 -0.36205975155E+02  0.13989419528E+03  0.12509000000E+03 0.  0.
         25    1    3    3    0    0 -0.72123248908E+02 -0.58209648733E+02 -0.25505957417E+02  0.15775990683E+03  0.12509000000E+03 0.  0.
<mgrwt>
<rscale>  2 0.44238487E+03</rscale>
<asrwt>0</asrwt>
<pdfrwt beam="1">  1       21 0.21462341E-01 0.44238487E+03</pdfrwt>
<pdfrwt beam="2">  1       21 0.49299852E-01 0.44238487E+03</pdfrwt>
<totfact> 0.73725328E+04</totfact>
</mgrwt>
</event>
<event>
 7    0  0.4707675E-002  0.4580478E+03  0.7546771E-02  0.1025349E+00
         21   -1    0    0  502  501  0.00000000000E+00  0.00000000000E+00  0.17249968095E+03  0.17249968095E+03  0.00000000000E+00 0. -1.
         21   -1    0    0  501  502 -0.00000000000E+00 -0.00000000000E+00 -0.30406981363E+03  0.30406981363E+03  0.00000000000E+00 0. -1.
      99926    2    1    2    0    0  0.00000000000E+00 -0.71054273576E-14 -0.13157013269E+03  0.47656949458E+03  0.45804779592E+03 0.  0.
      99925    2    3    3    0    0  0.78613448965E+01 -0.49523058073E+02 -0.19150561465E+03  0.32907676892E+03  0.26287408654E+03 0.  0.
         25    1    4    4    0    0  0.42031197837E+02 -0.24976754629E+02 -0.11298049570E+03  0.17550658213E+03  0.12509000000E+03 0.  0.
         25    1    4    4    0    0 -0.34169852940E+02 -0.24546303444E+02 -0.78525118949E+02  0.15357018678E+03  0.12509000000E+03 0.  0.
         25    1    3    3    0    0 -0.78613448965E+01  0.49523058073E+02  0.59935481965E+02  0.14749272566E+03  0.12509000000E+03 0.  0.
<mgrwt>
<rscale>  2 0.45804780E+03</rscale>
<asrwt>0</asrwt>
<pdfrwt beam="1">  1       21 0.25367600E-01 0.45804780E+03</pdfrwt>
<pdfrwt beam="2">  1       21 0.44716149E-01 0.45804780E+03</pdfrwt>
<totfact> 0.65355602E+04</totfact>
</mgrwt>
</event>
<event>
 7    0  0.4707675E-002  0.4610653E+03  0.7546771E-02  0.1024473E+00
         21   -1    0    0  502  501  0.00000000000E+00  0.00000000000E+00  0.79676973407E+02  0.79676973407E+02  0.00000000000E+00 0. -1.
         21   -1    0    0  501  502 -0.00000000000E+00 -0.00000000000E+00 -0.66700963497E+03  0.66700963497E+03  0.00000000000E+00 0. -1.
      99926    2    1    2    0    0  0.00000000000E+00 -0.14210854715E-13 -0.58733266156E+03  0.74668660838E+03  0.46106532703E+03 0.  0.
      99925    2    3    3    0    0 -0.86715022051E+02  0.80270930214E+02 -0.38978967381E+03  0.48470634691E+03  0.26275718000E+03 0.  0.
         25    1    4    4    0    0 -0.37471105014E+02  0.68040102326E+02 -0.25164754143E+03  0.29156051249E+03  0.12509000000E+03 0.  0.
         25    1    4    4    0    0 -0.49243917037E+02  0.12230827888E+02 -0.13814213238E+03  0.19314583442E+03  0.12509000000E+03 0.  0.
         25    1    3    3    0    0  0.86715022051E+02 -0.80270930214E+02 -0.19754298775E+03  0.26198026146E+03  0.12509000000E+03 0.  0.
<mgrwt>
<rscale>  2 0.46106533E+03</rscale>
<asrwt>0</asrwt>
<pdfrwt beam="1">  1       21 0.11717202E-01 0.46106533E+03</pdfrwt>
<pdfrwt beam="2">  1       21 0.98089653E-01 0.46106533E+03</pdfrwt>
<totfact> 0.48105606E+04</totfact>
</mgrwt>
</event>
<event>
 7    0  0.4707675E-002  0.4619190E+03  0.7546771E-02  0.1024226E+00
         21   -1    0    0  502  501  0.00000000000E+00  0.00000000000E+00  0.52933014046E+03  0.52933014046E+03  0.00000000000E+00 0. -1.
         21   -1    0    0  501  502 -0.00000000000E+00 -0.00000000000E+00 -0.10077319003E+03  0.10077319003E+03  0.00000000000E+00 0. -1.
      99926    2    1    2    0    0 -0.14210854715E-13  0.00000000000E+00  0.42855695043E+03  0.63010333049E+03  0.46191898352E+03 0.  0.
      99925    2    3    3    0    0  0.83301146783E+02  0.21318071973E+02  0.38140354670E+03  0.47115524830E+03  0.26291645312E+03 0.  0.
         25    1    3    3    0    0 -0.83301146783E+02 -0.21318071973E+02  0.47153403733E+02  0.15894808219E+03  0.12509000000E+03 0.  0.
         25    1    4    4    0    0  0.44473110900E+02 -0.27323885060E+02  0.16452089842E+03  0.21316445859E+03  0.12509000000E+03 0.  0.
         25    1    4    4    0    0  0.38828035882E+02  0.48641957033E+02  0.21688264828E+03  0.25799078972E+03  0.12509000000E+03 0.  0.
<mgrwt>
<rscale>  2 0.46191898E+03</rscale>
<asrwt>0</asrwt>
<pdfrwt beam="1">  1       21 0.77842666E-01 0.46191898E+03</pdfrwt>
<pdfrwt beam="2">  1       21 0.14819587E-01 0.46191898E+03</pdfrwt>
<totfact> 0.53859812E+04</totfact>
</mgrwt>
</event>
<event>
 7    0  0.4707675E-002  0.4517909E+03  0.7546771E-02  0.1027189E+00
         21   -1    0    0  502  501  0.00000000000E+00  0.00000000000E+00  0.34553297501E+03  0.34553297501E+03  0.00000000000E+00 0.  1.
         21   -1    0    0  501  502 -0.00000000000E+00 -0.00000000000E+00 -0.14768130785E+03  0.14768130785E+03  0.00000000000E+00 0.  1.
      99926    2    1    2    0    0  0.00000000000E+00  0.71054273576E-14  0.19785166716E+03  0.49321428286E+03  0.45179093242E+03 0.  0.
      99925    2    3    3    0    0  0.10281307000E+03  0.38601136641E+02  0.13287148336E+03  0.31452318767E+03  0.26307685071E+03 0.  0.
         25    1    3    3    0    0 -0.10281307000E+03 -0.38601136641E+02  0.64980183795E+02  0.17869109518E+03  0.12509000000E+03 0.  0.
         25    1    4    4    0    0  0.50680150045E+02 -0.10611180060E+02  0.95203455979E+02  0.16550613548E+03  0.12509000000E+03 0.  0.
         25    1    4    4    0    0  0.52132919952E+02  0.49212316702E+02  0.37668027383E+02  0.14901705219E+03  0.12509000000E+03 0.  0.
<mgrwt>
<rscale>  2 0.45179093E+03</rscale>
<asrwt>0</asrwt>
<pdfrwt beam="1">  1       21 0.50813672E-01 0.45179093E+03</pdfrwt>
<pdfrwt beam="2">  1       21 0.21717840E-01 0.45179093E+03</pdfrwt>
<totfact> 0.67452104E+04</totfact>
</mgrwt>
</event>
<event>
 7    0  0.4707675E-002  0.4553592E+03  0.7546771E-02  0.1026136E+00
         21   -1    0    0  502  501  0.00000000000E+00  0.00000000000E+00  0.63541327672E+03  0.63541327672E+03  0.00000000000E+00 0.  1.
         21   -1    0    0  501  502 -0.00000000000E+00 -0.00000000000E+00 -0.81581543269E+02  0.81581543269E+02  0.00000000000E+00 0.  1.
      99926    2    1    2    0    0  0.00000000000E+00 -0.35527136788E-14  0.55383173345E+03  0.71699481999E+03  0.45535918012E+03 0.  0.
      99925    2    3    3    0    0 -0.65585130409E+02 -0.13199381597E+02  0.20418688756E+03  0.33966915248E+03  0.26307264223E+03 0.  0.
         25    1    4    4    0    0 -0.56039573154E+02 -0.38668006812E+02  0.12213758437E+03  0.18761861882E+03  0.12509000000E+03 0.  0.
         25    1    4    4    0    0 -0.95455572554E+01  0.25468625215E+02  0.82049303190E+02  0.15205053366E+03  0.12509000000E+03 0.  0.
         25    1    3    3    0    0  0.65585130409E+02  0.13199381597E+02  0.34964484589E+03  0.37732566751E+03  0.12509000000E+03 0.  0.
<mgrwt>
<rscale>  2 0.45535918E+03</rscale>
<asrwt>0</asrwt>
<pdfrwt beam="1">  1       21 0.93443126E-01 0.45535918E+03</pdfrwt>
<pdfrwt beam="2">  1       21 0.11997286E-01 0.45535918E+03</pdfrwt>
<totfact> 0.51843345E+04</totfact>
</mgrwt>
</event>
<event>
 7    0  0.4707675E-002  0.4509579E+03  0.7546771E-02  0.1027437E+00
         21   -1    0    0  502  501  0.00000000000E+00  0.00000000000E+00  0.64543324136E+02  0.64543324136E+02  0.00000000000E+00 0. -1.
         21   -1    0    0  501  502 -0.00000000000E+00 -0.00000000000E+00 -0.78769970048E+03  0.78769970048E+03  0.00000000000E+00 0. -1.
      99926    2    1    2    0    0  0.00000000000E+00  0.00000000000E+00 -0.72315637634E+03  0.85224302462E+03  0.45095790087E+03 0.  0.
      99925    2    3    3    0    0 -0.85958304237E+02 -0.67205345980E+02 -0.44057734403E+03  0.52451782540E+03  0.26287861172E+03 0.  0.
         25    1    4    4    0    0 -0.84389378755E+02 -0.33875026079E+02 -0.22411861121E+03  0.27229716236E+03  0.12509000000E+03 0.  0.
         25    1    3    3    0    0  0.85958304237E+02  0.67205345980E+02 -0.28257903231E+03  0.32772519921E+03  0.12509000000E+03 0.  0.
         25    1    4    4    0    0 -0.15689254817E+01 -0.33330319901E+02 -0.21645873282E+03  0.25222066304E+03  0.12509000000E+03 0.  0.
<mgrwt>
<rscale>  2 0.45095790E+03</rscale>
<asrwt>0</asrwt>
<pdfrwt beam="1">  1       21 0.94916651E-02 0.45095790E+03</pdfrwt>
<pdfrwt beam="2">  1       21 0.11583819E+00 0.45095790E+03</pdfrwt>
<totfact> 0.46805726E+04</totfact>
</mgrwt>
</event>
<event>
 7    0  0.4707675E-002  0.4583164E+03  0.7546771E-02  0.1025271E+00
         21   -1    0    0  502  501  0.00000000000E+00  0.00000000000E+00  0.33672658751E+02  0.33672658751E+02  0.00000000000E+00 0.  1.
         21   -1    0    0  501  502 -0.00000000000E+00 -0.00000000000E+00 -0.15595289216E+04  0.15595289216E+04  0.00000000000E+00 0.  1.
      99926    2    1    2    0    0  0.00000000000E+00  0.00000000000E+00 -0.15258562629E+04  0.15932015804E+04  0.45831641992E+03 0.  0.
      99925    2    3    3    0    0 -0.19486187417E+02 -0.61557297674E+02 -0.62149879193E+03  0.67795355074E+03  0.26304230876E+03 0.  0.
         25    1    4    4    0    0 -0.41842910422E+02 -0.30086097732E+02 -0.25315827974E+03  0.28704115581E+03  0.12509000000E+03 0.  0.
         25    1    3    3    0    0  0.19486187417E+02  0.61557297674E+02 -0.90435747096E+03  0.91524802965E+03  0.12509000000E+03 0.  0.
         25    1    4    4    0    0  0.22356723005E+02 -0.31471199942E+02 -0.36834051219E+03  0.39091239493E+03  0.12509000000E+03 0.  0.
<mgrwt>
<rscale>  2 0.45831642E+03</rscale>
<asrwt>0</asrwt>
<pdfrwt beam="1">  1       21 0.49518616E-02 0.45831642E+03</pdfrwt>
<pdfrwt beam="2">  1       21 0.22934249E+00 0.45831642E+03</pdfrwt>
<totfact> 0.21036863E+04</totfact>
</mgrwt>
</event>
<event>
 7    0  0.4707675E-002  0.4554698E+03  0.7546771E-02  0.1026103E+00
         21   -1    0    0  502  501  0.00000000000E+00  0.00000000000E+00  0.30604377553E+03  0.30604377553E+03  0.00000000000E+00 0. -1.
         21   -1    0    0  501  502 -0.00000000000E+00 -0.00000000000E+00 -0.16946326980E+03  0.16946326980E+03  0.00000000000E+00 0. -1.
      99926    2    1    2    0    0 -0.71054273576E-14  0.14210854715E-13  0.13658050573E+03  0.47550704533E+03  0.45546977465E+03 0.  0.
      99925    2    3    3    0    0  0.44069935225E+02 -0.10086374478E+03  0.11520935552E+03  0.30751928280E+03  0.26301950401E+03 0.  0.
         25    1    4    4    0    0  0.46329881574E+02 -0.20025993493E+02  0.40242811992E+02  0.14076395263E+03  0.12509000000E+03 0.  0.
         25    1    3    3    0    0 -0.44069935225E+02  0.10086374478E+03  0.21371150203E+02  0.16798776254E+03  0.12509000000E+03 0.  0.
         25    1    4    4    0    0 -0.22599463492E+01 -0.80837751287E+02  0.74966543531E+02  0.16675533017E+03  0.12509000000E+03 0.  0.
<mgrwt>
<rscale>  2 0.45546977E+03</rscale>
<asrwt>0</asrwt>
<pdfrwt beam="1">  1       21 0.45006438E-01 0.45546977E+03</pdfrwt>
<pdfrwt beam="2">  1       21 0.24921069E-01 0.45546977E+03</pdfrwt>
<totfact> 0.66779333E+04</totfact>
</mgrwt>
</event>
<event>
 7    0  0.4707675E-002  0.4568555E+03  0.7546771E-02  0.1025697E+00
         21   -1    0    0  502  501  0.00000000000E+00  0.00000000000E+00  0.43238019109E+03  0.43238019109E+03  0.00000000000E+00 0. -1.
         21   -1    0    0  501  502 -0.00000000000E+00 -0.00000000000E+00 -0.12067904287E+03  0.12067904287E+03  0.00000000000E+00 0. -1.
      99926    2    1    2    0    0 -0.14210854715E-13 -0.35527136788E-14  0.31170114822E+03  0.55305923396E+03  0.45685545905E+03 0.  0.
      99925    2    3    3    0    0  0.90299215047E+02  0.17122129470E+02  0.27918250419E+03  0.39446514244E+03  0.26308318532E+03 0.  0.
         25    1    3    3    0    0 -0.90299215047E+02 -0.17122129470E+02  0.32518644032E+02  0.15859409152E+03  0.12509000000E+03 0.  0.
         25    1    4    4    0    0  0.76114221295E+02 -0.10273734683E+02  0.17752431512E+03  0.23035041755E+03  0.12509000000E+03 0.  0.
         25    1    4    4    0    0  0.14184993751E+02  0.27395864153E+02  0.10165818907E+03  0.16411472489E+03  0.12509000000E+03 0.  0.
<mgrwt>
<rscale>  2 0.45685546E+03</rscale>
<asrwt>0</asrwt>
<pdfrwt beam="1">  1       21 0.63585322E-01 0.45685546E+03</pdfrwt>
<pdfrwt beam="2">  1       21 0.17746918E-01 0.45685546E+03</pdfrwt>
<totfact> 0.60767863E+04</totfact>
</mgrwt>
</event>
<event>
 7    0  0.4707675E-002  0.4548216E+03  0.7546771E-02  0.1026294E+00
         21   -1    0    0  502  501  0.00000000000E+00  0.00000000000E+00  0.51971118046E+03  0.51971118046E+03  0.00000000000E+00 0.  1.
         21   -1    0    0  501  502 -0.00000000000E+00 -0.00000000000E+00 -0.99508494282E+02  0.99508494282E+02  0.00000000000E+00 0.  1.
      99926    2    1    2    0    0  0.71054273576E-14  0.14210854715E-13  0.42020268617E+03  0.61921967474E+03  0.45482162230E+03 0.  0.
      99925    2    3    3    0    0  0.45275621916E+02  0.10401499386E+03  0.27255519070E+03  0.39490674174E+03  0.26228991939E+03 0.  0.
         25    1    4    4    0    0 -0.35690465212E+01  0.49364086641E+02  0.17248350498E+03  0.21874098549E+03  0.12509000000E+03 0.  0.
         25    1    3    3    0    0 -0.45275621916E+02 -0.10401499386E+03  0.14764749548E+03  0.22431293299E+03  0.12509000000E+03 0.  0.
         25    1    4    4    0    0  0.48844668437E+02  0.54650907217E+02  0.10007168572E+03  0.17616575625E+03  0.12509000000E+03 0.  0.
<mgrwt>
<rscale>  2 0.45482162E+03</rscale>
<asrwt>0</asrwt>
<pdfrwt beam="1">  1       21 0.76428114E-01 0.45482162E+03</pdfrwt>
<pdfrwt beam="2">  1       21 0.14633602E-01 0.45482162E+03</pdfrwt>
<totfact> 0.57591655E+04</totfact>
</mgrwt>
</event>
<event>
 7    0  0.4707675E-002  0.4360843E+03  0.7546771E-02  0.1031955E+00
         21   -1    0    0  502  501  0.00000000000E+00  0.00000000000E+00  0.14639889648E+03  0.14639889648E+03  0.00000000000E+00 0.  1.
         21   -1    0    0  501  502 -0.00000000000E+00 -0.00000000000E+00 -0.32474551599E+03  0.32474551599E+03  0.00000000000E+00 0.  1.
      99926    2    1    2    0    0  0.00000000000E+00  0.00000000000E+00 -0.17834661951E+03  0.47114441247E+03  0.43608432753E+03 0.  0.
      99925    2    3    3    0    0 -0.17639392490E+02 -0.91221203567E+02 -0.13296472460E+03  0.30884998671E+03  0.26282359132E+03 0.  0.
         25    1    4    4    0    0 -0.23511029535E+01 -0.73401042881E+02 -0.10354407139E+03  0.17821931321E+03  0.12509000000E+03 0.  0.
         25    1    4    4    0    0 -0.15288289536E+02 -0.17820160687E+02 -0.29420653212E+02  0.13063067350E+03  0.12509000000E+03 0.  0.
         25    1    3    3    0    0  0.17639392490E+02  0.91221203567E+02 -0.45381894906E+02  0.16229442576E+03  0.12509000000E+03 0.  0.
<mgrwt>
<rscale>  2 0.43608433E+03</rscale>
<asrwt>0</asrwt>
<pdfrwt beam="1">  1       21 0.21529250E-01 0.43608433E+03</pdfrwt>
<pdfrwt beam="2">  1       21 0.47756693E-01 0.43608433E+03</pdfrwt>
<totfact> 0.78489873E+04</totfact>
</mgrwt>
</event>
<event>
 7    0  0.4707675E-002  0.4508302E+03  0.7546771E-02  0.1027475E+00
         21   -1    0    0  502  501  0.00000000000E+00  0.00000000000E+00  0.32152388202E+03  0.32152388202E+03  0.00000000000E+00 0. -1.
         21   -1    0    0  501  502 -0.00000000000E+00 -0.00000000000E+00 -0.15803480262E+03  0.15803480262E+03  0.00000000000E+00 0. -1.
      99926    2    1    2    0    0  0.00000000000E+00  0.00000000000E+00  0.16348907941E+03  0.47955868464E+03  0.45083018192E+03 0.  0.
      99925    2    3    3    0    0  0.75321951211E+02 -0.39706708077E+02  0.17591001981E+03  0.32773046967E+03  0.26308345953E+03 0.  0.
         25    1    3    3    0    0 -0.75321951211E+02  0.39706708077E+02 -0.12420940404E+02  0.15182821497E+03  0.12509000000E+03 0.  0.
         25    1    4    4    0    0  0.49488683553E+02 -0.36320726308E+02  0.13384316018E+03  0.19320927665E+03  0.12509000000E+03 0.  0.
         25    1    4    4    0    0  0.25833267658E+02 -0.33859817689E+01  0.42066859636E+02  0.13452119301E+03  0.12509000000E+03 0.  0.
<mgrwt>
<rscale>  2 0.45083018E+03</rscale>
<asrwt>0</asrwt>
<pdfrwt beam="1">  1       21 0.47282924E-01 0.45083018E+03</pdfrwt>
<pdfrwt beam="2">  1       21 0.23240412E-01 0.45083018E+03</pdfrwt>
<totfact> 0.68987568E+04</totfact>
</mgrwt>
</event>
<event>
 7    0  0.4707675E-002  0.4510286E+03  0.7546771E-02  0.1027416E+00
         21   -1    0    0  502  501  0.00000000000E+00  0.00000000000E+00  0.13650107733E+02  0.13650107733E+02  0.00000000000E+00 0.  1.
         21   -1    0    0  501  502 -0.00000000000E+00 -0.00000000000E+00 -0.37257354663E+04  0.37257354663E+04  0.00000000000E+00 0.  1.
      99926    2    1    2    0    0  0.00000000000E+00 -0.39968028887E-14 -0.37120853586E+04  0.37393855741E+04  0.45102856007E+03 0.  0.
      99925    2    3    3    0    0 -0.33415026393E+02  0.34091997713E+01 -0.14833147910E+04  0.15068547371E+04  0.26317340874E+03 0.  0.
         25    1    3    3    0    0  0.33415026393E+02 -0.34091997713E+01 -0.22287705676E+04  0.22325308370E+04  0.12509000000E+03 0.  0.
         25    1    4    4    0    0 -0.40587161091E+02 -0.28609759651E+02 -0.83358975968E+03  0.84438452824E+03  0.12509000000E+03 0.  0.
         25    1    4    4    0    0  0.71721346982E+01  0.32018959422E+02 -0.64972503129E+03  0.66247020889E+03  0.12509000000E+03 0.  0.
<mgrwt>
<rscale>  2 0.45102856E+03</rscale>
<asrwt>0</asrwt>
<pdfrwt beam="1">  1       21 0.20073636E-02 0.45102856E+03</pdfrwt>
<pdfrwt beam="2">  1       21 0.54790368E+00 0.45102856E+03</pdfrwt>
<totfact> 0.81572045E+02</totfact>
</mgrwt>
</event>
<event>
 7    0  0.4707675E-002  0.4425328E+03  0.7546771E-02  0.1029973E+00
         21   -1    0    0  502  501  0.00000000000E+00  0.00000000000E+00  0.21920724385E+03  0.21920724385E+03  0.00000000000E+00 0.  1.
         21   -1    0    0  501  502 -0.00000000000E+00 -0.00000000000E+00 -0.22334492690E+03  0.22334492690E+03  0.00000000000E+00 0.  1.
      99926    2    1    2    0    0  0.00000000000E+00  0.00000000000E+00 -0.41376830572E+01  0.44255217075E+03  0.44253282750E+03 0.  0.
      99925    2    3    3    0    0 -0.19808155846E+02  0.91535523679E+02  0.34598093680E+02  0.28155812231E+03  0.26326190955E+03 0.  0.
         25    1    3    3    0    0  0.19808155846E+02 -0.91535523679E+02 -0.38735776737E+02  0.16099404844E+03  0.12509000000E+03 0.  0.
         25    1    4    4    0    0 -0.54014243401E+01  0.88099163849E+02  0.11814053178E+02  0.15355037613E+03  0.12509000000E+03 0.  0.
         25    1    4    4    0    0 -0.14406731506E+02  0.34363598304E+01  0.22784040501E+02  0.12800774618E+03  0.12509000000E+03 0.  0.
<mgrwt>
<rscale>  2 0.44253283E+03</rscale>
<asrwt>0</asrwt>
<pdfrwt beam="1">  1       21 0.32236360E-01 0.44253283E+03</pdfrwt>
<pdfrwt beam="2">  1       21 0.32844842E-01 0.44253283E+03</pdfrwt>
<totfact> 0.76830471E+04</totfact>
</mgrwt>
</event>
<event>
 7    0  0.4707675E-002  0.4557980E+03  0.7546771E-02  0.1026007E+00
         21   -1    0    0  502  501  0.00000000000E+00  0.00000000000E+00  0.33572623237E+03  0.33572623237E+03  0.00000000000E+00 0. -1.
         21   -1    0    0  501  502 -0.00000000000E+00 -0.00000000000E+00 -0.15470332697E+03  0.15470332697E+03  0.00000000000E+00 0. -1.
      99926    2    1    2    0    0  0.00000000000E+00  0.00000000000E+00  0.18102290540E+03  0.49042955934E+03  0.45579804782E+03 0.  0.
      99925    2    3    3    0    0 -0.53543039488E+02  0.60625113759E+02  0.20012169934E+03  0.34024789093E+03  0.26301648473E+03 0.  0.
         25    1    4    4    0    0 -0.20297934953E+02  0.71102456614E+02  0.10451126707E+03  0.17899072195E+03  0.12509000000E+03 0.  0.
         25    1    3    3    0    0  0.53543039488E+02 -0.60625113759E+02 -0.19098793936E+02  0.15018166841E+03  0.12509000000E+03 0.  0.
         25    1    4    4    0    0 -0.33245104534E+02 -0.10477342854E+02  0.95610432267E+02  0.16125716898E+03  0.12509000000E+03 0.  0.
<mgrwt>
<rscale>  2 0.45579805E+03</rscale>
<asrwt>0</asrwt>
<pdfrwt beam="1">  1       21 0.49371505E-01 0.45579805E+03</pdfrwt>
<pdfrwt beam="2">  1       21 0.22750489E-01 0.45579805E+03</pdfrwt>
<totfact> 0.65532221E+04</totfact>
</mgrwt>
</event>
<event>
 7    0  0.4707675E-002  0.4362062E+03  0.7546771E-02  0.1031917E+00
         21   -1    0    0  502  501  0.00000000000E+00  0.00000000000E+00  0.37741279828E+03  0.37741279828E+03  0.00000000000E+00 0.  1.
         21   -1    0    0  501  502 -0.00000000000E+00 -0.00000000000E+00 -0.12603963046E+03  0.12603963046E+03  0.00000000000E+00 0.  1.
      99926    2    1    2    0    0  0.00000000000E+00  0.00000000000E+00  0.25137316782E+03  0.50345242874E+03  0.43620623392E+03 0.  0.
      99925    2    3    3    0    0 -0.71672583033E+02  0.55264588423E+02  0.13005295054E+03  0.30709246054E+03  0.26306059280E+03 0.  0.
         25    1    4    4    0    0 -0.43898151634E+02 -0.67833238029E+01  0.40019181315E+02  0.13864380322E+03  0.12509000000E+03 0.  0.
         25    1    4    4    0    0 -0.27774431399E+02  0.62047912226E+02  0.90033769221E+02  0.16844865732E+03  0.12509000000E+03 0.  0.
         25    1    3    3    0    0  0.71672583033E+02 -0.55264588423E+02  0.12132021728E+03  0.19635996821E+03  0.12509000000E+03 0.  0.
<mgrwt>
<rscale>  2 0.43620623E+03</rscale>
<asrwt>0</asrwt>
<pdfrwt beam="1">  1       21 0.55501881E-01 0.43620623E+03</pdfrwt>
<pdfrwt beam="2">  1       21 0.18535240E-01 0.43620623E+03</pdfrwt>
<totfact> 0.75702984E+04</totfact>
</mgrwt>
</event>
<event>
 7    0  0.4707675E-002  0.4533909E+03  0.7546771E-02  0.1026716E+00
         21   -1    0    0  502  501  0.00000000000E+00  0.00000000000E+00  0.26725689981E+02  0.26725689981E+02  0.00000000000E+00 0.  1.
         21   -1    0    0  501  502 -0.00000000000E+00 -0.00000000000E+00 -0.19228999649E+04  0.19228999649E+04  0.00000000000E+00 0.  1.
      99926    2    1    2    0    0  0.00000000000E+00  0.35527136788E-14 -0.18961742749E+04  0.19496256548E+04  0.45339090562E+03 0.  0.
      99925    2    3    3    0    0  0.96491482197E+02 -0.19957289666E+02 -0.14225967630E+04  0.14499937229E+04  0.26266203919E+03 0.  0.
         25    1    4    4    0    0  0.41936294169E+02  0.33364527951E+01 -0.50258429470E+03  0.51962319624E+03  0.12509000000E+03 0.  0.
         25    1    4    4    0    0  0.54555188028E+02 -0.23293742461E+02 -0.92001246831E+03  0.93037052669E+03  0.12509000000E+03 0.  0.
         25    1    3    3    0    0 -0.96491482197E+02  0.19957289666E+02 -0.47357751187E+03  0.49963193192E+03  0.12509000000E+03 0.  0.
<mgrwt>
<rscale>  2 0.45339091E+03</rscale>
<asrwt>0</asrwt>
<pdfrwt beam="1">  1       21 0.39302468E-02 0.45339091E+03</pdfrwt>
<pdfrwt beam="2">  1       21 0.28277953E+00 0.45339091E+03</pdfrwt>
<totfact> 0.14733066E+04</totfact>
</mgrwt>
</event>
<event>
 6    0  0.4707675E-002  0.4527024E+03  0.7546771E-02  0.1026919E+00
         21   -1    0    0  502  501  0.00000000000E+00  0.00000000000E+00  0.25385931584E+02  0.25385931584E+02  0.00000000000E+00 0.  1.
         21   -1    0    0  501  502 -0.00000000000E+00 -0.00000000000E+00 -0.20182387110E+04  0.20182387110E+04  0.00000000000E+00 0.  1.
      99926    2    1    2    0    0  0.00000000000E+00  0.17763568394E-14 -0.19928527794E+04  0.20436246426E+04  0.45270241810E+03 0.  0.
         25    1    3    3    0    0 -0.81274701580E+02  0.20482685011E+02 -0.43064384763E+03  0.45620910677E+03  0.12509000000E+03 0.  0.
         25    1    3    3    0    0  0.66081754529E+02 -0.11727706913E+02 -0.10647087755E+04  0.10741306355E+04  0.12509000000E+03 0.  0.
         25    1    3    3    0    0  0.15192947051E+02 -0.87549780978E+01 -0.49750015625E+03  0.51328490027E+03  0.12509000000E+03 0.  0.
<mgrwt>
<rscale>  2 0.45270242E+03</rscale>
<asrwt>0</asrwt>
<pdfrwt beam="1">  1       21 0.37332240E-02 0.45270242E+03</pdfrwt>
<pdfrwt beam="2">  1       21 0.29679991E+00 0.45270242E+03</pdfrwt>
<totfact> 0.13245170E+04</totfact>
</mgrwt>
</event>
<event>
 7    0  0.4707675E-002  0.4579241E+03  0.7546771E-02  0.1025385E+00
         21   -1    0    0  502  501  0.00000000000E+00  0.00000000000E+00  0.69474535971E+03  0.69474535971E+03  0.00000000000E+00 0.  1.
         21   -1    0    0  501  502 -0.00000000000E+00 -0.00000000000E+00 -0.75457300068E+02  0.75457300068E+02  0.00000000000E+00 0.  1.
      99926    2    1    2    0    0  0.14210854715E-13  0.00000000000E+00  0.61928805964E+03  0.77020265978E+03  0.45792405081E+03 0.  0.
      99925    2    3    3    0    0  0.69624839016E+02 -0.30708922224E+02  0.53569472807E+03  0.60160251358E+03  0.26299446108E+03 0.  0.
         25    1    3    3    0    0 -0.69624839016E+02  0.30708922224E+02  0.83593331573E+02  0.16860014619E+03  0.12509000000E+03 0.  0.
         25    1    4    4    0    0  0.71377098102E+02 -0.23254561558E+02  0.32878784363E+03  0.35970045731E+03  0.12509000000E+03 0.  0.
         25    1    4    4    0    0 -0.17522590855E+01 -0.74543606652E+01  0.20690688444E+03  0.24190205628E+03  0.12509000000E+03 0.  0.
<mgrwt>
<rscale>  2 0.45792405E+03</rscale>
<asrwt>0</asrwt>
<pdfrwt beam="1">  1       21 0.10216843E+00 0.45792405E+03</pdfrwt>
<pdfrwt beam="2">  1       21 0.11096662E-01 0.45792405E+03</pdfrwt>
<totfact> 0.48125570E+04</totfact>
</mgrwt>
</event>
<event>
 7    0  0.4707675E-002  0.4638374E+03  0.7546771E-02  0.1023674E+00
         21   -1    0    0  502  501  0.00000000000E+00  0.00000000000E+00  0.10515877208E+03  0.10515877208E+03  0.00000000000E+00 0. -1.
         21   -1    0    0  501  502 -0.00000000000E+00 -0.00000000000E+00 -0.51147700857E+03  0.51147700857E+03  0.00000000000E+00 0. -1.
      99926    2    1    2    0    0 -0.14210854715E-13  0.00000000000E+00 -0.40631823649E+03  0.61663578066E+03  0.46383744640E+03 0.  0.
      99925    2    3    3    0    0  0.95531195124E+02 -0.67065820168E+02 -0.20994179515E+03  0.35618377300E+03  0.26299674775E+03 0.  0.
         25    1    3    3    0    0 -0.95531195124E+02  0.67065820168E+02 -0.19637644134E+03  0.26045200765E+03  0.12509000000E+03 0.  0.
         25    1    4    4    0    0  0.30619387453E+02  0.17912947406E+01 -0.73495844483E+02  0.14828992846E+03  0.12509000000E+03 0.  0.
         25    1    4    4    0    0  0.64911807671E+02 -0.68857114909E+02 -0.13644595067E+03  0.20789384455E+03  0.12509000000E+03 0.  0.
<mgrwt>
<rscale>  2 0.46383745E+03</rscale>
<asrwt>0</asrwt>
<pdfrwt beam="1">  1       21 0.15464525E-01 0.46383745E+03</pdfrwt>
<pdfrwt beam="2">  1       21 0.75217208E-01 0.46383745E+03</pdfrwt>
<totfact> 0.53810531E+04</totfact>
</mgrwt>
</event>
<event>
 7    0  0.4707675E-002  0.4477411E+03  0.7546771E-02  0.1028398E+00
         21   -1    0    0  502  501  0.00000000000E+00  0.00000000000E+00  0.85511262524E+03  0.85511262524E+03  0.00000000000E+00 0. -1.
         21   -1    0    0  501  502 -0.00000000000E+00 -0.00000000000E+00 -0.58609852184E+02  0.58609852184E+02  0.00000000000E+00 0. -1.
      99926    2    1    2    0    0  0.00000000000E+00  0.71054273576E-14  0.79650277306E+03  0.91372247743E+03  0.44774110629E+03 0.  0.
      99925    2    3    3    0    0  0.74489180115E+02 -0.51844519288E+02  0.61807579688E+03  0.67767124133E+03  0.26264829812E+03 0.  0.
         25    1    4    4    0    0  0.97833303844E+01 -0.13488647310E+02  0.21924351452E+03  0.25296814803E+03  0.12509000000E+03 0.  0.
         25    1    3    3    0    0 -0.74489180115E+02  0.51844519288E+02  0.17842697618E+03  0.23605123610E+03  0.12509000000E+03 0.  0.
         25    1    4    4    0    0  0.64705849731E+02 -0.38355871978E+02  0.39883228236E+03  0.42470309330E+03  0.12509000000E+03 0.  0.
<mgrwt>
<rscale>  2 0.44774111E+03</rscale>
<asrwt>0</asrwt>
<pdfrwt beam="1">  1       21 0.12575185E+00 0.44774111E+03</pdfrwt>
<pdfrwt beam="2">  1       21 0.86190964E-02 0.44774111E+03</pdfrwt>
<totfact> 0.45156064E+04</totfact>
</mgrwt>
</event>
<event>
 7    0  0.4707675E-002  0.4561477E+03  0.7546771E-02  0.1025904E+00
         21   -1    0    0  502  501  0.00000000000E+00  0.00000000000E+00  0.55124899571E+03  0.55124899571E+03  0.00000000000E+00 0.  1.
         21   -1    0    0  501  502 -0.00000000000E+00 -0.00000000000E+00 -0.94363323735E+02  0.94363323735E+02  0.00000000000E+00 0.  1.
      99926    2    1    2    0    0  0.00000000000E+00 -0.35527136788E-14  0.45688567198E+03  0.64561231945E+03  0.45614772800E+03 0.  0.
      99925    2    3    3    0    0 -0.10562905270E+03  0.25032768742E+02  0.33779583833E+03  0.44161714092E+03  0.26293636963E+03 0.  0.
         25    1    4    4    0    0 -0.28492914981E+02 -0.20795160646E+02  0.16842806109E+03  0.21274351875E+03  0.12509000000E+03 0.  0.
         25    1    3    3    0    0  0.10562905270E+03 -0.25032768742E+02  0.11908983364E+03  0.20399517853E+03  0.12509000000E+03 0.  0.
         25    1    4    4    0    0 -0.77136137717E+02  0.45827929388E+02  0.16936777725E+03  0.22887362217E+03  0.12509000000E+03 0.  0.
<mgrwt>
<rscale>  2 0.45614773E+03</rscale>
<asrwt>0</asrwt>
<pdfrwt beam="1">  1       21 0.81066028E-01 0.45614773E+03</pdfrwt>
<pdfrwt beam="2">  1       21 0.13876960E-01 0.45614773E+03</pdfrwt>
<totfact> 0.55451111E+04</totfact>
</mgrwt>
</event>
<event>
 7    0  0.4707675E-002  0.4546949E+03  0.7546771E-02  0.1026331E+00
         21   -1    0    0  502  501  0.00000000000E+00  0.00000000000E+00  0.42559173472E+03  0.42559173472E+03  0.00000000000E+00 0. -1.
         21   -1    0    0  501  502 -0.00000000000E+00 -0.00000000000E+00 -0.12144704473E+03  0.12144704473E+03  0.00000000000E+00 0. -1.
      99926    2    1    2    0    0  0.00000000000E+00  0.00000000000E+00  0.30414468999E+03  0.54703877945E+03  0.45469487986E+03 0.  0.
      99925    2    3    3    0    0  0.64350664660E+02  0.89941499755E+02  0.21873399820E+03  0.35949418264E+03  0.26298483599E+03 0.  0.
         25    1    3    3    0    0 -0.64350664660E+02 -0.89941499755E+02  0.85410691789E+02  0.18754459681E+03  0.12509000000E+03 0.  0.
         25    1    4    4    0    0  0.56233927045E+01  0.31554339933E+02  0.64532615487E+02  0.14435811538E+03  0.12509000000E+03 0.  0.
         25    1    4    4    0    0  0.58727271956E+02  0.58387159822E+02  0.15420138272E+03  0.21513606726E+03  0.12509000000E+03 0.  0.
<mgrwt>
<rscale>  2 0.45469488E+03</rscale>
<asrwt>0</asrwt>
<pdfrwt beam="1">  1       21 0.62587019E-01 0.45469488E+03</pdfrwt>
<pdfrwt beam="2">  1       21 0.17859860E-01 0.45469488E+03</pdfrwt>
<totfact> 0.62212679E+04</totfact>
</mgrwt>
</event>
<event>
 6    0  0.4707675E-002  0.4572159E+03  0.7546771E-02  0.1025592E+00
         21   -1    0    0  502  501  0.00000000000E+00  0.00000000000E+00  0.13432381185E+04  0.13432381185E+04  0.00000000000E+00 0.  1.
         21   -1    0    0  501  502 -0.00000000000E+00 -0.00000000000E+00 -0.38907177980E+02  0.38907177980E+02  0.00000000000E+00 0.  1.
      99926    2    1    2    0    0  0.00000000000E+00 -0.14210854715E-13  0.13043309405E+04  0.13821452965E+04  0.45721594262E+03 0.  0.
         25    1    3    3    0    0 -0.45220816776E+02  0.82373963021E+02  0.48129464431E+03  0.50608540267E+03  0.12509000000E+03 0.  0.
         25    1    3    3    0    0  0.63052985091E+01  0.12215206446E+02  0.48990025488E+03  0.50580503743E+03  0.12509000000E+03 0.  0.
         25    1    3    3    0    0  0.38915518267E+02 -0.94589169467E+02  0.33313604136E+03  0.37025485641E+03  0.12509000000E+03 0.  0.
<mgrwt>
<rscale>  2 0.45721594E+03</rscale>
<asrwt>0</asrwt>
<pdfrwt beam="1">  1       21 0.19753499E+00 0.45721594E+03</pdfrwt>
<pdfrwt beam="2">  1       21 0.57216447E-02 0.45721594E+03</pdfrwt>
<totfact> 0.26354901E+04</totfact>
</mgrwt>
</event>
<event>
 7    0  0.4707675E-002  0.4580759E+03  0.7546771E-02  0.1025341E+00
         21   -1    0    0  502  501  0.00000000000E+00  0.00000000000E+00  0.90881079838E+02  0.90881079838E+02  0.00000000000E+00 0.  1.
         21   -1    0    0  501  502 -0.00000000000E+00 -0.00000000000E+00 -0.57722013882E+03  0.57722013882E+03  0.00000000000E+00 0.  1.
      99926    2    1    2    0    0  0.71054273576E-14 -0.14210854715E-13 -0.48633905898E+03  0.66810121865E+03  0.45807593047E+03 0.  0.
      99925    2    3    3    0    0  0.46407339506E+02 -0.89514496989E+02 -0.22062990125E+03  0.35759300470E+03  0.26273316760E+03 0.  0.
         25    1    4    4    0    0  0.19178711024E+02 -0.86091390122E+02 -0.12822005558E+03  0.19966832789E+03  0.12509000000E+03 0.  0.
         25    1    3    3    0    0 -0.46407339506E+02  0.89514496989E+02 -0.26570915773E+03  0.31050821395E+03  0.12509000000E+03 0.  0.
         25    1    4    4    0    0  0.27228628482E+02 -0.34231068674E+01 -0.92409845673E+02  0.15792467681E+03  0.12509000000E+03 0.  0.
<mgrwt>
<rscale>  2 0.45807593E+03</rscale>
<asrwt>0</asrwt>
<pdfrwt beam="1">  1       21 0.13364865E-01 0.45807593E+03</pdfrwt>
<pdfrwt beam="2">  1       21 0.84885313E-01 0.45807593E+03</pdfrwt>
<totfact> 0.53363405E+04</totfact>
</mgrwt>
</event>
<event>
 7    0  0.4707675E-002  0.4713798E+03  0.7546771E-02  0.1021532E+00
         21   -1    0    0  502  501  0.00000000000E+00  0.00000000000E+00  0.14428400631E+03  0.14428400631E+03  0.00000000000E+00 0. -1.
         21   -1    0    0  501  502 -0.00000000000E+00 -0.00000000000E+00 -0.38500260808E+03  0.38500260808E+03  0.00000000000E+00 0. -1.
      99926    2    1    2    0    0  0.00000000000E+00  0.00000000000E+00 -0.24071860178E+03  0.52928661439E+03  0.47137975660E+03 0.  0.
      99925    2    3    3    0    0 -0.14077322765E+02 -0.12522606272E+03 -0.17418566521E+03  0.33967153707E+03  0.26297598622E+03 0.  0.
         25    1    4    4    0    0 -0.21761487963E+02 -0.66605392064E+02 -0.44728790541E+02  0.15019325356E+03  0.12509000000E+03 0.  0.
         25    1    4    4    0    0  0.76841651977E+01 -0.58620670656E+02 -0.12945687467E+03  0.18947828351E+03  0.12509000000E+03 0.  0.
         25    1    3    3    0    0  0.14077322765E+02  0.12522606272E+03 -0.66532936568E+02  0.18961507733E+03  0.12509000000E+03 0.  0.
<mgrwt>
<rscale>  2 0.47137976E+03</rscale>
<asrwt>0</asrwt>
<pdfrwt beam="1">  1       21 0.21218236E-01 0.47137976E+03</pdfrwt>
<pdfrwt beam="2">  1       21 0.56618030E-01 0.47137976E+03</pdfrwt>
<totfact> 0.55665375E+04</totfact>
</mgrwt>
</event>
<event>
 7    0  0.4707675E-002  0.4530716E+03  0.7546771E-02  0.1026810E+00
         21   -1    0    0  502  501  0.00000000000E+00  0.00000000000E+00  0.39370960771E+03  0.39370960771E+03  0.00000000000E+00 0.  1.
         21   -1    0    0  501  502 -0.00000000000E+00 -0.00000000000E+00 -0.13034598162E+03  0.13034598162E+03  0.00000000000E+00 0.  1.
      99926    2    1    2    0    0  0.00000000000E+00  0.00000000000E+00  0.26336362609E+03  0.52405558933E+03  0.45307158503E+03 0.  0.
      99925    2    3    3    0    0 -0.88240134499E+01  0.67251051757E+02  0.26875156272E+03  0.38165788873E+03  0.26236382065E+03 0.  0.
         25    1    4    4    0    0 -0.26235060599E+02  0.31282957200E+01  0.14758598851E+03  0.19526186710E+03  0.12509000000E+03 0.  0.
         25    1    3    3    0    0  0.88240134499E+01 -0.67251051757E+02 -0.53879366316E+01  0.14239770060E+03  0.12509000000E+03 0.  0.
         25    1    4    4    0    0  0.17411047150E+02  0.64122756037E+02  0.12116557421E+03  0.18639602163E+03  0.12509000000E+03 0.  0.
<mgrwt>
<rscale>  2 0.45307159E+03</rscale>
<asrwt>0</asrwt>
<pdfrwt beam="1">  1       21 0.57898471E-01 0.45307159E+03</pdfrwt>
<pdfrwt beam="2">  1       21 0.19168527E-01 0.45307159E+03</pdfrwt>
<totfact> 0.64592500E+04</totfact>
</mgrwt>
</event>
<event>
 7    0  0.4707675E-002  0.4180739E+03  0.7546771E-02  0.1037695E+00
         21   -1    0    0  502  501  0.00000000000E+00  0.00000000000E+00  0.16571985338E+03  0.16571985338E+03  0.00000000000E+00 0.  1.
         21   -1    0    0  501  502 -0.00000000000E+00 -0.00000000000E+00 -0.26367653200E+03  0.26367653200E+03  0.00000000000E+00 0.  1.
      99926    2    1    2    0    0  0.00000000000E+00  0.35527136788E-14 -0.97956678615E+02  0.42939638538E+03  0.41807385100E+03 0.  0.
      99925    2    3    3    0    0  0.45535477238E+02 -0.26784551791E+02 -0.11634465044E+03  0.29236895196E+03  0.26296888500E+03 0.  0.
         25    1    4    4    0    0  0.20557626919E+02  0.22562564358E+02 -0.77097730329E+02  0.15007749151E+03  0.12509000000E+03 0.  0.
         25    1    3    3    0    0 -0.45535477238E+02  0.26784551791E+02  0.18387971830E+02  0.13702743342E+03  0.12509000000E+03 0.  0.
         25    1    4    4    0    0  0.24977850319E+02 -0.49347116149E+02 -0.39246920116E+02  0.14229146045E+03  0.12509000000E+03 0.  0.
<mgrwt>
<rscale>  2 0.41807385E+03</rscale>
<asrwt>0</asrwt>
<pdfrwt beam="1">  1       21 0.24370567E-01 0.41807385E+03</pdfrwt>
<pdfrwt beam="2">  1       21 0.38775960E-01 0.41807385E+03</pdfrwt>
<totfact> 0.95673218E+04</totfact>
</mgrwt>
</event>
<event>
 6    0  0.4707675E-002  0.4513117E+03  0.7546771E-02  0.1027332E+00
         21   -1    0    0  502  501  0.00000000000E+00  0.00000000000E+00  0.88017188969E+03  0.88017188969E+03  0.00000000000E+00 0. -1.
         21   -1    0    0  501  502 -0.00000000000E+00 -0.00000000000E+00 -0.57852975567E+02  0.57852975567E+02  0.00000000000E+00 0. -1.
      99926    2    1    2    0    0  0.00000000000E+00  0.00000000000E+00  0.82231891412E+03  0.93802486525E+03  0.45131170084E+03 0.  0.
         25    1    3    3    0    0 -0.16185788633E+02  0.98853142072E+02  0.33266021840E+03  0.36924822607E+03  0.12509000000E+03 0.  0.
         25    1    3    3    0    0  0.19198552522E+02 -0.10068916984E+03  0.23837861710E+03  0.28806035224E+03  0.12509000000E+03 0.  0.
         25    1    3    3    0    0 -0.30127638888E+01  0.18360277671E+01  0.25128007862E+03  0.28071628694E+03  0.12509000000E+03 0.  0.
<mgrwt>
<rscale>  2 0.45131170E+03</rscale>
<asrwt>0</asrwt>
<pdfrwt beam="1">  1       21 0.12943703E+00 0.45131170E+03</pdfrwt>
<pdfrwt beam="2">  1       21 0.85077911E-02 0.45131170E+03</pdfrwt>
<totfact> 0.42852355E+04</totfact>
</mgrwt>
</event>
<event>
 7    0  0.4707675E-002  0.4434028E+03  0.7546771E-02  0.1029708E+00
         21   -1    0    0  502  501  0.00000000000E+00  0.00000000000E+00  0.11041102895E+03  0.11041102895E+03  0.00000000000E+00 0. -1.
         21   -1    0    0  501  502 -0.00000000000E+00 -0.00000000000E+00 -0.44516848918E+03  0.44516848918E+03  0.00000000000E+00 0. -1.
      99926    2    1    2    0    0  0.00000000000E+00  0.00000000000E+00 -0.33475746023E+03  0.55557951813E+03  0.44340280083E+03 0.  0.
      99925    2    3    3    0    0 -0.85148146924E+02  0.55253358052E+02 -0.20924856199E+03  0.35136607063E+03  0.26338187940E+03 0.  0.
         25    1    4    4    0    0 -0.14289786440E+02 -0.32173821018E+01 -0.78279339294E+02  0.14828928688E+03  0.12509000000E+03 0.  0.
         25    1    4    4    0    0 -0.70858360484E+02  0.58470740154E+02 -0.13096922269E+03  0.20307678375E+03  0.12509000000E+03 0.  0.
         25    1    3    3    0    0  0.85148146924E+02 -0.55253358052E+02 -0.12550889824E+03  0.20421344750E+03  0.12509000000E+03 0.  0.
<mgrwt>
<rscale>  2 0.44340280E+03</rscale>
<asrwt>0</asrwt>
<pdfrwt beam="1">  1       21 0.16236916E-01 0.44340280E+03</pdfrwt>
<pdfrwt beam="2">  1       21 0.65465956E-01 0.44340280E+03</pdfrwt>
<totfact> 0.67480206E+04</totfact>
</mgrwt>
</event>
<event>
 7    0  0.4707675E-002  0.4541354E+03  0.7546771E-02  0.1026496E+00
         21   -1    0    0  502  501  0.00000000000E+00  0.00000000000E+00  0.81890763104E+03  0.81890763104E+03  0.00000000000E+00 0. -1.
         21   -1    0    0  501  502 -0.00000000000E+00 -0.00000000000E+00 -0.62961611734E+02  0.62961611734E+02  0.00000000000E+00 0. -1.
      99926    2    1    2    0    0  0.00000000000E+00 -0.88817841970E-15  0.75594601931E+03  0.88186924277E+03  0.45413541730E+03 0.  0.
      99925    2    3    3    0    0  0.11205142763E+03  0.74688558565E+01  0.47627046884E+03  0.55556075703E+03  0.26306441990E+03 0.  0.
         25    1    3    3    0    0 -0.11205142763E+03 -0.74688558565E+01  0.27967555047E+03  0.32630848575E+03  0.12509000000E+03 0.  0.
         25    1    4    4    0    0  0.79557007150E+02  0.16173504271E+02  0.31653713912E+03  0.34990594188E+03  0.12509000000E+03 0.  0.
         25    1    4    4    0    0  0.32494420480E+02 -0.87046484147E+01  0.15973332972E+03  0.20565481514E+03  0.12509000000E+03 0.  0.
<mgrwt>
<rscale>  2 0.45413542E+03</rscale>
<asrwt>0</asrwt>
<pdfrwt beam="1">  1       21 0.12042759E+00 0.45413542E+03</pdfrwt>
<pdfrwt beam="2">  1       21 0.92590610E-02 0.45413542E+03</pdfrwt>
<totfact> 0.44326287E+04</totfact>
</mgrwt>
</event>
<event>
 7    0  0.4707675E-002  0.4551423E+03  0.7546771E-02  0.1026200E+00
         21   -1    0    0  502  501  0.00000000000E+00  0.00000000000E+00  0.42453364655E+03  0.42453364655E+03  0.00000000000E+00 0. -1.
         21   -1    0    0  501  502 -0.00000000000E+00 -0.00000000000E+00 -0.12198947549E+03  0.12198947549E+03  0.00000000000E+00 0. -1.
      99926    2    1    2    0    0  0.00000000000E+00  0.00000000000E+00  0.30254417106E+03  0.54652312204E+03  0.45514233761E+03 0.  0.
      99925    2    3    3    0    0  0.81336522939E+02 -0.77401282066E+02  0.20842859130E+03  0.35387878944E+03  0.26302306270E+03 0.  0.
         25    1    4    4    0    0  0.73343445090E+02 -0.23311460263E+02  0.13173992390E+03  0.19729571908E+03  0.12509000000E+03 0.  0.
         25    1    4    4    0    0  0.79930778488E+01 -0.54089821803E+02  0.76688667405E+02  0.15658307036E+03  0.12509000000E+03 0.  0.
         25    1    3    3    0    0 -0.81336522939E+02  0.77401282066E+02  0.94115579755E+02  0.19264433260E+03  0.12509000000E+03 0.  0.
<mgrwt>
<rscale>  2 0.45514234E+03</rscale>
<asrwt>0</asrwt>
<pdfrwt beam="1">  1       21 0.62431418E-01 0.45514234E+03</pdfrwt>
<pdfrwt beam="2">  1       21 0.17939629E-01 0.45514234E+03</pdfrwt>
<totfact> 0.62026965E+04</totfact>
</mgrwt>
</event>
<event>
 7    0  0.4707675E-002  0.4516565E+03  0.7546771E-02  0.1027229E+00
         21   -1    0    0  502  501  0.00000000000E+00  0.00000000000E+00  0.61963215632E+03  0.61963215632E+03  0.00000000000E+00 0. -1.
         21   -1    0    0  501  502 -0.00000000000E+00 -0.00000000000E+00 -0.82304303659E+02  0.82304303659E+02  0.00000000000E+00 0. -1.
      99926    2    1    2    0    0  0.00000000000E+00  0.00000000000E+00  0.53732785266E+03  0.70193645998E+03  0.45165647632E+03 0.  0.
      99925    2    3    3    0    0 -0.43336048698E+02 -0.89419761486E+02  0.26612302274E+03  0.38717706817E+03  0.26307928847E+03 0.  0.
         25    1    3    3    0    0  0.43336048698E+02  0.89419761486E+02  0.27120482992E+03  0.31475939181E+03  0.12509000000E+03 0.  0.
         25    1    4    4    0    0 -0.45143655206E+02 -0.24106551005E+02  0.16640242449E+03  0.21437432305E+03  0.12509000000E+03 0.  0.
         25    1    4    4    0    0  0.18076065089E+01 -0.65313210481E+02  0.99720598244E+02  0.17280274511E+03  0.12509000000E+03 0.  0.
<mgrwt>
<rscale>  2 0.45165648E+03</rscale>
<asrwt>0</asrwt>
<pdfrwt beam="1">  1       21 0.91122374E-01 0.45165648E+03</pdfrwt>
<pdfrwt beam="2">  1       21 0.12103574E-01 0.45165648E+03</pdfrwt>
<totfact> 0.54210263E+04</totfact>
</mgrwt>
</event>
<event>
 7    0  0.4707675E-002  0.4527950E+03  0.7546771E-02  0.1026892E+00
         21   -1    0    0  502  501  0.00000000000E+00  0.00000000000E+00  0.48964179237E+02  0.48964179237E+02  0.00000000000E+00 0.  1.
         21   -1    0    0  501  502 -0.00000000000E+00 -0.00000000000E+00 -0.10468027390E+04  0.10468027390E+04  0.00000000000E+00 0.  1.
      99926    2    1    2    0    0  0.00000000000E+00  0.00000000000E+00 -0.99783855980E+03  0.10957669183E+04  0.45279503946E+03 0.  0.
      99925    2    3    3    0    0 -0.78454317135E+02 -0.74617902904E+01 -0.81873756772E+03  0.86352688801E+03  0.26293863036E+03 0.  0.
         25    1    3    3    0    0  0.78454317135E+02  0.74617902904E+01 -0.17910099209E+03  0.23224003027E+03  0.12509000000E+03 0.  0.
         25    1    4    4    0    0 -0.31418921112E+02  0.27308668266E+00 -0.27793057893E+03  0.30639865859E+03  0.12509000000E+03 0.  0.
         25    1    4    4    0    0 -0.47035396023E+02 -0.77348769731E+01 -0.54080698878E+03  0.55712822942E+03  0.12509000000E+03 0.  0.
<mgrwt>
<rscale>  2 0.45279504E+03</rscale>
<asrwt>0</asrwt>
<pdfrwt beam="1">  1       21 0.72006144E-02 0.45279504E+03</pdfrwt>
<pdfrwt beam="2">  1       21 0.15394158E+00 0.45279504E+03</pdfrwt>
<totfact> 0.36261136E+04</totfact>
</mgrwt>
</event>
<event>
 7    0  0.4707675E-002  0.4606718E+03  0.7546771E-02  0.1024587E+00
         21   -1    0    0  502  501  0.00000000000E+00  0.00000000000E+00  0.19931989921E+03  0.19931989921E+03  0.00000000000E+00 0.  1.
         21   -1    0    0  501  502 -0.00000000000E+00 -0.00000000000E+00 -0.26617829220E+03  0.26617829220E+03  0.00000000000E+00 0.  1.
      99926    2    1    2    0    0  0.00000000000E+00  0.00000000000E+00 -0.66858392991E+02  0.46549819142E+03  0.46067181539E+03 0.  0.
      99925    2    3    3    0    0  0.77692195551E+02 -0.73006389187E+02  0.10052102349E+02  0.28403540596E+03  0.26307614291E+03 0.  0.
         25    1    4    4    0    0  0.40267055663E+02 -0.45646937778E+02 -0.34608712462E+02  0.14335393186E+03  0.12509000000E+03 0.  0.
         25    1    3    3    0    0 -0.77692195551E+02  0.73006389187E+02 -0.76910495340E+02  0.18146278546E+03  0.12509000000E+03 0.  0.
         25    1    4    4    0    0  0.37425139888E+02 -0.27359451409E+02  0.44660814811E+02  0.14068147411E+03  0.12509000000E+03 0.  0.
<mgrwt>
<rscale>  2 0.46067182E+03</rscale>
<asrwt>0</asrwt>
<pdfrwt beam="1">  1       21 0.29311750E-01 0.46067182E+03</pdfrwt>
<pdfrwt beam="2">  1       21 0.39143866E-01 0.46067182E+03</pdfrwt>
<totfact> 0.64800737E+04</totfact>
</mgrwt>
</event>
<event>
 7    0  0.4707675E-002  0.4502767E+03  0.7546771E-02  0.1027640E+00
         21   -1    0    0  502  501  0.00000000000E+00  0.00000000000E+00  0.10851834629E+03  0.10851834629E+03  0.00000000000E+00 0. -1.
         21   -1    0    0  501  502 -0.00000000000E+00 -0.00000000000E+00 -0.46708490864E+03  0.46708490864E+03  0.00000000000E+00 0. -1.
      99926    2    1    2    0    0 -0.14210854715E-13  0.00000000000E+00 -0.35856656235E+03  0.57560325493E+03  0.45027672319E+03 0.  0.
      99925    2    3    3    0    0  0.64107913856E+02  0.86526986223E+02 -0.20871683915E+03  0.35267009991E+03  0.26309073808E+03 0.  0.
         25    1    4    4    0    0  0.58624250909E+02  0.34594442210E+02 -0.14376377130E+03  0.20235886011E+03  0.12509000000E+03 0.  0.
         25    1    4    4    0    0  0.54836629477E+01  0.51932544013E+02 -0.64953067846E+02  0.15031123980E+03  0.12509000000E+03 0.  0.
         25    1    3    3    0    0 -0.64107913856E+02 -0.86526986223E+02 -0.14984972320E+03  0.22293315502E+03  0.12509000000E+03 0.  0.
<mgrwt>
<rscale>  2 0.45027672E+03</rscale>
<asrwt>0</asrwt>
<pdfrwt beam="1">  1       21 0.15958580E-01 0.45027672E+03</pdfrwt>
<pdfrwt beam="2">  1       21 0.68688957E-01 0.45027672E+03</pdfrwt>
<totfact> 0.62507480E+04</totfact>
</mgrwt>
</event>
<event>
 7    0  0.4707675E-002  0.4552029E+03  0.7546771E-02  0.1026182E+00
         21   -1    0    0  502  501  0.00000000000E+00  0.00000000000E+00  0.28111403280E+03  0.28111403280E+03  0.00000000000E+00 0.  1.
         21   -1    0    0  501  502 -0.00000000000E+00 -0.00000000000E+00 -0.18427549394E+03  0.18427549394E+03  0.00000000000E+00 0.  1.
      99926    2    1    2    0    0 -0.14210854715E-13  0.35527136788E-14  0.96838538861E+02  0.46538952674E+03  0.45520293166E+03 0.  0.
      99925    2    3    3    0    0  0.64047223209E+02 -0.16013962509E+02  0.15510110008E+03  0.31241721573E+03  0.26303929676E+03 0.  0.
         25    1    4    4    0    0  0.59038271908E+02 -0.39347706695E+02  0.79527045703E+02  0.16433447195E+03  0.12509000000E+03 0.  0.
         25    1    4    4    0    0  0.50089513009E+01  0.23333744187E+02  0.75574054375E+02  0.14808274378E+03  0.12509000000E+03 0.  0.
         25    1    3    3    0    0 -0.64047223209E+02  0.16013962509E+02 -0.58262561217E+02  0.15297231101E+03  0.12509000000E+03 0.  0.
<mgrwt>
<rscale>  2 0.45520293E+03</rscale>
<asrwt>0</asrwt>
<pdfrwt beam="1">  1       21 0.41340299E-01 0.45520293E+03</pdfrwt>
<pdfrwt beam="2">  1       21 0.27099337E-01 0.45520293E+03</pdfrwt>
<totfact> 0.67671813E+04</totfact>
</mgrwt>
</event>
<event>
 7    0  0.4707675E-002  0.4574944E+03  0.7546771E-02  0.1025510E+00
         21   -1    0    0  502  501  0.00000000000E+00  0.00000000000E+00  0.17565508139E+03  0.17565508139E+03  0.00000000000E+00 0. -1.
         21   -1    0    0  501  502 -0.00000000000E+00 -0.00000000000E+00 -0.29788650841E+03  0.29788650841E+03  0.00000000000E+00 0. -1.
      99926    2    1    2    0    0  0.00000000000E+00  0.00000000000E+00 -0.12223142702E+03  0.47354158980E+03  0.45749438851E+03 0.  0.
      99925    2    3    3    0    0  0.10548854092E+03  0.44831689483E+01 -0.12504425878E+03  0.30982429936E+03  0.26307242111E+03 0.  0.
         25    1    4    4    0    0  0.71813306542E+02  0.38197981904E+02 -0.74120677405E+02  0.16660618157E+03  0.12509000000E+03 0.  0.
         25    1    4    4    0    0  0.33675234374E+02 -0.33714812955E+02 -0.50923581373E+02  0.14321811779E+03  0.12509000000E+03 0.  0.
         25    1    3    3    0    0 -0.10548854092E+03 -0.44831689483E+01  0.28128317590E+01  0.16371729045E+03  0.12509000000E+03 0.  0.
<mgrwt>
<rscale>  2 0.45749439E+03</rscale>
<asrwt>0</asrwt>
<pdfrwt beam="1">  1       21 0.25831630E-01 0.45749439E+03</pdfrwt>
<pdfrwt beam="2">  1       21 0.43806839E-01 0.45749439E+03</pdfrwt>
<totfact> 0.65860215E+04</totfact>
</mgrwt>
</event>
<event>
 7    0  0.4707675E-002  0.4448608E+03  0.7546771E-02  0.1029266E+00
         21   -1    0    0  502  501  0.00000000000E+00  0.00000000000E+00  0.15659164610E+04  0.15659164610E+04  0.00000000000E+00 0.  1.
         21   -1    0    0  501  502 -0.00000000000E+00 -0.00000000000E+00 -0.31595095710E+02  0.31595095710E+02  0.00000000000E+00 0.  1.
      99926    2    1    2    0    0  0.00000000000E+00 -0.71054273576E-14  0.15343213653E+04  0.15975115567E+04  0.44486078928E+03 0.  0.
      99925    2    3    3    0    0  0.26571267847E+02 -0.62393511990E+02  0.69465297262E+03  0.74587225492E+03  0.26302791804E+03 0.  0.
         25    1    4    4    0    0 -0.11849553589E+02 -0.31858855793E-01  0.35497450222E+03  0.37655652732E+03  0.12509000000E+03 0.  0.
         25    1    4    4    0    0  0.38420821436E+02 -0.62361653134E+02  0.33967847040E+03  0.36931572760E+03  0.12509000000E+03 0.  0.
         25    1    3    3    0    0 -0.26571267847E+02  0.62393511990E+02  0.83966839264E+03  0.85163930177E+03  0.12509000000E+03 0.  0.
<mgrwt>
<rscale>  2 0.44486079E+03</rscale>
<asrwt>0</asrwt>
<pdfrwt beam="1">  1       21 0.23028178E+00 0.44486079E+03</pdfrwt>
<pdfrwt beam="2">  1       21 0.46463387E-02 0.44486079E+03</pdfrwt>
<totfact> 0.23264557E+04</totfact>
</mgrwt>
</event>
<event>
 7    0  0.4707675E-002  0.4688638E+03  0.7546771E-02  0.1022241E+00
         21   -1    0    0  502  501  0.00000000000E+00  0.00000000000E+00  0.20094163973E+03  0.20094163973E+03  0.00000000000E+00 0.  1.
         21   -1    0    0  501  502 -0.00000000000E+00 -0.00000000000E+00 -0.27350381135E+03  0.27350381135E+03  0.00000000000E+00 0.  1.
      99926    2    1    2    0    0  0.00000000000E+00  0.00000000000E+00 -0.72562171610E+02  0.47444545108E+03  0.46886375132E+03 0.  0.
      99925    2    3    3    0    0 -0.91606813085E+02 -0.34039671500E+02  0.34953348607E+02  0.28272272779E+03  0.26298269295E+03 0.  0.
         25    1    4    4    0    0 -0.52246711556E+02 -0.25848012645E+02 -0.21585212305E+02  0.13968274094E+03  0.12509000000E+03 0.  0.
         25    1    3    3    0    0  0.91606813085E+02  0.34039671500E+02 -0.10751552022E+03  0.19172272329E+03  0.12509000000E+03 0.  0.
         25    1    4    4    0    0 -0.39360101529E+02 -0.81916588552E+01  0.56538560912E+02  0.14303998685E+03  0.12509000000E+03 0.  0.
<mgrwt>
<rscale>  2 0.46886375E+03</rscale>
<asrwt>0</asrwt>
<pdfrwt beam="1">  1       21 0.29550241E-01 0.46886375E+03</pdfrwt>
<pdfrwt beam="2">  1       21 0.40221149E-01 0.46886375E+03</pdfrwt>
<totfact> 0.60201384E+04</totfact>
</mgrwt>
</event>
<event>
 7    0  0.4707675E-002  0.4665883E+03  0.7546771E-02  0.1022888E+00
         21   -1    0    0  502  501  0.00000000000E+00  0.00000000000E+00  0.22226801460E+03  0.22226801460E+03  0.00000000000E+00 0. -1.
         21   -1    0    0  501  502 -0.00000000000E+00 -0.00000000000E+00 -0.24486721572E+03  0.24486721572E+03  0.00000000000E+00 0. -1.
      99926    2    1    2    0    0  0.00000000000E+00  0.88817841970E-15 -0.22599201121E+02  0.46713523032E+03  0.46658825480E+03 0.  0.
      99925    2    3    3    0    0  0.10020372694E+03 -0.70809363230E+01 -0.87952763385E+02  0.29390266193E+03  0.26182467330E+03 0.  0.
         25    1    3    3    0    0 -0.10020372694E+03  0.70809363230E+01  0.65353562264E+02  0.17323256839E+03  0.12509000000E+03 0.  0.
         25    1    4    4    0    0  0.50667253201E+02  0.80175164304E+01 -0.53466877973E+01  0.13530538159E+03  0.12509000000E+03 0.  0.
         25    1    4    4    0    0  0.49536473738E+02 -0.15098452753E+02 -0.82606075588E+02  0.15859728034E+03  0.12509000000E+03 0.  0.
<mgrwt>
<rscale>  2 0.46658825E+03</rscale>
<asrwt>0</asrwt>
<pdfrwt beam="1">  1       21 0.32686473E-01 0.46658825E+03</pdfrwt>
<pdfrwt beam="2">  1       21 0.36009885E-01 0.46658825E+03</pdfrwt>
<totfact> 0.61755243E+04</totfact>
</mgrwt>
</event>
<event>
 7    0  0.4707675E-002  0.4549977E+03  0.7546771E-02  0.1026242E+00
         21   -1    0    0  502  501  0.00000000000E+00  0.00000000000E+00  0.22817036008E+03  0.22817036008E+03  0.00000000000E+00 0. -1.
         21   -1    0    0  501  502 -0.00000000000E+00 -0.00000000000E+00 -0.22682929383E+03  0.22682929383E+03  0.00000000000E+00 0. -1.
      99926    2    1    2    0    0 -0.71054273576E-14  0.00000000000E+00  0.13410662414E+01  0.45499965391E+03  0.45499767757E+03 0.  0.
      99925    2    3    3    0    0 -0.50154426504E+02 -0.43260091147E+01  0.10220268823E+03  0.28661094959E+03  0.26299480240E+03 0.  0.
         25    1    4    4    0    0 -0.34813076233E+02 -0.23334089164E+02  0.16335324200E+02  0.13293148954E+03  0.12509000000E+03 0.  0.
         25    1    3    3    0    0  0.50154426504E+02  0.43260091147E+01 -0.10086162199E+03  0.16838870432E+03  0.12509000000E+03 0.  0.
         25    1    4    4    0    0 -0.15341350270E+02  0.19008080050E+02  0.85867364031E+02  0.15367946005E+03  0.12509000000E+03 0.  0.
<mgrwt>
<rscale>  2 0.45499768E+03</rscale>
<asrwt>0</asrwt>
<pdfrwt beam="1">  1       21 0.33554465E-01 0.45499768E+03</pdfrwt>
<pdfrwt beam="2">  1       21 0.33357249E-01 0.45499768E+03</pdfrwt>
<totfact> 0.68547085E+04</totfact>
</mgrwt>
</event>
<event>
 7    0  0.4707675E-002  0.4568171E+03  0.7546771E-02  0.1025708E+00
         21   -1    0    0  502  501  0.00000000000E+00  0.00000000000E+00  0.34386272303E+03  0.34386272303E+03  0.00000000000E+00 0.  1.
         21   -1    0    0  501  502 -0.00000000000E+00 -0.00000000000E+00 -0.15171889851E+03  0.15171889851E+03  0.00000000000E+00 0.  1.
      99926    2    1    2    0    0  0.00000000000E+00  0.00000000000E+00  0.19214382452E+03  0.49558162154E+03  0.45681713443E+03 0.  0.
      99925    2    3    3    0    0  0.74400922149E+02  0.12440487951E+02  0.21473444044E+03  0.34777056991E+03  0.26295099624E+03 0.  0.
         25    1    3    3    0    0 -0.74400922149E+02 -0.12440487951E+02 -0.22590615926E+02  0.14781105163E+03  0.12509000000E+03 0.  0.
         25    1    4    4    0    0  0.40371401516E+02  0.46267550644E+02  0.10232073783E+03  0.17288024119E+03  0.12509000000E+03 0.  0.
         25    1    4    4    0    0  0.34029520633E+02 -0.33827062693E+02  0.11241370261E+03  0.17489032872E+03  0.12509000000E+03 0.  0.
<mgrwt>
<rscale>  2 0.45681713E+03</rscale>
<asrwt>0</asrwt>
<pdfrwt beam="1">  1       21 0.50568048E-01 0.45681713E+03</pdfrwt>
<pdfrwt beam="2">  1       21 0.22311603E-01 0.45681713E+03</pdfrwt>
<totfact> 0.64644617E+04</totfact>
</mgrwt>
</event>
<event>
 7    0  0.4707675E-002  0.4579944E+03  0.7546771E-02  0.1025364E+00
         21   -1    0    0  502  501  0.00000000000E+00  0.00000000000E+00  0.11381610541E+03  0.11381610541E+03  0.00000000000E+00 0.  1.
         21   -1    0    0  501  502 -0.00000000000E+00 -0.00000000000E+00 -0.46074080031E+03  0.46074080031E+03  0.00000000000E+00 0.  1.
      99926    2    1    2    0    0 -0.35527136788E-14 -0.14210854715E-13 -0.34692469490E+03  0.57455690571E+03  0.45799442570E+03 0.  0.
      99925    2    3    3    0    0  0.22071630727E+02  0.99498353818E+02 -0.14837439945E+03  0.31871162587E+03  0.26301151830E+03 0.  0.
         25    1    3    3    0    0 -0.22071630727E+02 -0.99498353818E+02 -0.19855029545E+03  0.25584527984E+03  0.12509000000E+03 0.  0.
         25    1    4    4    0    0 -0.27323372310E+02  0.47807812190E+02 -0.87601985854E+02  0.16233844155E+03  0.12509000000E+03 0.  0.
         25    1    4    4    0    0  0.49395003037E+02  0.51690541628E+02 -0.60772413597E+02  0.15637318432E+03  0.12509000000E+03 0.  0.
<mgrwt>
<rscale>  2 0.45799443E+03</rscale>
<asrwt>0</asrwt>
<pdfrwt beam="1">  1       21 0.16737663E-01 0.45799443E+03</pdfrwt>
<pdfrwt beam="2">  1       21 0.67756000E-01 0.45799443E+03</pdfrwt>
<totfact> 0.58866152E+04</totfact>
</mgrwt>
</event>
<event>
 7    0  0.4707675E-002  0.4428566E+03  0.7546771E-02  0.1029874E+00
         21   -1    0    0  502  501  0.00000000000E+00  0.00000000000E+00  0.61164414153E+03  0.61164414153E+03  0.00000000000E+00 0. -1.
         21   -1    0    0  501  502 -0.00000000000E+00 -0.00000000000E+00 -0.80161785858E+02  0.80161785858E+02  0.00000000000E+00 0. -1.
      99926    2    1    2    0    0  0.44408920985E-15  0.00000000000E+00  0.53148235567E+03  0.69180592739E+03  0.44285657585E+03 0.  0.
      99925    2    3    3    0    0 -0.12216980156E+01  0.10104473171E+03  0.35019560949E+03  0.44947573366E+03  0.26302079744E+03 0.  0.
         25    1    3    3    0    0  0.12216980156E+01 -0.10104473171E+03  0.18128674618E+03  0.24233019373E+03  0.12509000000E+03 0.  0.
         25    1    4    4    0    0  0.49070276255E+01  0.17255564291E+02  0.11946924071E+03  0.17390296431E+03  0.12509000000E+03 0.  0.
         25    1    4    4    0    0 -0.61287256411E+01  0.83789167423E+02  0.23072636878E+03  0.27557276935E+03  0.12509000000E+03 0.  0.
<mgrwt>
<rscale>  2 0.44285658E+03</rscale>
<asrwt>0</asrwt>
<pdfrwt beam="1">  1       21 0.89947665E-01 0.44285658E+03</pdfrwt>
<pdfrwt beam="2">  1       21 0.11788498E-01 0.44285658E+03</pdfrwt>
<totfact> 0.58769414E+04</totfact>
</mgrwt>
</event>
<event>
 7    0  0.4707675E-002  0.4537127E+03  0.7546771E-02  0.1026621E+00
         21   -1    0    0  502  501  0.00000000000E+00  0.00000000000E+00  0.39639502309E+03  0.39639502309E+03  0.00000000000E+00 0. -1.
         21   -1    0    0  501  502 -0.00000000000E+00 -0.00000000000E+00 -0.12982961349E+03  0.12982961349E+03  0.00000000000E+00 0. -1.
      99926    2    1    2    0    0  0.00000000000E+00  0.71054273576E-14  0.26656540960E+03  0.52622463659E+03  0.45371274013E+03 0.  0.
      99925    2    3    3    0    0  0.85623884687E+02 -0.63341781146E+02  0.20800355993E+03  0.35180953058E+03  0.26298447481E+03 0.  0.
         25    1    4    4    0    0  0.15480097882E+02 -0.12788424204E+02  0.12754030976E+03  0.17976989720E+03  0.12509000000E+03 0.  0.
         25    1    4    4    0    0  0.70143786805E+02 -0.50553356942E+02  0.80463250169E+02  0.17203963338E+03  0.12509000000E+03 0.  0.
         25    1    3    3    0    0 -0.85623884687E+02  0.63341781146E+02  0.58561849663E+02  0.17441510601E+03  0.12509000000E+03 0.  0.
<mgrwt>
<rscale>  2 0.45371274E+03</rscale>
<asrwt>0</asrwt>
<pdfrwt beam="1">  1       21 0.58293385E-01 0.45371274E+03</pdfrwt>
<pdfrwt beam="2">  1       21 0.19092590E-01 0.45371274E+03</pdfrwt>
<totfact> 0.64114547E+04</totfact>
</mgrwt>
</event>
<event>
 7    0  0.4707675E-002  0.4220396E+03  0.7546771E-02  0.1036405E+00
         21   -1    0    0  502  501  0.00000000000E+00  0.00000000000E+00  0.82669433267E+02  0.82669433267E+02  0.00000000000E+00 0. -1.
         21   -1    0    0  501  502 -0.00000000000E+00 -0.00000000000E+00 -0.53864344907E+03  0.53864344907E+03  0.00000000000E+00 0. -1.
      99926    2    1    2    0    0  0.00000000000E+00  0.14210854715E-13 -0.45597401581E+03  0.62131288234E+03  0.42203956529E+03 0.  0.
      99925    2    3    3    0    0 -0.40233170674E+02  0.67244559752E+02 -0.29724738983E+03  0.40455913097E+03  0.26300483047E+03 0.  0.
         25    1    3    3    0    0  0.40233170674E+02 -0.67244559752E+02 -0.15872662597E+03  0.21675375137E+03  0.12509000000E+03 0.  0.
         25    1    4    4    0    0 -0.38659858022E+02  0.65596919383E+02 -0.18918663944E+03  0.23924178794E+03  0.12509000000E+03 0.  0.
         25    1    4    4    0    0 -0.15733126515E+01  0.16476403687E+01 -0.10806075039E+03  0.16531734303E+03  0.12509000000E+03 0.  0.
<mgrwt>
<rscale>  2 0.42203957E+03</rscale>
<asrwt>0</asrwt>
<pdfrwt beam="1">  1       21 0.12157269E-01 0.42203957E+03</pdfrwt>
<pdfrwt beam="2">  1       21 0.79212273E-01 0.42203957E+03</pdfrwt>
<totfact> 0.75095727E+04</totfact>
</mgrwt>
</event>
<event>
 7    0  0.4707675E-002  0.4561509E+03  0.7546771E-02  0.1025903E+00
         21   -1    0    0  502  501  0.00000000000E+00  0.00000000000E+00  0.61996199682E+02  0.61996199682E+02  0.00000000000E+00 0.  1.
         21   -1    0    0  501  502 -0.00000000000E+00 -0.00000000000E+00 -0.83905815307E+03  0.83905815307E+03  0.00000000000E+00 0.  1.
      99926    2    1    2    0    0 -0.35527136788E-14  0.00000000000E+00 -0.77706195339E+03  0.90105435276E+03  0.45615092591E+03 0.  0.
      99925    2    3    3    0    0 -0.25588136038E+02  0.39378075484E+02 -0.69422741548E+03  0.74384603776E+03  0.26296356771E+03 0.  0.
         25    1    3    3    0    0  0.25588136038E+02 -0.39378075484E+02 -0.82834537908E+02  0.15720831500E+03  0.12509000000E+03 0.  0.
         25    1    4    4    0    0 -0.23099968194E+02 -0.13896926424E+02 -0.39397774299E+03  0.41423749609E+03  0.12509000000E+03 0.  0.
         25    1    4    4    0    0 -0.24881678437E+01  0.53275001908E+02 -0.30024967249E+03  0.32960854167E+03  0.12509000000E+03 0.  0.
<mgrwt>
<rscale>  2 0.45615093E+03</rscale>
<asrwt>0</asrwt>
<pdfrwt beam="1">  1       21 0.91170885E-02 0.45615093E+03</pdfrwt>
<pdfrwt beam="2">  1       21 0.12339090E+00 0.45615093E+03</pdfrwt>
<totfact> 0.42801148E+04</totfact>
</mgrwt>
</event>
<event>
 7    0  0.4707675E-002  0.4534259E+03  0.7546771E-02  0.1026705E+00
         21   -1    0    0  502  501  0.00000000000E+00  0.00000000000E+00  0.12478941834E+04  0.12478941834E+04  0.00000000000E+00 0. -1.
         21   -1    0    0  501  502 -0.00000000000E+00 -0.00000000000E+00 -0.41188389213E+02  0.41188389213E+02  0.00000000000E+00 0. -1.
      99926    2    1    2    0    0 -0.14210854715E-13  0.00000000000E+00  0.12067057942E+04  0.12890825727E+04  0.45342585425E+03 0.  0.
      99925    2    3    3    0    0 -0.95284419766E+02  0.20103831300E+02  0.60286561079E+03  0.66477995379E+03  0.26268261764E+03 0.  0.
         25    1    4    4    0    0 -0.73744924158E+01 -0.31947579068E+01  0.28068040975E+03  0.30739809715E+03  0.12509000000E+03 0.  0.
         25    1    3    3    0    0  0.95284419766E+02 -0.20103831300E+02  0.60384018345E+03  0.62430261887E+03  0.12509000000E+03 0.  0.
         25    1    4    4    0    0 -0.87909927350E+02  0.23298589206E+02  0.32218520104E+03  0.35738185664E+03  0.12509000000E+03 0.  0.
<mgrwt>
<rscale>  2 0.45342585E+03</rscale>
<asrwt>0</asrwt>
<pdfrwt beam="1">  1       21 0.18351383E+00 0.45342585E+03</pdfrwt>
<pdfrwt beam="2">  1       21 0.60571169E-02 0.45342585E+03</pdfrwt>
<totfact> 0.29796605E+04</totfact>
</mgrwt>
</event>
<event>
 7    0  0.4707675E-002  0.4556010E+03  0.7546771E-02  0.1026065E+00
         21   -1    0    0  502  501  0.00000000000E+00  0.00000000000E+00  0.77472588392E+02  0.77472588392E+02  0.00000000000E+00 0.  1.
         21   -1    0    0  501  502 -0.00000000000E+00 -0.00000000000E+00 -0.66982485848E+03  0.66982485848E+03  0.00000000000E+00 0.  1.
      99926    2    1    2    0    0  0.00000000000E+00  0.71054273576E-14 -0.59235227009E+03  0.74729744687E+03  0.45560099015E+03 0.  0.
      99925    2    3    3    0    0  0.22360849233E+02 -0.45082400242E+02 -0.20489223095E+03  0.33704725440E+03  0.26284519210E+03 0.  0.
         25    1    4    4    0    0  0.37952082102E+02 -0.15078035832E+02 -0.13997773314E+03  0.19211710381E+03  0.12509000000E+03 0.  0.
         25    1    4    4    0    0 -0.15591232869E+02 -0.30004364411E+02 -0.64914497807E+02  0.14493015060E+03  0.12509000000E+03 0.  0.
         25    1    3    3    0    0 -0.22360849233E+02  0.45082400242E+02 -0.38746003914E+03  0.41025019247E+03  0.12509000000E+03 0.  0.
<mgrwt>
<rscale>  2 0.45560099E+03</rscale>
<asrwt>0</asrwt>
<pdfrwt beam="1">  1       21 0.11393028E-01 0.45560099E+03</pdfrwt>
<pdfrwt beam="2">  1       21 0.98503657E-01 0.45560099E+03</pdfrwt>
<totfact> 0.50171671E+04</totfact>
</mgrwt>
</event>
<event>
 7    0  0.4707675E-002  0.4529471E+03  0.7546771E-02  0.1026847E+00
         21   -1    0    0  502  501  0.00000000000E+00  0.00000000000E+00  0.33690530664E+03  0.33690530664E+03  0.00000000000E+00 0. -1.
         21   -1    0    0  501  502 -0.00000000000E+00 -0.00000000000E+00 -0.15223944246E+03  0.15223944246E+03  0.00000000000E+00 0. -1.
      99926    2    1    2    0    0 -0.13322676296E-14 -0.44408920985E-15  0.18466586419E+03  0.48914474910E+03  0.45294713177E+03 0.  0.
      99925    2    3    3    0    0 -0.24116450530E+01 -0.15902316754E+01  0.23637251093E+03  0.35375852275E+03  0.26318203515E+03 0.  0.
         25    1    4    4    0    0  0.35915645859E+02 -0.16001679454E+02  0.10759502175E+03  0.16961775900E+03  0.12509000000E+03 0.  0.
         25    1    4    4    0    0 -0.38327290912E+02  0.14411447778E+02  0.12877748918E+03  0.18414076375E+03  0.12509000000E+03 0.  0.
         25    1    3    3    0    0  0.24116450530E+01  0.15902316754E+01 -0.51706646743E+02  0.13538622635E+03  0.12509000000E+03 0.  0.
<mgrwt>
<rscale>  2 0.45294713E+03</rscale>
<asrwt>0</asrwt>
<pdfrwt beam="1">  1       21 0.49544898E-01 0.45294713E+03</pdfrwt>
<pdfrwt beam="2">  1       21 0.22388153E-01 0.45294713E+03</pdfrwt>
<totfact> 0.67127542E+04</totfact>
</mgrwt>
</event>
<event>
 7    0  0.4707675E-002  0.4493813E+03  0.7546771E-02  0.1027907E+00
         21   -1    0    0  502  501  0.00000000000E+00  0.00000000000E+00  0.18842491785E+03  0.18842491785E+03  0.00000000000E+00 0.  1.
         21   -1    0    0  501  502 -0.00000000000E+00 -0.00000000000E+00 -0.26793638867E+03  0.26793638867E+03  0.00000000000E+00 0.  1.
      99926    2    1    2    0    0  0.00000000000E+00  0.00000000000E+00 -0.79511470821E+02  0.45636130652E+03  0.44938131703E+03 0.  0.
      99925    2    3    3    0    0 -0.87496115922E+02 -0.29850225619E+02 -0.10665876991E+03  0.29846548575E+03  0.26298088659E+03 0.  0.
         25    1    4    4    0    0 -0.62597586199E+02  0.18739981243E+02 -0.67711801900E+02  0.15653127774E+03  0.12509000000E+03 0.  0.
         25    1    4    4    0    0 -0.24898529723E+02 -0.48590206862E+02 -0.38946968007E+02  0.14193420801E+03  0.12509000000E+03 0.  0.
         25    1    3    3    0    0  0.87496115922E+02  0.29850225619E+02  0.27147299086E+02  0.15789582078E+03  0.12509000000E+03 0.  0.
<mgrwt>
<rscale>  2 0.44938132E+03</rscale>
<asrwt>0</asrwt>
<pdfrwt beam="1">  1       21 0.27709547E-01 0.44938132E+03</pdfrwt>
<pdfrwt beam="2">  1       21 0.39402410E-01 0.44938132E+03</pdfrwt>
<totfact> 0.71601101E+04</totfact>
</mgrwt>
</event>
<event>
 7    0  0.4707675E-002  0.4416076E+03  0.7546771E-02  0.1030255E+00
         21   -1    0    0  502  501  0.00000000000E+00  0.00000000000E+00  0.29970314365E+03  0.29970314365E+03  0.00000000000E+00 0. -1.
         21   -1    0    0  501  502 -0.00000000000E+00 -0.00000000000E+00 -0.16267537412E+03  0.16267537412E+03  0.00000000000E+00 0. -1.
      99926    2    1    2    0    0  0.26645352591E-14  0.17763568394E-14  0.13702776952E+03  0.46237851777E+03  0.44160761324E+03 0.  0.
      99925    2    3    3    0    0  0.22958500651E+01  0.67674479050E+01  0.19207057000E+03  0.32552718507E+03  0.26272756817E+03 0.  0.
         25    1    4    4    0    0 -0.30802042380E+02 -0.20871778869E+02  0.96352051962E+02  0.16222090798E+03  0.12509000000E+03 0.  0.
         25    1    4    4    0    0  0.33097892445E+02  0.27639226774E+02  0.95718518037E+02  0.16330627709E+03  0.12509000000E+03 0.  0.
         25    1    3    3    0    0 -0.22958500651E+01 -0.67674479050E+01 -0.55042800477E+02  0.13685133270E+03  0.12509000000E+03 0.  0.
<mgrwt>
<rscale>  2 0.44160761E+03</rscale>
<asrwt>0</asrwt>
<pdfrwt beam="1">  1       21 0.44073992E-01 0.44160761E+03</pdfrwt>
<pdfrwt beam="2">  1       21 0.23922849E-01 0.44160761E+03</pdfrwt>
<totfact> 0.75740133E+04</totfact>
</mgrwt>
</event>
<event>
 6    0  0.4707675E-002  0.4550546E+03  0.7546771E-02  0.1026225E+00
         21   -1    0    0  502  501  0.00000000000E+00  0.00000000000E+00  0.17011394440E+03  0.17011394440E+03  0.00000000000E+00 0. -1.
         21   -1    0    0  501  502 -0.00000000000E+00 -0.00000000000E+00 -0.30431765460E+03  0.30431765460E+03  0.00000000000E+00 0. -1.
      99926    2    1    2    0    0 -0.88817841970E-15  0.00000000000E+00 -0.13420371021E+03  0.47443159900E+03  0.45505461903E+03 0.  0.
         25    1    3    3    0    0 -0.23926713595E+02  0.30435542806E+02 -0.78553027273E+02  0.15269871016E+03  0.12509000000E+03 0.  0.
         25    1    3    3    0    0  0.26129676939E+02  0.78722780474E+02 -0.15339437237E+02  0.15087359814E+03  0.12509000000E+03 0.  0.
         25    1    3    3    0    0 -0.22029633443E+01 -0.10915832328E+03 -0.40311245698E+02  0.17085929070E+03  0.12509000000E+03 0.  0.
<mgrwt>
<rscale>  2 0.45505462E+03</rscale>
<asrwt>0</asrwt>
<pdfrwt beam="1">  1       21 0.25016757E-01 0.45505462E+03</pdfrwt>
<pdfrwt beam="2">  1       21 0.44752596E-01 0.45505462E+03</pdfrwt>
<totfact> 0.67078661E+04</totfact>
</mgrwt>
</event>
<event>
 7    0  0.4707675E-002  0.4488889E+03  0.7546771E-02  0.1028054E+00
         21   -1    0    0  502  501  0.00000000000E+00  0.00000000000E+00  0.96050814108E+02  0.96050814108E+02  0.00000000000E+00 0. -1.
         21   -1    0    0  501  502 -0.00000000000E+00 -0.00000000000E+00 -0.52446526413E+03  0.52446526413E+03  0.00000000000E+00 0. -1.
      99926    2    1    2    0    0  0.00000000000E+00  0.00000000000E+00 -0.42841445002E+03  0.62051607823E+03  0.44888891985E+03 0.  0.
      99925    2    3    3    0    0 -0.83579240019E+02  0.64390638885E+02 -0.29917846136E+03  0.41199487403E+03  0.26286951278E+03 0.  0.
         25    1    3    3    0    0  0.83579240019E+02 -0.64390638885E+02 -0.12923598866E+03  0.20852120421E+03  0.12509000000E+03 0.  0.
         25    1    4    4    0    0 -0.28862679939E+02  0.21609458843E+02 -0.19719067134E+03  0.23628730810E+03  0.12509000000E+03 0.  0.
         25    1    4    4    0    0 -0.54716560080E+02  0.42781180043E+02 -0.10198779002E+03  0.17570756593E+03  0.12509000000E+03 0.  0.
<mgrwt>
<rscale>  2 0.44888892E+03</rscale>
<asrwt>0</asrwt>
<pdfrwt beam="1">  1       21 0.14125120E-01 0.44888892E+03</pdfrwt>
<pdfrwt beam="2">  1       21 0.77127244E-01 0.44888892E+03</pdfrwt>
<totfact> 0.60289854E+04</totfact>
</mgrwt>
</event>
<event>
 7    0  0.4707675E-002  0.4555727E+03  0.7546771E-02  0.1026073E+00
         21   -1    0    0  502  501  0.00000000000E+00  0.00000000000E+00  0.16254093052E+03  0.16254093052E+03  0.00000000000E+00 0.  1.
         21   -1    0    0  501  502 -0.00000000000E+00 -0.00000000000E+00 -0.31922193576E+03  0.31922193576E+03  0.00000000000E+00 0.  1.
      99926    2    1    2    0    0  0.00000000000E+00  0.00000000000E+00 -0.15668100524E+03  0.48176286628E+03  0.45557274054E+03 0.  0.
      99925    2    3    3    0    0 -0.61849623890E+02  0.49888066935E+02 -0.18456425490E+03  0.33096771082E+03  0.26298567684E+03 0.  0.
         25    1    4    4    0    0 -0.30818100850E+02  0.36510087840E+02 -0.14054285373E+03  0.19411992089E+03  0.12509000000E+03 0.  0.
         25    1    3    3    0    0  0.61849623890E+02 -0.49888066935E+02  0.27883249662E+02  0.15079515546E+03  0.12509000000E+03 0.  0.
         25    1    4    4    0    0 -0.31031523039E+02  0.13377979096E+02 -0.44021401172E+02  0.13684778993E+03  0.12509000000E+03 0.  0.
<mgrwt>
<rscale>  2 0.45557274E+03</rscale>
<asrwt>0</asrwt>
<pdfrwt beam="1">  1       21 0.23903078E-01 0.45557274E+03</pdfrwt>
<pdfrwt beam="2">  1       21 0.46944402E-01 0.45557274E+03</pdfrwt>
<totfact> 0.66270203E+04</totfact>
</mgrwt>
</event>
<event>
 7    0  0.4707675E-002  0.4438214E+03  0.7546771E-02  0.1029581E+00
         21   -1    0    0  502  501  0.00000000000E+00  0.00000000000E+00  0.83911238255E+02  0.83911238255E+02  0.00000000000E+00 0.  1.
         21   -1    0    0  501  502 -0.00000000000E+00 -0.00000000000E+00 -0.58686244878E+03  0.58686244878E+03  0.00000000000E+00 0.  1.
      99926    2    1    2    0    0  0.00000000000E+00  0.00000000000E+00 -0.50295121053E+03  0.67077368703E+03  0.44382138192E+03 0.  0.
      99925    2    3    3    0    0  0.83121369518E+01 -0.95613853512E+02 -0.26714887927E+03  0.38711659100E+03  0.26321024055E+03 0.  0.
         25    1    4    4    0    0  0.77976522550E+01 -0.56311472107E+02 -0.19164417605E+03  0.23581090642E+03  0.12509000000E+03 0.  0.
         25    1    3    3    0    0 -0.83121369518E+01  0.95613853512E+02 -0.23580233126E+03  0.28365709604E+03  0.12509000000E+03 0.  0.
         25    1    4    4    0    0  0.51448469676E+00 -0.39302381405E+02 -0.75504703214E+02  0.15130568458E+03  0.12509000000E+03 0.  0.
<mgrwt>
<rscale>  2 0.44382138E+03</rscale>
<asrwt>0</asrwt>
<pdfrwt beam="1">  1       21 0.12339889E-01 0.44382138E+03</pdfrwt>
<pdfrwt beam="2">  1       21 0.86303298E-01 0.44382138E+03</pdfrwt>
<totfact> 0.59595838E+04</totfact>
</mgrwt>
</event>
<event>
 7    0  0.4707675E-002  0.4649713E+03  0.7546771E-02  0.1023349E+00
         21   -1    0    0  502  501  0.00000000000E+00  0.00000000000E+00  0.15545666036E+03  0.15545666036E+03  0.00000000000E+00 0.  1.
         21   -1    0    0  501  502 -0.00000000000E+00 -0.00000000000E+00 -0.34768261464E+03  0.34768261464E+03  0.00000000000E+00 0.  1.
      99926    2    1    2    0    0  0.00000000000E+00 -0.71054273576E-14 -0.19222595428E+03  0.50313927499E+03  0.46497130292E+03 0.  0.
      99925    2    3    3    0    0 -0.38681586795E+02 -0.41241259751E+02 -0.23719852995E+03  0.35868462008E+03  0.26304829863E+03 0.  0.
         25    1    3    3    0    0  0.38681586795E+02  0.41241259751E+02  0.44972575671E+02  0.14445465491E+03  0.12509000000E+03 0.  0.
         25    1    4    4    0    0  0.13421061147E+01 -0.38434359483E+02 -0.15851259888E+03  0.20555474536E+03  0.12509000000E+03 0.  0.
         25    1    4    4    0    0 -0.40023692910E+02 -0.28069002675E+01 -0.78685931072E+02  0.15312987472E+03  0.12509000000E+03 0.  0.
<mgrwt>
<rscale>  2 0.46497130E+03</rscale>
<asrwt>0</asrwt>
<pdfrwt beam="1">  1       21 0.22861273E-01 0.46497130E+03</pdfrwt>
<pdfrwt beam="2">  1       21 0.51129797E-01 0.46497130E+03</pdfrwt>
<totfact> 0.60146885E+04</totfact>
</mgrwt>
</event>
<event>
 7    0  0.4707675E-002  0.4520280E+03  0.7546771E-02  0.1027119E+00
         21   -1    0    0  502  501  0.00000000000E+00  0.00000000000E+00  0.50040501951E+03  0.50040501951E+03  0.00000000000E+00 0.  1.
         21   -1    0    0  501  502 -0.00000000000E+00 -0.00000000000E+00 -0.10208195620E+03  0.10208195620E+03  0.00000000000E+00 0.  1.
      99926    2    1    2    0    0  0.00000000000E+00  0.71054273576E-14  0.39832306331E+03  0.60248697571E+03  0.45202797827E+03 0.  0.
      99925    2    3    3    0    0 -0.93357935548E+02 -0.58166144290E+02  0.26258349267E+03  0.38761086348E+03  0.26304578763E+03 0.  0.
         25    1    3    3    0    0  0.93357935548E+02  0.58166144290E+02  0.13573957065E+03  0.21487611224E+03  0.12509000000E+03 0.  0.
         25    1    4    4    0    0 -0.71726421620E+02  0.27815509118E+01  0.13735207357E+03  0.19916203654E+03  0.12509000000E+03 0.  0.
         25    1    4    4    0    0 -0.21631513928E+02 -0.60947695202E+02  0.12523141910E+03  0.18844882694E+03  0.12509000000E+03 0.  0.
<mgrwt>
<rscale>  2 0.45202798E+03</rscale>
<asrwt>0</asrwt>
<pdfrwt beam="1">  1       21 0.73588972E-01 0.45202798E+03</pdfrwt>
<pdfrwt beam="2">  1       21 0.15012053E-01 0.45202798E+03</pdfrwt>
<totfact> 0.59920066E+04</totfact>
</mgrwt>
</event>
<event>
 7    0  0.4707675E-002  0.4562146E+03  0.7546771E-02  0.1025885E+00
         21   -1    0    0  502  501  0.00000000000E+00  0.00000000000E+00  0.30906526036E+03  0.30906526036E+03  0.00000000000E+00 0.  1.
         21   -1    0    0  501  502 -0.00000000000E+00 -0.00000000000E+00 -0.16835582147E+03  0.16835582147E+03  0.00000000000E+00 0.  1.
      99926    2    1    2    0    0  0.00000000000E+00 -0.35527136788E-14  0.14070943889E+03  0.47742108183E+03  0.45621458020E+03 0.  0.
      99925    2    3    3    0    0  0.46977653432E+02 -0.24473340725E+02  0.19444160578E+03  0.33133720803E+03  0.26300373198E+03 0.  0.
         25    1    4    4    0    0  0.36256026543E+02  0.16295312702E+02  0.12888163272E+03  0.18395113490E+03  0.12509000000E+03 0.  0.
         25    1    3    3    0    0 -0.46977653432E+02  0.24473340725E+02 -0.53732166885E+02  0.14608387381E+03  0.12509000000E+03 0.  0.
         25    1    4    4    0    0  0.10721626889E+02 -0.40768653427E+02  0.65559973056E+02  0.14738607313E+03  0.12509000000E+03 0.  0.
<mgrwt>
<rscale>  2 0.45621458E+03</rscale>
<asrwt>0</asrwt>
<pdfrwt beam="1">  1       21 0.45450774E-01 0.45621458E+03</pdfrwt>
<pdfrwt beam="2">  1       21 0.24758209E-01 0.45621458E+03</pdfrwt>
<totfact> 0.66247410E+04</totfact>
</mgrwt>
</event>
<event>
 7    0  0.4707675E-002  0.4581350E+03  0.7546771E-02  0.1025324E+00
         21   -1    0    0  502  501  0.00000000000E+00  0.00000000000E+00  0.59087516425E+02  0.59087516425E+02  0.00000000000E+00 0.  1.
         21   -1    0    0  501  502 -0.00000000000E+00 -0.00000000000E+00 -0.88803733240E+03  0.88803733240E+03  0.00000000000E+00 0.  1.
      99926    2    1    2    0    0  0.00000000000E+00 -0.35527136788E-14 -0.82894981597E+03  0.94712484882E+03  0.45813500396E+03 0.  0.
      99925    2    3    3    0    0 -0.43813863342E+02  0.26601782089E+02 -0.30503858536E+03  0.40605387835E+03  0.26306634929E+03 0.  0.
         25    1    4    4    0    0 -0.24303366456E+02 -0.48959811724E+01 -0.95894223748E+02  0.15955511431E+03  0.12509000000E+03 0.  0.
         25    1    4    4    0    0 -0.19510496886E+02  0.31497763261E+02 -0.20914436161E+03  0.24649876404E+03  0.12509000000E+03 0.  0.
         25    1    3    3    0    0  0.43813863342E+02 -0.26601782089E+02 -0.52391123061E+03  0.54107097048E+03  0.12509000000E+03 0.  0.
<mgrwt>
<rscale>  2 0.45813500E+03</rscale>
<asrwt>0</asrwt>
<pdfrwt beam="1">  1       21 0.86893409E-02 0.45813500E+03</pdfrwt>
<pdfrwt beam="2">  1       21 0.13059372E+00 0.45813500E+03</pdfrwt>
<totfact> 0.40261299E+04</totfact>
</mgrwt>
</event>
<event>
 7    0  0.4707675E-002  0.4717828E+03  0.7546771E-02  0.1021418E+00
         21   -1    0    0  502  501  0.00000000000E+00  0.00000000000E+00  0.28150138564E+03  0.28150138564E+03  0.00000000000E+00 0.  1.
         21   -1    0    0  501  502 -0.00000000000E+00 -0.00000000000E+00 -0.19767136270E+03  0.19767136270E+03  0.00000000000E+00 0.  1.
      99926    2    1    2    0    0  0.00000000000E+00  0.00000000000E+00  0.83830022939E+02  0.47917274834E+03  0.47178284200E+03 0.  0.
      99925    2    3    3    0    0 -0.94384824001E+02 -0.12345157504E+02 -0.35348322942E+02  0.28191179391E+03  0.26299022357E+03 0.  0.
         25    1    4    4    0    0 -0.50362428025E+01 -0.13040640547E+02 -0.12280691147E+02  0.12646638100E+03  0.12509000000E+03 0.  0.
         25    1    3    3    0    0  0.94384824001E+02  0.12345157504E+02  0.11917834588E+03  0.19726095443E+03  0.12509000000E+03 0.  0.
         25    1    4    4    0    0 -0.89348581199E+02  0.69548304257E+00 -0.23067631795E+02  0.15544541291E+03  0.12509000000E+03 0.  0.
<mgrwt>
<rscale>  2 0.47178284E+03</rscale>
<asrwt>0</asrwt>
<pdfrwt beam="1">  1       21 0.41397263E-01 0.47178284E+03</pdfrwt>
<pdfrwt beam="2">  1       21 0.29069318E-01 0.47178284E+03</pdfrwt>
<totfact> 0.58559600E+04</totfact>
</mgrwt>
</event>
<event>
 7    0  0.4707675E-002  0.4564262E+03  0.7546771E-02  0.1025823E+00
         21   -1    0    0  502  501  0.00000000000E+00  0.00000000000E+00  0.24101806332E+03  0.24101806332E+03  0.00000000000E+00 0.  1.
         21   -1    0    0  501  502 -0.00000000000E+00 -0.00000000000E+00 -0.21608842865E+03  0.21608842865E+03  0.00000000000E+00 0.  1.
      99926    2    1    2    0    0  0.00000000000E+00 -0.35527136788E-14  0.24929634670E+02  0.45710649196E+03  0.45642618057E+03 0.  0.
      99925    2    3    3    0    0  0.11047669515E+03 -0.23601840012E+02  0.34751201870E+02  0.28826894192E+03  0.26292430435E+03 0.  0.
         25    1    4    4    0    0  0.72098061867E+02 -0.49629315240E+02  0.15017070421E+02  0.15340866977E+03  0.12509000000E+03 0.  0.
         25    1    4    4    0    0  0.38378633284E+02  0.26027475228E+02  0.19734131449E+02  0.13486027215E+03  0.12509000000E+03 0.  0.
         25    1    3    3    0    0 -0.11047669515E+03  0.23601840012E+02 -0.98215672004E+01  0.16883755005E+03  0.12509000000E+03 0.  0.
<mgrwt>
<rscale>  2 0.45642618E+03</rscale>
<asrwt>0</asrwt>
<pdfrwt beam="1">  1       21 0.35443833E-01 0.45642618E+03</pdfrwt>
<pdfrwt beam="2">  1       21 0.31777710E-01 0.45642618E+03</pdfrwt>
<totfact> 0.67619041E+04</totfact>
</mgrwt>
</event>
<event>
 7    0  0.4707675E-002  0.4675238E+03  0.7546771E-02  0.1022621E+00
         21   -1    0    0  502  501  0.00000000000E+00  0.00000000000E+00  0.38685059976E+03  0.38685059976E+03  0.00000000000E+00 0.  1.
         21   -1    0    0  501  502 -0.00000000000E+00 -0.00000000000E+00 -0.14125510006E+03  0.14125510006E+03  0.00000000000E+00 0.  1.
      99926    2    1    2    0    0 -0.88817841970E-15  0.00000000000E+00  0.24559549970E+03  0.52810569982E+03  0.46752377555E+03 0.  0.
      99925    2    3    3    0    0  0.63894892824E+01 -0.54637280509E+02  0.26690354959E+02  0.27004944919E+03  0.26303663616E+03 0.  0.
         25    1    4    4    0    0 -0.56538715323E+01 -0.13611747012E+02  0.50545510167E+02  0.13571883664E+03  0.12509000000E+03 0.  0.
         25    1    3    3    0    0 -0.63894892824E+01  0.54637280509E+02  0.21890514474E+03  0.25805625063E+03  0.12509000000E+03 0.  0.
         25    1    4    4    0    0  0.12043360815E+02 -0.41025533496E+02 -0.23855155208E+02  0.13433061255E+03  0.12509000000E+03 0.  0.
<mgrwt>
<rscale>  2 0.46752378E+03</rscale>
<asrwt>0</asrwt>
<pdfrwt beam="1">  1       21 0.56889794E-01 0.46752378E+03</pdfrwt>
<pdfrwt beam="2">  1       21 0.20772809E-01 0.46752378E+03</pdfrwt>
<totfact> 0.57417681E+04</totfact>
</mgrwt>
</event>
<event>
 7    0  0.4707675E-002  0.4555866E+03  0.7546771E-02  0.1026069E+00
         21   -1    0    0  502  501  0.00000000000E+00  0.00000000000E+00  0.45391607269E+03  0.45391607269E+03  0.00000000000E+00 0.  1.
         21   -1    0    0  501  502 -0.00000000000E+00 -0.00000000000E+00 -0.11431581070E+03  0.11431581070E+03  0.00000000000E+00 0.  1.
      99926    2    1    2    0    0  0.00000000000E+00 -0.17763568394E-14  0.33960026199E+03  0.56823188339E+03  0.45558658383E+03 0.  0.
      99925    2    3    3    0    0  0.11014345467E+03  0.10813905840E+02  0.18000028361E+03  0.33721633768E+03  0.26280455690E+03 0.  0.
         25    1    3    3    0    0 -0.11014345467E+03 -0.10813905840E+02  0.15959997837E+03  0.23101554572E+03  0.12509000000E+03 0.  0.
         25    1    4    4    0    0  0.75136328083E+02  0.34061380468E+02  0.12131003900E+03  0.19279335854E+03  0.12509000000E+03 0.  0.
         25    1    4    4    0    0  0.35007126586E+02 -0.23247474628E+02  0.58690244619E+02  0.14442297913E+03  0.12509000000E+03 0.  0.
<mgrwt>
<rscale>  2 0.45558658E+03</rscale>
<asrwt>0</asrwt>
<pdfrwt beam="1">  1       21 0.66752363E-01 0.45558658E+03</pdfrwt>
<pdfrwt beam="2">  1       21 0.16811149E-01 0.45558658E+03</pdfrwt>
<totfact> 0.60396910E+04</totfact>
</mgrwt>
</event>
<event>
 7    0  0.4707675E-002  0.4832905E+03  0.7546771E-02  0.1018235E+00
         21   -1    0    0  502  501  0.00000000000E+00  0.00000000000E+00  0.17028178082E+03  0.17028178082E+03  0.00000000000E+00 0. -1.
         21   -1    0    0  501  502 -0.00000000000E+00 -0.00000000000E+00 -0.34291653166E+03  0.34291653166E+03  0.00000000000E+00 0. -1.
      99926    2    1    2    0    0  0.00000000000E+00  0.00000000000E+00 -0.17263475084E+03  0.51319831248E+03  0.48329054484E+03 0.  0.
      99925    2    3    3    0    0 -0.32911392891E+02 -0.60277949213E+02  0.20989529911E+02  0.27266876931E+03  0.26304202411E+03 0.  0.
         25    1    4    4    0    0 -0.52759974199E+02 -0.11923649717E+02  0.11297069338E+02  0.13675130777E+03  0.12509000000E+03 0.  0.
         25    1    3    3    0    0  0.32911392891E+02  0.60277949213E+02 -0.19362428075E+03  0.24052954318E+03  0.12509000000E+03 0.  0.
         25    1    4    4    0    0  0.19848581308E+02 -0.48354299497E+02  0.96924605734E+01  0.13591746154E+03  0.12509000000E+03 0.  0.
<mgrwt>
<rscale>  2 0.48329054E+03</rscale>
<asrwt>0</asrwt>
<pdfrwt beam="1">  1       21 0.25041438E-01 0.48329054E+03</pdfrwt>
<pdfrwt beam="2">  1       21 0.50428901E-01 0.48329054E+03</pdfrwt>
<totfact> 0.51724255E+04</totfact>
</mgrwt>
</event>
<event>
 7    0  0.4707675E-002  0.4516692E+03  0.7546771E-02  0.1027225E+00
         21   -1    0    0  502  501  0.00000000000E+00  0.00000000000E+00  0.42051592345E+02  0.42051592345E+02  0.00000000000E+00 0. -1.
         21   -1    0    0  501  502 -0.00000000000E+00 -0.00000000000E+00 -0.12128262739E+04  0.12128262739E+04  0.00000000000E+00 0. -1.
      99926    2    1    2    0    0 -0.14210854715E-13  0.35527136788E-14 -0.11707746815E+04  0.12548778662E+04  0.45166924206E+03 0.  0.
      99925    2    3    3    0    0  0.10746916394E+03 -0.12707497552E+02 -0.68562385682E+03  0.74230598588E+03  0.26311024676E+03 0.  0.
         25    1    4    4    0    0  0.81815758975E+02  0.24464168994E+02 -0.35858240356E+03  0.38925719290E+03  0.12509000000E+03 0.  0.
         25    1    3    3    0    0 -0.10746916394E+03  0.12707497552E+02 -0.48515082473E+03  0.51257188035E+03  0.12509000000E+03 0.  0.
         25    1    4    4    0    0  0.25653404964E+02 -0.37171666546E+02 -0.32704145326E+03  0.35304879299E+03  0.12509000000E+03 0.  0.
<mgrwt>
<rscale>  2 0.45166924E+03</rscale>
<asrwt>0</asrwt>
<pdfrwt beam="1">  1       21 0.61840582E-02 0.45166924E+03</pdfrwt>
<pdfrwt beam="2">  1       21 0.17835679E+00 0.45166924E+03</pdfrwt>
<totfact> 0.31256336E+04</totfact>
</mgrwt>
</event>
<event>
 7    0  0.4707675E-002  0.4563311E+03  0.7546771E-02  0.1025851E+00
         21   -1    0    0  502  501  0.00000000000E+00  0.00000000000E+00  0.40602979232E+02  0.40602979232E+02  0.00000000000E+00 0. -1.
         21   -1    0    0  501  502 -0.00000000000E+00 -0.00000000000E+00 -0.12821603161E+04  0.12821603161E+04  0.00000000000E+00 0. -1.
      99926    2    1    2    0    0  0.00000000000E+00 -0.71054273576E-14 -0.12415573369E+04  0.13227632953E+04  0.45633114593E+03 0.  0.
      99925    2    3    3    0    0 -0.41288118520E+02  0.33141746792E+02 -0.48660026379E+03  0.55568391586E+03  0.26306218565E+03 0.  0.
         25    1    3    3    0    0  0.41288118520E+02 -0.33141746792E+02 -0.75495707309E+03  0.76707937948E+03  0.12509000000E+03 0.  0.
         25    1    4    4    0    0 -0.13865834897E+02  0.56076607793E+02 -0.23408438196E+03  0.27162447109E+03  0.12509000000E+03 0.  0.
         25    1    4    4    0    0 -0.27422283623E+02 -0.22934861001E+02 -0.25251588183E+03  0.28405944478E+03  0.12509000000E+03 0.  0.
<mgrwt>
<rscale>  2 0.45633115E+03</rscale>
<asrwt>0</asrwt>
<pdfrwt beam="1">  1       21 0.59710274E-02 0.45633115E+03</pdfrwt>
<pdfrwt beam="2">  1       21 0.18855296E+00 0.45633115E+03</pdfrwt>
<totfact> 0.28168037E+04</totfact>
</mgrwt>
</event>
<event>
 7    0  0.4707675E-002  0.4338670E+03  0.7546771E-02  0.1032645E+00
         21   -1    0    0  502  501  0.00000000000E+00  0.00000000000E+00  0.18559748202E+03  0.18559748202E+03  0.00000000000E+00 0. -1.
         21   -1    0    0  501  502 -0.00000000000E+00 -0.00000000000E+00 -0.25356022614E+03  0.25356022614E+03  0.00000000000E+00 0. -1.
      99926    2    1    2    0    0  0.71054273576E-14  0.00000000000E+00 -0.67962744121E+02  0.43915770815E+03  0.43386698197E+03 0.  0.
      99925    2    3    3    0    0 -0.62779671476E+02  0.66582030968E+02 -0.33905441029E+02  0.28046976913E+03  0.26294345108E+03 0.  0.
         25    1    3    3    0    0  0.62779671476E+02 -0.66582030968E+02 -0.34057303093E+02  0.15868793903E+03  0.12509000000E+03 0.  0.
         25    1    4    4    0    0 -0.47679089695E+02  0.64003049049E+02  0.53336548060E+01  0.14847774869E+03  0.12509000000E+03 0.  0.
         25    1    4    4    0    0 -0.15100581781E+02  0.25789819187E+01 -0.39239095835E+02  0.13199202044E+03  0.12509000000E+03 0.  0.
<mgrwt>
<rscale>  2 0.43386698E+03</rscale>
<asrwt>0</asrwt>
<pdfrwt beam="1">  1       21 0.27293748E-01 0.43386698E+03</pdfrwt>
<pdfrwt beam="2">  1       21 0.37288268E-01 0.43386698E+03</pdfrwt>
<totfact> 0.82830333E+04</totfact>
</mgrwt>
</event>
<event>
 7    0  0.4707675E-002  0.4551940E+03  0.7546771E-02  0.1026184E+00
         21   -1    0    0  502  501  0.00000000000E+00  0.00000000000E+00  0.29530820990E+03  0.29530820990E+03  0.00000000000E+00 0.  1.
         21   -1    0    0  501  502 -0.00000000000E+00 -0.00000000000E+00 -0.17541129515E+03  0.17541129515E+03  0.00000000000E+00 0.  1.
      99926    2    1    2    0    0  0.00000000000E+00 -0.71054273576E-14  0.11989691475E+03  0.47071950505E+03  0.45519400509E+03 0.  0.
      99925    2    3    3    0    0 -0.81456550464E+02  0.54869035037E+02  0.13391841714E+03  0.31106396569E+03  0.26302256117E+03 0.  0.
         25    1    3    3    0    0  0.81456550464E+02 -0.54869035037E+02 -0.14021502387E+02  0.15965553936E+03  0.12509000000E+03 0.  0.
         25    1    4    4    0    0 -0.33920760317E+02 -0.13676757760E+02  0.65928648423E+02  0.14605398477E+03  0.12509000000E+03 0.  0.
         25    1    4    4    0    0 -0.47535790147E+02  0.68545792796E+02  0.67989768719E+02  0.16500998093E+03  0.12509000000E+03 0.  0.
<mgrwt>
<rscale>  2 0.45519401E+03</rscale>
<asrwt>0</asrwt>
<pdfrwt beam="1">  1       21 0.43427678E-01 0.45519401E+03</pdfrwt>
<pdfrwt beam="2">  1       21 0.25795779E-01 0.45519401E+03</pdfrwt>
<totfact> 0.67278627E+04</totfact>
</mgrwt>
</event>
<event>
 7    0  0.4707675E-002  0.4538748E+03  0.7546771E-02  0.1026573E+00
         21   -1    0    0  502  501  0.00000000000E+00  0.00000000000E+00  0.17755027003E+03  0.17755027003E+03  0.00000000000E+00 0.  1.
         21   -1    0    0  501  502 -0.00000000000E+00 -0.00000000000E+00 -0.29006193465E+03  0.29006193465E+03  0.00000000000E+00 0.  1.
      99926    2    1    2    0    0  0.14210854715E-13  0.00000000000E+00 -0.11251166462E+03  0.46761220468E+03  0.45387476168E+03 0.  0.
      99925    2    3    3    0    0  0.78562757934E+02  0.78704451486E+02 -0.84726189772E+02  0.29794771715E+03  0.26311179621E+03 0.  0.
         25    1    4    4    0    0  0.37344992139E+02  0.47710657336E+01 -0.14672304937E+02  0.13145415984E+03  0.12509000000E+03 0.  0.
         25    1    4    4    0    0  0.41217765794E+02  0.73933385753E+02 -0.70053884835E+02  0.16649355731E+03  0.12509000000E+03 0.  0.
         25    1    3    3    0    0 -0.78562757934E+02 -0.78704451486E+02 -0.27785474845E+02  0.16966448753E+03  0.12509000000E+03 0.  0.
<mgrwt>
<rscale>  2 0.45387476E+03</rscale>
<asrwt>0</asrwt>
<pdfrwt beam="1">  1       21 0.26110334E-01 0.45387476E+03</pdfrwt>
<pdfrwt beam="2">  1       21 0.42656167E-01 0.45387476E+03</pdfrwt>
<totfact> 0.68220698E+04</totfact>
</mgrwt>
</event>
<event>
 7    0  0.4707675E-002  0.4529003E+03  0.7546771E-02  0.1026861E+00
         21   -1    0    0  502  501  0.00000000000E+00  0.00000000000E+00  0.26658633823E+04  0.26658633823E+04  0.00000000000E+00 0.  1.
         21   -1    0    0  501  502 -0.00000000000E+00 -0.00000000000E+00 -0.19235667481E+02  0.19235667481E+02  0.00000000000E+00 0.  1.
      99926    2    1    2    0    0  0.00000000000E+00  0.00000000000E+00  0.26466277148E+04  0.26850990498E+04  0.45290026086E+03 0.  0.
      99925    2    3    3    0    0 -0.45079861857E+01 -0.74583475255E+02  0.11627977257E+04  0.11941322623E+04  0.26128584387E+03 0.  0.
         25    1    4    4    0    0  0.95684384659E+01 -0.23504348101E+01  0.48479454753E+03  0.50076974846E+03  0.12509000000E+03 0.  0.
         25    1    3    3    0    0  0.45079861857E+01  0.74583475255E+02  0.14838299891E+04  0.14909667875E+04  0.12509000000E+03 0.  0.
         25    1    4    4    0    0 -0.14076424652E+02 -0.72233040444E+02  0.67800317816E+03  0.69336251381E+03  0.12509000000E+03 0.  0.
<mgrwt>
<rscale>  2 0.45290026E+03</rscale>
<asrwt>0</asrwt>
<pdfrwt beam="1">  1       21 0.39203848E+00 0.45290026E+03</pdfrwt>
<pdfrwt beam="2">  1       21 0.28287765E-02 0.45290026E+03</pdfrwt>
<totfact> 0.55068037E+03</totfact>
</mgrwt>
</event>
<event>
 7    0  0.4707675E-002  0.4496035E+03  0.7546771E-02  0.1027840E+00
         21   -1    0    0  502  501  0.00000000000E+00  0.00000000000E+00  0.92352225644E+02  0.92352225644E+02  0.00000000000E+00 0.  1.
         21   -1    0    0  501  502 -0.00000000000E+00 -0.00000000000E+00 -0.54720747290E+03  0.54720747290E+03  0.00000000000E+00 0.  1.
      99926    2    1    2    0    0  0.35527136788E-14 -0.71054273576E-14 -0.45485524726E+03  0.63955969854E+03  0.44960350538E+03 0.  0.
      99925    2    3    3    0    0  0.31394931324E+02 -0.44212343155E+02 -0.15500542563E+03  0.31016966131E+03  0.26313145730E+03 0.  0.
         25    1    4    4    0    0  0.22435012935E+02 -0.20564079437E+02 -0.12420012109E+03  0.17888373136E+03  0.12509000000E+03 0.  0.
         25    1    3    3    0    0 -0.31394931324E+02  0.44212343155E+02 -0.29984982162E+03  0.32939003723E+03  0.12509000000E+03 0.  0.
         25    1    4    4    0    0  0.89599183898E+01 -0.23648263718E+02 -0.30805304547E+02  0.13128592995E+03  0.12509000000E+03 0.  0.
<mgrwt>
<rscale>  2 0.44960351E+03</rscale>
<asrwt>0</asrwt>
<pdfrwt beam="1">  1       21 0.13581210E-01 0.44960351E+03</pdfrwt>
<pdfrwt beam="2">  1       21 0.80471687E-01 0.44960351E+03</pdfrwt>
<totfact> 0.58770040E+04</totfact>
</mgrwt>
</event>
<event>
 7    0  0.4707675E-002  0.4532024E+03  0.7546771E-02  0.1026771E+00
         21   -1    0    0  502  501  0.00000000000E+00  0.00000000000E+00  0.20106274372E+03  0.20106274372E+03  0.00000000000E+00 0. -1.
         21   -1    0    0  501  502 -0.00000000000E+00 -0.00000000000E+00 -0.25538351417E+03  0.25538351417E+03  0.00000000000E+00 0. -1.
      99926    2    1    2    0    0  0.00000000000E+00 -0.35527136788E-14 -0.54320770453E+02  0.45644625789E+03  0.45320242744E+03 0.  0.
      99925    2    3    3    0    0 -0.10758940130E+03  0.25518299167E+02 -0.49046894295E+02  0.28940738596E+03  0.26291514666E+03 0.  0.
         25    1    4    4    0    0 -0.32317109283E+02  0.14407537075E+02 -0.58782965370E+02  0.14267066200E+03  0.12509000000E+03 0.  0.
         25    1    4    4    0    0 -0.75272292016E+02  0.11110762092E+02  0.97360710757E+01  0.14673672396E+03  0.12509000000E+03 0.  0.
         25    1    3    3    0    0  0.10758940130E+03 -0.25518299167E+02 -0.52738761588E+01  0.16703887193E+03  0.12509000000E+03 0.  0.
<mgrwt>
<rscale>  2 0.45320243E+03</rscale>
<asrwt>0</asrwt>
<pdfrwt beam="1">  1       21 0.29568051E-01 0.45320243E+03</pdfrwt>
<pdfrwt beam="2">  1       21 0.37556399E-01 0.45320243E+03</pdfrwt>
<totfact> 0.69430273E+04</totfact>
</mgrwt>
</event>
<event>
 7    0  0.4707675E-002  0.4498099E+03  0.7546771E-02  0.1027779E+00
         21   -1    0    0  502  501  0.00000000000E+00  0.00000000000E+00  0.11292657388E+03  0.11292657388E+03  0.00000000000E+00 0. -1.
         21   -1    0    0  501  502 -0.00000000000E+00 -0.00000000000E+00 -0.44792150668E+03  0.44792150668E+03  0.00000000000E+00 0. -1.
      99926    2    1    2    0    0  0.17763568394E-14 -0.88817841970E-15 -0.33499493279E+03  0.56084808056E+03  0.44980992038E+03 0.  0.
      99925    2    3    3    0    0  0.11234858885E+02  0.41255851385E+01 -0.34594787679E+03  0.43471038758E+03  0.26296377149E+03 0.  0.
         25    1    4    4    0    0  0.17939207112E+02  0.22477530479E+02 -0.12001341051E+03  0.17572074815E+03  0.12509000000E+03 0.  0.
         25    1    4    4    0    0 -0.67043482276E+01 -0.18351945340E+02 -0.22593446627E+03  0.25898963943E+03  0.12509000000E+03 0.  0.
         25    1    3    3    0    0 -0.11234858885E+02 -0.41255851385E+01  0.10952943996E+02  0.12613769298E+03  0.12509000000E+03 0.  0.
<mgrwt>
<rscale>  2 0.44980992E+03</rscale>
<asrwt>0</asrwt>
<pdfrwt beam="1">  1       21 0.16606849E-01 0.44980992E+03</pdfrwt>
<pdfrwt beam="2">  1       21 0.65870810E-01 0.44980992E+03</pdfrwt>
<totfact> 0.63731567E+04</totfact>
</mgrwt>
</event>
<event>
 7    0  0.4707675E-002  0.4629202E+03  0.7546771E-02  0.1023938E+00
         21   -1    0    0  502  501  0.00000000000E+00  0.00000000000E+00  0.33599558983E+03  0.33599558983E+03  0.00000000000E+00 0. -1.
         21   -1    0    0  501  502 -0.00000000000E+00 -0.00000000000E+00 -0.15944787857E+03  0.15944787857E+03  0.00000000000E+00 0. -1.
      99926    2    1    2    0    0  0.00000000000E+00  0.14210854715E-13  0.17654771126E+03  0.49544346840E+03  0.46292022642E+03 0.  0.
      99925    2    3    3    0    0  0.58111128252E+02  0.91921346531E+02  0.55274665884E+02  0.29006309735E+03  0.26316320902E+03 0.  0.
         25    1    4    4    0    0  0.30851138769E+02  0.68232394487E+02 -0.65354212934E+01  0.14593722024E+03  0.12509000000E+03 0.  0.
         25    1    3    3    0    0 -0.58111128252E+02 -0.91921346531E+02  0.12127304538E+03  0.20538037104E+03  0.12509000000E+03 0.  0.
         25    1    4    4    0    0  0.27259989483E+02  0.23688952044E+02  0.61810087178E+02  0.14412587711E+03  0.12509000000E+03 0.  0.
<mgrwt>
<rscale>  2 0.46292023E+03</rscale>
<asrwt>0</asrwt>
<pdfrwt beam="1">  1       21 0.49411116E-01 0.46292023E+03</pdfrwt>
<pdfrwt beam="2">  1       21 0.23448217E-01 0.46292023E+03</pdfrwt>
<totfact> 0.61625136E+04</totfact>
</mgrwt>
</event>
<event>
 7    0  0.4707675E-002  0.4582015E+03  0.7546771E-02  0.1025304E+00
         21   -1    0    0  502  501  0.00000000000E+00  0.00000000000E+00  0.72242521624E+02  0.72242521624E+02  0.00000000000E+00 0.  1.
         21   -1    0    0  501  502 -0.00000000000E+00 -0.00000000000E+00 -0.72654094362E+03  0.72654094362E+03  0.00000000000E+00 0.  1.
      99926    2    1    2    0    0  0.00000000000E+00  0.14210854715E-13 -0.65429842200E+03  0.79878346525E+03  0.45820148332E+03 0.  0.
      99925    2    3    3    0    0 -0.33292159877E+02  0.10167975248E+03 -0.48936670094E+03  0.56576603954E+03  0.26299107120E+03 0.  0.
         25    1    4    4    0    0 -0.53590770796E+02  0.70644089716E+02 -0.25616589631E+03  0.29854820827E+03  0.12509000000E+03 0.  0.
         25    1    3    3    0    0  0.33292159877E+02 -0.10167975248E+03 -0.16493172105E+03  0.23301742571E+03  0.12509000000E+03 0.  0.
         25    1    4    4    0    0  0.20298610918E+02  0.31035662762E+02 -0.23320080463E+03  0.26721783127E+03  0.12509000000E+03 0.  0.
<mgrwt>
<rscale>  2 0.45820148E+03</rscale>
<asrwt>0</asrwt>
<pdfrwt beam="1">  1       21 0.10623900E-01 0.45820148E+03</pdfrwt>
<pdfrwt beam="2">  1       21 0.10684426E+00 0.45820148E+03</pdfrwt>
<totfact> 0.46640781E+04</totfact>
</mgrwt>
</event>
<event>
 7    0  0.4707675E-002  0.4446527E+03  0.7546771E-02  0.1029329E+00
         21   -1    0    0  502  501  0.00000000000E+00  0.00000000000E+00  0.54858411961E+03  0.54858411961E+03  0.00000000000E+00 0. -1.
         21   -1    0    0  501  502 -0.00000000000E+00 -0.00000000000E+00 -0.90102875541E+02  0.90102875541E+02  0.00000000000E+00 0. -1.
      99926    2    1    2    0    0  0.00000000000E+00 -0.35527136788E-14  0.45848124407E+03  0.63868699515E+03  0.44465270337E+03 0.  0.
      99925    2    3    3    0    0 -0.65224666810E+02 -0.28541784463E+02  0.18409600217E+03  0.32884242171E+03  0.26301541719E+03 0.  0.
         25    1    4    4    0    0 -0.57774451583E+02 -0.46199823655E+02  0.87453071206E+02  0.16961090391E+03  0.12509000000E+03 0.  0.
         25    1    3    3    0    0  0.65224666810E+02  0.28541784463E+02  0.27438524190E+03  0.30984457345E+03  0.12509000000E+03 0.  0.
         25    1    4    4    0    0 -0.74502152269E+01  0.17658039192E+02  0.96642930963E+02  0.15923151780E+03  0.12509000000E+03 0.  0.
<mgrwt>
<rscale>  2 0.44465270E+03</rscale>
<asrwt>0</asrwt>
<pdfrwt beam="1">  1       21 0.80674134E-01 0.44465270E+03</pdfrwt>
<pdfrwt beam="2">  1       21 0.13250423E-01 0.44465270E+03</pdfrwt>
<totfact> 0.61204487E+04</totfact>
</mgrwt>
</event>
<event>
 7    0  0.4707675E-002  0.4552371E+03  0.7546771E-02  0.1026172E+00
         21   -1    0    0  502  501  0.00000000000E+00  0.00000000000E+00  0.83508802701E+02  0.83508802701E+02  0.00000000000E+00 0.  1.
         21   -1    0    0  501  502 -0.00000000000E+00 -0.00000000000E+00 -0.62041610514E+03  0.62041610514E+03  0.00000000000E+00 0.  1.
      99926    2    1    2    0    0 -0.14210854715E-13  0.00000000000E+00 -0.53690730244E+03  0.70392490784E+03  0.45523710797E+03 0.  0.
      99925    2    3    3    0    0 -0.99466906991E+02 -0.56403904709E+01 -0.25412789549E+03  0.37906004257E+03  0.26302100490E+03 0.  0.
         25    1    4    4    0    0 -0.88759162442E+02  0.10940883178E+01 -0.11621738597E+03  0.19244057485E+03  0.12509000000E+03 0.  0.
         25    1    3    3    0    0  0.99466906991E+02  0.56403904709E+01 -0.28277940695E+03  0.32486486527E+03  0.12509000000E+03 0.  0.
         25    1    4    4    0    0 -0.10707744548E+02 -0.67344787887E+01 -0.13791050952E+03  0.18661946772E+03  0.12509000000E+03 0.  0.
<mgrwt>
<rscale>  2 0.45523711E+03</rscale>
<asrwt>0</asrwt>
<pdfrwt beam="1">  1       21 0.12280706E-01 0.45523711E+03</pdfrwt>
<pdfrwt beam="2">  1       21 0.91237665E-01 0.45523711E+03</pdfrwt>
<totfact> 0.52592178E+04</totfact>
</mgrwt>
</event>
<event>
 7    0  0.4707675E-002  0.4247530E+03  0.7546771E-02  0.1035530E+00
         21   -1    0    0  502  501  0.00000000000E+00  0.00000000000E+00  0.70944967609E+03  0.70944967609E+03  0.00000000000E+00 0. -1.
         21   -1    0    0  501  502 -0.00000000000E+00 -0.00000000000E+00 -0.63575714727E+02  0.63575714727E+02  0.00000000000E+00 0. -1.
      99926    2    1    2    0    0  0.00000000000E+00  0.00000000000E+00  0.64587396136E+03  0.77302539081E+03  0.42475296453E+03 0.  0.
      99925    2    3    3    0    0  0.70421896544E+02  0.40315059121E+02  0.40251244694E+03  0.48761886968E+03  0.26300445742E+03 0.  0.
         25    1    4    4    0    0  0.46535251302E+01  0.49647508522E+01  0.22929438492E+03  0.26128476248E+03  0.12509000000E+03 0.  0.
         25    1    3    3    0    0 -0.70421896544E+02 -0.40315059121E+02  0.24336151442E+03  0.28540652113E+03  0.12509000000E+03 0.  0.
         25    1    4    4    0    0  0.65768371414E+02  0.35350308269E+02  0.17321806202E+03  0.22633410720E+03  0.12509000000E+03 0.  0.
<mgrwt>
<rscale>  2 0.42475296E+03</rscale>
<asrwt>0</asrwt>
<pdfrwt beam="1">  1       21 0.10433083E+00 0.42475296E+03</pdfrwt>
<pdfrwt beam="2">  1       21 0.93493702E-02 0.42475296E+03</pdfrwt>
<totfact> 0.62714900E+04</totfact>
</mgrwt>
</event>
<event>
 7    0  0.4707675E-002  0.4558940E+03  0.7546771E-02  0.1025979E+00
         21   -1    0    0  502  501  0.00000000000E+00  0.00000000000E+00  0.12295625928E+04  0.12295625928E+04  0.00000000000E+00 0. -1.
         21   -1    0    0  501  502 -0.00000000000E+00 -0.00000000000E+00 -0.42258791438E+02  0.42258791438E+02  0.00000000000E+00 0. -1.
      99926    2    1    2    0    0  0.00000000000E+00 -0.35527136788E-14  0.11873038014E+04  0.12718213842E+04  0.45589397526E+03 0.  0.
      99925    2    3    3    0    0  0.54038350544E+02  0.23205216968E+02  0.10189593343E+04  0.10540003726E+04  0.26302097833E+03 0.  0.
         25    1    3    3    0    0 -0.54038350544E+02 -0.23205216968E+02  0.16834446706E+03  0.21782101165E+03  0.12509000000E+03 0.  0.
         25    1    4    4    0    0 -0.11491267133E+02  0.75984605590E+01  0.53612273838E+03  0.55069491057E+03  0.12509000000E+03 0.  0.
         25    1    4    4    0    0  0.65529617676E+02  0.15606756410E+02  0.48283659593E+03  0.50330546203E+03  0.12509000000E+03 0.  0.
<mgrwt>
<rscale>  2 0.45589398E+03</rscale>
<asrwt>0</asrwt>
<pdfrwt beam="1">  1       21 0.18081800E+00 0.45589398E+03</pdfrwt>
<pdfrwt beam="2">  1       21 0.62145290E-02 0.45589398E+03</pdfrwt>
<totfact> 0.29736761E+04</totfact>
</mgrwt>
</event>
<event>
 7    0  0.4707675E-002  0.4492985E+03  0.7546771E-02  0.1027931E+00
         21   -1    0    0  502  501  0.00000000000E+00  0.00000000000E+00  0.71283733847E+03  0.71283733847E+03  0.00000000000E+00 0. -1.
         21   -1    0    0  501  502 -0.00000000000E+00 -0.00000000000E+00 -0.70797767038E+02  0.70797767038E+02  0.00000000000E+00 0. -1.
      99926    2    1    2    0    0 -0.66613381478E-15  0.00000000000E+00  0.64203957143E+03  0.78363510550E+03  0.44929852804E+03 0.  0.
      99925    2    3    3    0    0  0.11895520342E+01  0.71959297184E+02  0.26929005801E+03  0.38392363039E+03  0.26400883156E+03 0.  0.
         25    1    4    4    0    0  0.30911119366E+02  0.40583756787E+02  0.17660952582E+03  0.22235325796E+03  0.12509000000E+03 0.  0.
         25    1    4    4    0    0 -0.29721567332E+02  0.31375540397E+02  0.92680532196E+02  0.16157037243E+03  0.12509000000E+03 0.  0.
         25    1    3    3    0    0 -0.11895520342E+01 -0.71959297184E+02  0.37274951342E+03  0.39971147511E+03  0.12509000000E+03 0.  0.
<mgrwt>
<rscale>  2 0.44929853E+03</rscale>
<asrwt>0</asrwt>
<pdfrwt beam="1">  1       21 0.10482902E+00 0.44929853E+03</pdfrwt>
<pdfrwt beam="2">  1       21 0.10411437E-01 0.44929853E+03</pdfrwt>
<totfact> 0.50802150E+04</totfact>
</mgrwt>
</event>
<event>
 7    0  0.4707675E-002  0.4583797E+03  0.7546771E-02  0.1025252E+00
         21   -1    0    0  502  501  0.00000000000E+00  0.00000000000E+00  0.31181055283E+03  0.31181055283E+03  0.00000000000E+00 0. -1.
         21   -1    0    0  501  502 -0.00000000000E+00 -0.00000000000E+00 -0.16846119691E+03  0.16846119691E+03  0.00000000000E+00 0. -1.
      99926    2    1    2    0    0  0.00000000000E+00  0.00000000000E+00  0.14334935592E+03  0.48027174974E+03  0.45837966333E+03 0.  0.
      99925    2    3    3    0    0  0.37962492763E+02 -0.87684152381E+02  0.20286631557E+02  0.28046783671E+03  0.26290872669E+03 0.  0.
         25    1    4    4    0    0 -0.12733433881E+02 -0.62791658881E+02 -0.62284307462E+01  0.14068132148E+03  0.12509000000E+03 0.  0.
         25    1    3    3    0    0 -0.37962492763E+02  0.87684152381E+02  0.12306272436E+03  0.19980391303E+03  0.12509000000E+03 0.  0.
         25    1    4    4    0    0  0.50695926644E+02 -0.24892493500E+02  0.26515062303E+02  0.13978651523E+03  0.12509000000E+03 0.  0.
<mgrwt>
<rscale>  2 0.45837966E+03</rscale>
<asrwt>0</asrwt>
<pdfrwt beam="1">  1       21 0.45854493E-01 0.45837966E+03</pdfrwt>
<pdfrwt beam="2">  1       21 0.24773705E-01 0.45837966E+03</pdfrwt>
<totfact> 0.64921296E+04</totfact>
</mgrwt>
</event>
<event>
 7    0  0.4707675E-002  0.4547653E+03  0.7546771E-02  0.1026310E+00
         21   -1    0    0  502  501  0.00000000000E+00  0.00000000000E+00  0.18384803416E+03  0.18384803416E+03  0.00000000000E+00 0.  1.
         21   -1    0    0  501  502 -0.00000000000E+00 -0.00000000000E+00 -0.28122609618E+03  0.28122609618E+03  0.00000000000E+00 0.  1.
      99926    2    1    2    0    0  0.00000000000E+00 -0.35527136788E-14 -0.97378062018E+02  0.46507413034E+03  0.45476527984E+03 0.  0.
      99925    2    3    3    0    0 -0.11094401917E+03  0.17783925167E+02 -0.50108776047E+02  0.29041235181E+03  0.26306577364E+03 0.  0.
         25    1    4    4    0    0 -0.24449171568E+02 -0.17310208492E+02 -0.36693607500E+02  0.13375849222E+03  0.12509000000E+03 0.  0.
         25    1    3    3    0    0  0.11094401917E+03 -0.17783925167E+02 -0.47269285971E+02  0.17466177853E+03  0.12509000000E+03 0.  0.
         25    1    4    4    0    0 -0.86494847598E+02  0.35094133658E+02 -0.13415168547E+02  0.15665385959E+03  0.12509000000E+03 0.  0.
<mgrwt>
<rscale>  2 0.45476528E+03</rscale>
<asrwt>0</asrwt>
<pdfrwt beam="1">  1       21 0.27036475E-01 0.45476528E+03</pdfrwt>
<pdfrwt beam="2">  1       21 0.41356779E-01 0.45476528E+03</pdfrwt>
<totfact> 0.67930837E+04</totfact>
</mgrwt>
</event>
<event>
 7    0  0.4707675E-002  0.4585031E+03  0.7546771E-02  0.1025216E+00
         21   -1    0    0  502  501  0.00000000000E+00  0.00000000000E+00  0.42830266124E+03  0.42830266124E+03  0.00000000000E+00 0. -1.
         21   -1    0    0  501  502 -0.00000000000E+00 -0.00000000000E+00 -0.12270826328E+03  0.12270826328E+03  0.00000000000E+00 0. -1.
      99926    2    1    2    0    0  0.00000000000E+00  0.14210854715E-13  0.30559439796E+03  0.55101092452E+03  0.45850311108E+03 0.  0.
      99925    2    3    3    0    0  0.33159760148E+02 -0.10543956171E+03  0.14780448927E+03  0.32131061052E+03  0.26301572295E+03 0.  0.
         25    1    4    4    0    0  0.50895648095E+02 -0.67997952953E+02  0.99310915971E+02  0.18089846526E+03  0.12509000000E+03 0.  0.
         25    1    4    4    0    0 -0.17735887948E+02 -0.37441608752E+02  0.48493573302E+02  0.14041214527E+03  0.12509000000E+03 0.  0.
         25    1    3    3    0    0 -0.33159760148E+02  0.10543956171E+03  0.15778990868E+03  0.22970031399E+03  0.12509000000E+03 0.  0.
<mgrwt>
<rscale>  2 0.45850311E+03</rscale>
<asrwt>0</asrwt>
<pdfrwt beam="1">  1       21 0.62985685E-01 0.45850311E+03</pdfrwt>
<pdfrwt beam="2">  1       21 0.18045333E-01 0.45850311E+03</pdfrwt>
<totfact> 0.60116185E+04</totfact>
</mgrwt>
</event>
<event>
 7    0  0.4707675E-002  0.4492309E+03  0.7546771E-02  0.1027952E+00
         21   -1    0    0  502  501  0.00000000000E+00  0.00000000000E+00  0.10719580523E+03  0.10719580523E+03  0.00000000000E+00 0. -1.
         21   -1    0    0  501  502 -0.00000000000E+00 -0.00000000000E+00 -0.47065369501E+03  0.47065369501E+03  0.00000000000E+00 0. -1.
      99926    2    1    2    0    0  0.00000000000E+00  0.00000000000E+00 -0.36345788978E+03  0.57784950024E+03  0.44923090642E+03 0.  0.
      99925    2    3    3    0    0  0.10008820502E+03  0.19033310873E+02 -0.18489178181E+03  0.33719772126E+03  0.26293994854E+03 0.  0.
         25    1    4    4    0    0  0.84767515732E+02 -0.19271537774E+01 -0.12492098645E+03  0.19606633215E+03  0.12509000000E+03 0.  0.
         25    1    3    3    0    0 -0.10008820502E+03 -0.19033310873E+02 -0.17856610797E+03  0.24065177897E+03  0.12509000000E+03 0.  0.
         25    1    4    4    0    0  0.15320689290E+02  0.20960464651E+02 -0.59970795357E+02  0.14113138912E+03  0.12509000000E+03 0.  0.
<mgrwt>
<rscale>  2 0.44923091E+03</rscale>
<asrwt>0</asrwt>
<pdfrwt beam="1">  1       21 0.15764089E-01 0.44923091E+03</pdfrwt>
<pdfrwt beam="2">  1       21 0.69213778E-01 0.44923091E+03</pdfrwt>
<totfact> 0.62882224E+04</totfact>
</mgrwt>
</event>
<event>
 7    0  0.4707675E-002  0.4520637E+03  0.7546771E-02  0.1027108E+00
         21   -1    0    0  502  501  0.00000000000E+00  0.00000000000E+00  0.13395575989E+03  0.13395575989E+03  0.00000000000E+00 0. -1.
         21   -1    0    0  501  502 -0.00000000000E+00 -0.00000000000E+00 -0.38139750367E+03  0.38139750367E+03  0.00000000000E+00 0. -1.
      99926    2    1    2    0    0  0.00000000000E+00  0.00000000000E+00 -0.24744174378E+03  0.51535326357E+03  0.45206367881E+03 0.  0.
      99925    2    3    3    0    0 -0.88043180021E+02  0.14975144868E+02 -0.22981609062E+03  0.36064699911E+03  0.26320137908E+03 0.  0.
         25    1    4    4    0    0 -0.78356071222E+01 -0.68657072250E+01 -0.82110635288E+02  0.14999399722E+03  0.12509000000E+03 0.  0.
         25    1    3    3    0    0  0.88043180021E+02 -0.14975144868E+02 -0.17625653163E+02  0.15470626445E+03  0.12509000000E+03 0.  0.
         25    1    4    4    0    0 -0.80207572899E+02  0.21840852092E+02 -0.14770545533E+03  0.21065300189E+03  0.12509000000E+03 0.  0.
<mgrwt>
<rscale>  2 0.45206368E+03</rscale>
<asrwt>0</asrwt>
<pdfrwt beam="1">  1       21 0.19699377E-01 0.45206368E+03</pdfrwt>
<pdfrwt beam="2">  1       21 0.56087867E-01 0.45206368E+03</pdfrwt>
<totfact> 0.65722902E+04</totfact>
</mgrwt>
</event>
<event>
 7    0  0.4707675E-002  0.4491283E+03  0.7546771E-02  0.1027982E+00
         21   -1    0    0  502  501  0.00000000000E+00  0.00000000000E+00  0.12149292915E+04  0.12149292915E+04  0.00000000000E+00 0. -1.
         21   -1    0    0  501  502 -0.00000000000E+00 -0.00000000000E+00 -0.41507811187E+02  0.41507811187E+02  0.00000000000E+00 0. -1.
      99926    2    1    2    0    0  0.00000000000E+00  0.00000000000E+00  0.11734214803E+04  0.12564371027E+04  0.44912829186E+03 0.  0.
      99925    2    3    3    0    0  0.30762625022E+02 -0.55798995841E+02  0.98475607064E+03  0.10212733046E+04  0.26304900100E+03 0.  0.
         25    1    4    4    0    0  0.45859461551E+01 -0.52388231381E+01  0.34830107004E+03  0.37014810503E+03  0.12509000000E+03 0.  0.
         25    1    4    4    0    0  0.26176678867E+02 -0.50560172703E+02  0.63645500061E+03  0.65112519954E+03  0.12509000000E+03 0.  0.
         25    1    3    3    0    0 -0.30762625022E+02  0.55798995841E+02  0.18866540964E+03  0.23516379809E+03  0.12509000000E+03 0.  0.
<mgrwt>
<rscale>  2 0.44912829E+03</rscale>
<asrwt>0</asrwt>
<pdfrwt beam="1">  1       21 0.17866605E+00 0.44912829E+03</pdfrwt>
<pdfrwt beam="2">  1       21 0.61040907E-02 0.44912829E+03</pdfrwt>
<totfact> 0.31836797E+04</totfact>
</mgrwt>
</event>
<event>
 7    0  0.4707675E-002  0.4409137E+03  0.7546771E-02  0.1030467E+00
         21   -1    0    0  502  501  0.00000000000E+00  0.00000000000E+00  0.37682829019E+03  0.37682829019E+03  0.00000000000E+00 0. -1.
         21   -1    0    0  501  502 -0.00000000000E+00 -0.00000000000E+00 -0.12897447018E+03  0.12897447018E+03  0.00000000000E+00 0. -1.
      99926    2    1    2    0    0  0.00000000000E+00  0.00000000000E+00  0.24785382001E+03  0.50580276036E+03  0.44091372886E+03 0.  0.
      99925    2    3    3    0    0 -0.25856399722E+02 -0.69806800341E+02  0.82135822868E+02  0.28523189770E+03  0.26281057681E+03 0.  0.
         25    1    4    4    0    0 -0.19760567025E+02  0.59369315990E+01  0.37037995165E+02  0.13207970454E+03  0.12509000000E+03 0.  0.
         25    1    3    3    0    0  0.25856399722E+02  0.69806800341E+02  0.16571799714E+03  0.22057086267E+03  0.12509000000E+03 0.  0.
         25    1    4    4    0    0 -0.60958326968E+01 -0.75743731940E+02  0.45097827703E+02  0.15315219315E+03  0.12509000000E+03 0.  0.
<mgrwt>
<rscale>  2 0.44091373E+03</rscale>
<asrwt>0</asrwt>
<pdfrwt beam="1">  1       21 0.55415925E-01 0.44091373E+03</pdfrwt>
<pdfrwt beam="2">  1       21 0.18966834E-01 0.44091373E+03</pdfrwt>
<totfact> 0.72652528E+04</totfact>
</mgrwt>
</event>
<event>
 7    0  0.4707675E-002  0.4613385E+03  0.7546771E-02  0.1024394E+00
         21   -1    0    0  502  501  0.00000000000E+00  0.00000000000E+00  0.28194747452E+03  0.28194747452E+03  0.00000000000E+00 0.  1.
         21   -1    0    0  501  502 -0.00000000000E+00 -0.00000000000E+00 -0.18871703978E+03  0.18871703978E+03  0.00000000000E+00 0.  1.
      99926    2    1    2    0    0  0.00000000000E+00  0.00000000000E+00  0.93230434742E+02  0.47066451430E+03  0.46133845608E+03 0.  0.
      99925    2    3    3    0    0  0.42369389244E+02  0.89064424036E+02 -0.96284825869E+01  0.28104620888E+03  0.26299548870E+03 0.  0.
         25    1    3    3    0    0 -0.42369389244E+02 -0.89064424036E+02  0.10285891733E+03  0.18961830541E+03  0.12509000000E+03 0.  0.
         25    1    4    4    0    0 -0.19489750885E+02  0.48064285273E+02 -0.61982779928E+01  0.13555793101E+03  0.12509000000E+03 0.  0.
         25    1    4    4    0    0  0.61859140129E+02  0.41000138763E+02 -0.34302045942E+01  0.14548827788E+03  0.12509000000E+03 0.  0.
<mgrwt>
<rscale>  2 0.46133846E+03</rscale>
<asrwt>0</asrwt>
<pdfrwt beam="1">  1       21 0.41462864E-01 0.46133846E+03</pdfrwt>
<pdfrwt beam="2">  1       21 0.27752506E-01 0.46133846E+03</pdfrwt>
<totfact> 0.64100690E+04</totfact>
</mgrwt>
</event>
<event>
 7    0  0.4707675E-002  0.4401527E+03  0.7546771E-02  0.1030700E+00
         21   -1    0    0  502  501  0.00000000000E+00  0.00000000000E+00  0.32384888403E+03  0.32384888403E+03  0.00000000000E+00 0. -1.
         21   -1    0    0  501  502 -0.00000000000E+00 -0.00000000000E+00 -0.14955614401E+03  0.14955614401E+03  0.00000000000E+00 0. -1.
      99926    2    1    2    0    0  0.00000000000E+00  0.35527136788E-14  0.17429274002E+03  0.47340502805E+03  0.44015265687E+03 0.  0.
      99925    2    3    3    0    0 -0.70280265703E+02 -0.31070243242E+02  0.17774224168E+03  0.32655788669E+03  0.26295070474E+03 0.  0.
         25    1    4    4    0    0 -0.14285887995E+02  0.18407635281E+02  0.69006595506E+02  0.14474925200E+03  0.12509000000E+03 0.  0.
         25    1    4    4    0    0 -0.55994377708E+02 -0.49477878524E+02  0.10873564617E+03  0.18180863469E+03  0.12509000000E+03 0.  0.
         25    1    3    3    0    0  0.70280265703E+02  0.31070243242E+02 -0.34495016541E+01  0.14684714135E+03  0.12509000000E+03 0.  0.
<mgrwt>
<rscale>  2 0.44015266E+03</rscale>
<asrwt>0</asrwt>
<pdfrwt beam="1">  1       21 0.47624836E-01 0.44015266E+03</pdfrwt>
<pdfrwt beam="2">  1       21 0.21993551E-01 0.44015266E+03</pdfrwt>
<totfact> 0.75721654E+04</totfact>
</mgrwt>
</event>
<event>
 7    0  0.4707675E-002  0.4620759E+03  0.7546771E-02  0.1024181E+00
         21   -1    0    0  502  501  0.00000000000E+00  0.00000000000E+00  0.10832820091E+03  0.10832820091E+03  0.00000000000E+00 0.  1.
         21   -1    0    0  501  502 -0.00000000000E+00 -0.00000000000E+00 -0.49274822142E+03  0.49274822142E+03  0.00000000000E+00 0.  1.
      99926    2    1    2    0    0  0.00000000000E+00  0.14210854715E-13 -0.38442002051E+03  0.60107642233E+03  0.46207587398E+03 0.  0.
      99925    2    3    3    0    0  0.18388796388E+02  0.11715627716E+03 -0.21991983834E+03  0.36280859163E+03  0.26306196562E+03 0.  0.
         25    1    4    4    0    0 -0.61248637864E+01  0.37026283450E+02 -0.61837614846E+02  0.14449864474E+03  0.12509000000E+03 0.  0.
         25    1    3    3    0    0 -0.18388796388E+02 -0.11715627716E+03 -0.16450018217E+03  0.23826783070E+03  0.12509000000E+03 0.  0.
         25    1    4    4    0    0  0.24513660174E+02  0.80129993711E+02 -0.15808222349E+03  0.21830994689E+03  0.12509000000E+03 0.  0.
<mgrwt>
<rscale>  2 0.46207587E+03</rscale>
<asrwt>0</asrwt>
<pdfrwt beam="1">  1       21 0.15930618E-01 0.46207587E+03</pdfrwt>
<pdfrwt beam="2">  1       21 0.72462975E-01 0.46207587E+03</pdfrwt>
<totfact> 0.55446493E+04</totfact>
</mgrwt>
</event>
<event>
 7    0  0.4707675E-002  0.4522221E+03  0.7546771E-02  0.1027061E+00
         21   -1    0    0  502  501  0.00000000000E+00  0.00000000000E+00  0.46944036218E+02  0.46944036218E+02  0.00000000000E+00 0.  1.
         21   -1    0    0  501  502 -0.00000000000E+00 -0.00000000000E+00 -0.10890885190E+04  0.10890885190E+04  0.00000000000E+00 0.  1.
      99926    2    1    2    0    0  0.00000000000E+00  0.14210854715E-13 -0.10421444828E+04  0.11360325553E+04  0.45222211747E+03 0.  0.
      99925    2    3    3    0    0  0.84747244579E+02 -0.70773771588E+02 -0.65238796295E+03  0.71206477925E+03  0.26312577495E+03 0.  0.
         25    1    3    3    0    0 -0.84747244579E+02  0.70773771588E+02 -0.38975651988E+03  0.42396777601E+03  0.12509000000E+03 0.  0.
         25    1    4    4    0    0  0.65722604327E+02 -0.15399703305E+02 -0.26373138714E+03  0.29959700306E+03  0.12509000000E+03 0.  0.
         25    1    4    4    0    0  0.19024640252E+02 -0.55374068284E+02 -0.38865657581E+03  0.41246777619E+03  0.12509000000E+03 0.  0.
<mgrwt>
<rscale>  2 0.45222212E+03</rscale>
<asrwt>0</asrwt>
<pdfrwt beam="1">  1       21 0.69035357E-02 0.45222212E+03</pdfrwt>
<pdfrwt beam="2">  1       21 0.16016005E+00 0.45222212E+03</pdfrwt>
<totfact> 0.35003976E+04</totfact>
</mgrwt>
</event>
<event>
 7    0  0.4707675E-002  0.4454682E+03  0.7546771E-02  0.1029082E+00
         21   -1    0    0  502  501  0.00000000000E+00  0.00000000000E+00  0.45909934855E+03  0.45909934855E+03  0.00000000000E+00 0. -1.
         21   -1    0    0  501  502 -0.00000000000E+00 -0.00000000000E+00 -0.10806045885E+03  0.10806045885E+03  0.00000000000E+00 0. -1.
      99926    2    1    2    0    0 -0.14210854715E-13  0.17763568394E-14  0.35103888970E+03  0.56715980740E+03  0.44546823124E+03 0.  0.
      99925    2    3    3    0    0  0.97626511217E+02 -0.81946366319E+01  0.26723488559E+03  0.38752488049E+03  0.26298851906E+03 0.  0.
         25    1    4    4    0    0  0.28303737653E+02  0.18980188382E+02  0.88341212245E+02  0.15688539447E+03  0.12509000000E+03 0.  0.
         25    1    4    4    0    0  0.69322773564E+02 -0.27174825014E+02  0.17889367334E+03  0.23063948602E+03  0.12509000000E+03 0.  0.
         25    1    3    3    0    0 -0.97626511217E+02  0.81946366319E+01  0.83804004114E+02  0.17963492691E+03  0.12509000000E+03 0.  0.
<mgrwt>
<rscale>  2 0.44546823E+03</rscale>
<asrwt>0</asrwt>
<pdfrwt beam="1">  1       21 0.67514610E-01 0.44546823E+03</pdfrwt>
<pdfrwt beam="2">  1       21 0.15891244E-01 0.44546823E+03</pdfrwt>
<totfact> 0.65549749E+04</totfact>
</mgrwt>
</event>
<event>
 7    0  0.4707675E-002  0.4603835E+03  0.7546771E-02  0.1024670E+00
         21   -1    0    0  502  501  0.00000000000E+00  0.00000000000E+00  0.10579904503E+03  0.10579904503E+03  0.00000000000E+00 0.  1.
         21   -1    0    0  501  502 -0.00000000000E+00 -0.00000000000E+00 -0.50083866259E+03  0.50083866259E+03  0.00000000000E+00 0.  1.
      99926    2    1    2    0    0  0.00000000000E+00  0.17763568394E-14 -0.39503961756E+03  0.60663770761E+03  0.46038354538E+03 0.  0.
      99925    2    3    3    0    0  0.10108842668E+03  0.84516459640E+01 -0.16760795570E+03  0.32795694179E+03  0.26300765868E+03 0.  0.
         25    1    3    3    0    0 -0.10108842668E+03 -0.84516459640E+01 -0.22743166186E+03  0.27868076583E+03  0.12509000000E+03 0.  0.
         25    1    4    4    0    0  0.70526325780E+02 -0.13417512575E+02 -0.51343944992E+02  0.15309376558E+03  0.12509000000E+03 0.  0.
         25    1    4    4    0    0  0.30562100898E+02  0.21869158539E+02 -0.11626401071E+03  0.17486317621E+03  0.12509000000E+03 0.  0.
<mgrwt>
<rscale>  2 0.46038355E+03</rscale>
<asrwt>0</asrwt>
<pdfrwt beam="1">  1       21 0.15558683E-01 0.46038355E+03</pdfrwt>
<pdfrwt beam="2">  1       21 0.73652744E-01 0.46038355E+03</pdfrwt>
<totfact> 0.55857758E+04</totfact>
</mgrwt>
</event>
<event>
 7    0  0.4707675E-002  0.4531317E+03  0.7546771E-02  0.1026792E+00
         21   -1    0    0  502  501  0.00000000000E+00  0.00000000000E+00  0.85381994983E+03  0.85381994983E+03  0.00000000000E+00 0. -1.
         21   -1    0    0  501  502 -0.00000000000E+00 -0.00000000000E+00 -0.60120509162E+02  0.60120509162E+02  0.00000000000E+00 0. -1.
      99926    2    1    2    0    0  0.00000000000E+00  0.35527136788E-14  0.79369944067E+03  0.91394045899E+03  0.45313172529E+03 0.  0.
      99925    2    3    3    0    0  0.27915735833E+01  0.22749313830E+02  0.28055158542E+03  0.38526896023E+03  0.26305447244E+03 0.  0.
         25    1    4    4    0    0 -0.34167333313E+01  0.20054130319E+02  0.19853205873E+03  0.23553413479E+03  0.12509000000E+03 0.  0.
         25    1    4    4    0    0  0.62083069146E+01  0.26951835113E+01  0.82019526695E+02  0.14973482544E+03  0.12509000000E+03 0.  0.
         25    1    3    3    0    0 -0.27915735833E+01 -0.22749313830E+02  0.51314785524E+03  0.52867149876E+03  0.12509000000E+03 0.  0.
<mgrwt>
<rscale>  2 0.45313173E+03</rscale>
<asrwt>0</asrwt>
<pdfrwt beam="1">  1       21 0.12556175E+00 0.45313173E+03</pdfrwt>
<pdfrwt beam="2">  1       21 0.88412518E-02 0.45313173E+03</pdfrwt>
<totfact> 0.43265507E+04</totfact>
</mgrwt>
</event>
<event>
 7    0  0.4707675E-002  0.4585496E+03  0.7546771E-02  0.1025203E+00
         21   -1    0    0  502  501  0.00000000000E+00  0.00000000000E+00  0.99524779653E+03  0.99524779653E+03  0.00000000000E+00 0.  1.
         21   -1    0    0  501  502 -0.00000000000E+00 -0.00000000000E+00 -0.52817939332E+02  0.52817939332E+02  0.00000000000E+00 0.  1.
      99926    2    1    2    0    0  0.00000000000E+00  0.00000000000E+00  0.94242985720E+03  0.10480657359E+04  0.45854961667E+03 0.  0.
      99925    2    3    3    0    0  0.82702010936E+02 -0.24082250188E+02  0.41235858184E+03  0.49666511703E+03  0.26309135499E+03 0.  0.
         25    1    4    4    0    0  0.82771287734E+02 -0.62646948048E+01  0.23638058757E+03  0.28002432529E+03  0.12509000000E+03 0.  0.
         25    1    3    3    0    0 -0.82702010936E+02  0.24082250188E+02  0.53007127536E+03  0.55140061883E+03  0.12509000000E+03 0.  0.
         25    1    4    4    0    0 -0.69276797440E-01 -0.17817555383E+02  0.17597799426E+03  0.21664079174E+03  0.12509000000E+03 0.  0.
<mgrwt>
<rscale>  2 0.45854962E+03</rscale>
<asrwt>0</asrwt>
<pdfrwt beam="1">  1       21 0.14635996E+00 0.45854962E+03</pdfrwt>
<pdfrwt beam="2">  1       21 0.77673446E-02 0.45854962E+03</pdfrwt>
<totfact> 0.36331349E+04</totfact>
</mgrwt>
</event>
<event>
 7    0  0.4707675E-002  0.4504920E+03  0.7546771E-02  0.1027575E+00
         21   -1    0    0  502  501  0.00000000000E+00  0.00000000000E+00  0.50346836032E+03  0.50346836032E+03  0.00000000000E+00 0. -1.
         21   -1    0    0  501  502 -0.00000000000E+00 -0.00000000000E+00 -0.10077249647E+03  0.10077249647E+03  0.00000000000E+00 0. -1.
      99926    2    1    2    0    0  0.71054273576E-14  0.00000000000E+00  0.40269586385E+03  0.60424085679E+03  0.45049201353E+03 0.  0.
      99925    2    3    3    0    0 -0.62363985560E+02  0.16899446540E+02  0.13695780727E+03  0.30350994584E+03  0.26303229509E+03 0.  0.
         25    1    4    4    0    0  0.44400712067E+01  0.23710175604E+02  0.80649851322E+02  0.15077729696E+03  0.12509000000E+03 0.  0.
         25    1    3    3    0    0  0.62363985560E+02 -0.16899446540E+02  0.26573805658E+03  0.30073091096E+03  0.12509000000E+03 0.  0.
         25    1    4    4    0    0 -0.66804056767E+02 -0.68107290634E+01  0.56307955947E+02  0.15273264888E+03  0.12509000000E+03 0.  0.
<mgrwt>
<rscale>  2 0.45049201E+03</rscale>
<asrwt>0</asrwt>
<pdfrwt beam="1">  1       21 0.74039464E-01 0.45049201E+03</pdfrwt>
<pdfrwt beam="2">  1       21 0.14819485E-01 0.45049201E+03</pdfrwt>
<totfact> 0.60545592E+04</totfact>
</mgrwt>
</event>
<event>
 7    0  0.4707675E-002  0.4616155E+03  0.7546771E-02  0.1024314E+00
         21   -1    0    0  502  501  0.00000000000E+00  0.00000000000E+00  0.74465039231E+03  0.74465039231E+03  0.00000000000E+00 0. -1.
         21   -1    0    0  501  502 -0.00000000000E+00 -0.00000000000E+00 -0.71539914569E+02  0.71539914569E+02  0.00000000000E+00 0. -1.
      99926    2    1    2    0    0  0.00000000000E+00  0.00000000000E+00  0.67311047774E+03  0.81619030688E+03  0.46161553462E+03 0.  0.
      99925    2    3    3    0    0  0.56238301404E+02 -0.19169151470E+02  0.23825294224E+03  0.35981459850E+03  0.26300547123E+03 0.  0.
         25    1    3    3    0    0 -0.56238301404E+02  0.19169151470E+02  0.43485753550E+03  0.45637570837E+03  0.12509000000E+03 0.  0.
         25    1    4    4    0    0  0.84208317883E+01 -0.44684483552E+02  0.12476692662E+03  0.18243329618E+03  0.12509000000E+03 0.  0.
         25    1    4    4    0    0  0.47817469616E+02  0.25515332081E+02  0.11348601562E+03  0.17738130232E+03  0.12509000000E+03 0.  0.
<mgrwt>
<rscale>  2 0.46161553E+03</rscale>
<asrwt>0</asrwt>
<pdfrwt beam="1">  1       21 0.10950741E+00 0.46161553E+03</pdfrwt>
<pdfrwt beam="2">  1       21 0.10520576E-01 0.46161553E+03</pdfrwt>
<totfact> 0.44629389E+04</totfact>
</mgrwt>
</event>
<event>
 7    0  0.4707675E-002  0.4520212E+03  0.7546771E-02  0.1027121E+00
         21   -1    0    0  502  501  0.00000000000E+00  0.00000000000E+00  0.49490939593E+02  0.49490939593E+02  0.00000000000E+00 0.  1.
         21   -1    0    0  501  502 -0.00000000000E+00 -0.00000000000E+00 -0.10321242989E+04  0.10321242989E+04  0.00000000000E+00 0.  1.
      99926    2    1    2    0    0 -0.14210854715E-13 -0.14210854715E-13 -0.98263335932E+03  0.10816152385E+04  0.45202124432E+03 0.  0.
      99925    2    3    3    0    0  0.72059465663E+02  0.71271848066E+02 -0.51514492108E+03  0.58718102558E+03  0.26293539924E+03 0.  0.
         25    1    3    3    0    0 -0.72059465663E+02 -0.71271848066E+02 -0.46748843824E+03  0.49443421292E+03  0.12509000000E+03 0.  0.
         25    1    4    4    0    0  0.19914226777E+02  0.74636565565E+01 -0.18151579235E+03  0.22146731941E+03  0.12509000000E+03 0.  0.
         25    1    4    4    0    0  0.52145238885E+02  0.63808191509E+02 -0.33362912873E+03  0.36571370617E+03  0.12509000000E+03 0.  0.
<mgrwt>
<rscale>  2 0.45202124E+03</rscale>
<asrwt>0</asrwt>
<pdfrwt beam="1">  1       21 0.72780795E-02 0.45202124E+03</pdfrwt>
<pdfrwt beam="2">  1       21 0.15178298E+00 0.45202124E+03</pdfrwt>
<totfact> 0.36990559E+04</totfact>
</mgrwt>
</event>
<event>
 7    0  0.4707675E-002  0.4544238E+03  0.7546771E-02  0.1026411E+00
         21   -1    0    0  502  501  0.00000000000E+00  0.00000000000E+00  0.80098739294E+03  0.80098739294E+03  0.00000000000E+00 0. -1.
         21   -1    0    0  501  502 -0.00000000000E+00 -0.00000000000E+00 -0.64452001566E+02  0.64452001566E+02  0.00000000000E+00 0. -1.
      99926    2    1    2    0    0  0.35527136788E-14  0.00000000000E+00  0.73653539138E+03  0.86543939451E+03  0.45442377008E+03 0.  0.
      99925    2    3    3    0    0  0.23629287167E+02 -0.95435121572E+02  0.56839945437E+03  0.63395849453E+03  0.26298142029E+03 0.  0.
         25    1    3    3    0    0 -0.23629287167E+02  0.95435121572E+02  0.16813593701E+03  0.23148089998E+03  0.12509000000E+03 0.  0.
         25    1    4    4    0    0 -0.21448717196E+02 -0.49758342291E+02  0.22765382384E+03  0.26534828378E+03  0.12509000000E+03 0.  0.
         25    1    4    4    0    0  0.45078004363E+02 -0.45676779281E+02  0.34074563053E+03  0.36861021075E+03  0.12509000000E+03 0.  0.
<mgrwt>
<rscale>  2 0.45442377E+03</rscale>
<asrwt>0</asrwt>
<pdfrwt beam="1">  1       21 0.11779226E+00 0.45442377E+03</pdfrwt>
<pdfrwt beam="2">  1       21 0.94782360E-02 0.45442377E+03</pdfrwt>
<totfact> 0.44959174E+04</totfact>
</mgrwt>
</event>
<event>
 7    0  0.4707675E-002  0.4519183E+03  0.7546771E-02  0.1027152E+00
         21   -1    0    0  502  501  0.00000000000E+00  0.00000000000E+00  0.18108222793E+03  0.18108222793E+03  0.00000000000E+00 0.  1.
         21   -1    0    0  501  502 -0.00000000000E+00 -0.00000000000E+00 -0.28195777933E+03  0.28195777933E+03  0.00000000000E+00 0.  1.
      99926    2    1    2    0    0  0.00000000000E+00  0.00000000000E+00 -0.10087555140E+03  0.46304000727E+03  0.45191832388E+03 0.  0.
      99925    2    3    3    0    0  0.60629383178E+02  0.77428556052E+02 -0.11442742377E+03  0.30334572201E+03  0.26316133522E+03 0.  0.
         25    1    3    3    0    0 -0.60629383178E+02 -0.77428556052E+02  0.13551872374E+02  0.15969428525E+03  0.12509000000E+03 0.  0.
         25    1    4    4    0    0  0.42415183271E+02  0.17215003603E+02 -0.91156077291E+02  0.16140738102E+03  0.12509000000E+03 0.  0.
         25    1    4    4    0    0  0.18214199908E+02  0.60213552450E+02 -0.23271346483E+02  0.14193834099E+03  0.12509000000E+03 0.  0.
<mgrwt>
<rscale>  2 0.45191832E+03</rscale>
<asrwt>0</asrwt>
<pdfrwt beam="1">  1       21 0.26629740E-01 0.45191832E+03</pdfrwt>
<pdfrwt beam="2">  1       21 0.41464379E-01 0.45191832E+03</pdfrwt>
<totfact> 0.69644181E+04</totfact>
</mgrwt>
</event>
<event>
 7    0  0.4707675E-002  0.4578253E+03  0.7546771E-02  0.1025414E+00
         21   -1    0    0  502  501  0.00000000000E+00  0.00000000000E+00  0.19888771387E+04  0.19888771387E+04  0.00000000000E+00 0. -1.
         21   -1    0    0  501  502 -0.00000000000E+00 -0.00000000000E+00 -0.26347025246E+02  0.26347025246E+02  0.00000000000E+00 0. -1.
      99926    2    1    2    0    0  0.00000000000E+00  0.00000000000E+00  0.19625301134E+04  0.20152241639E+04  0.45782527752E+03 0.  0.
      99925    2    3    3    0    0 -0.11853121586E+02 -0.88898990508E+02  0.90989699388E+03  0.95139733616E+03  0.26306049640E+03 0.  0.
         25    1    3    3    0    0  0.11853121586E+02  0.88898990508E+02  0.10526331196E+04  0.10638268278E+04  0.12509000000E+03 0.  0.
         25    1    4    4    0    0  0.99391582466E+01 -0.61711692661E+01  0.44733706713E+03  0.46464484278E+03  0.12509000000E+03 0.  0.
         25    1    4    4    0    0 -0.21792279833E+02 -0.82727821242E+02  0.46255992676E+03  0.48675249338E+03  0.12509000000E+03 0.  0.
<mgrwt>
<rscale>  2 0.45782528E+03</rscale>
<asrwt>0</asrwt>
<pdfrwt beam="1">  1       21 0.29248183E+00 0.45782528E+03</pdfrwt>
<pdfrwt beam="2">  1       21 0.38745639E-02 0.45782528E+03</pdfrwt>
<totfact> 0.13171447E+04</totfact>
</mgrwt>
</event>
<event>
 7    0  0.4707675E-002  0.4683724E+03  0.7546771E-02  0.1022381E+00
         21   -1    0    0  502  501  0.00000000000E+00  0.00000000000E+00  0.73163660563E+02  0.73163660563E+02  0.00000000000E+00 0.  1.
         21   -1    0    0  501  502 -0.00000000000E+00 -0.00000000000E+00 -0.74959582064E+03  0.74959582064E+03  0.00000000000E+00 0.  1.
      99926    2    1    2    0    0  0.14210854715E-13  0.00000000000E+00 -0.67643216008E+03  0.82275948120E+03  0.46837239108E+03 0.  0.
      99925    2    3    3    0    0 -0.92091497279E+02  0.39586173206E+02 -0.28861729832E+03  0.40312179929E+03  0.26298161760E+03 0.  0.
         25    1    4    4    0    0 -0.32512386801E+01  0.21107774324E+02 -0.12954880085E+03  0.18134637739E+03  0.12509000000E+03 0.  0.
         25    1    4    4    0    0 -0.88840258599E+02  0.18478398882E+02 -0.15906849747E+03  0.22177542190E+03  0.12509000000E+03 0.  0.
         25    1    3    3    0    0  0.92091497279E+02 -0.39586173206E+02 -0.38781486176E+03  0.41963768192E+03  0.12509000000E+03 0.  0.
<mgrwt>
<rscale>  2 0.46837239E+03</rscale>
<asrwt>0</asrwt>
<pdfrwt beam="1">  1       21 0.10759363E-01 0.46837239E+03</pdfrwt>
<pdfrwt beam="2">  1       21 0.11023467E+00 0.46837239E+03</pdfrwt>
<totfact> 0.42090289E+04</totfact>
</mgrwt>
</event>
<event>
 7    0  0.4707675E-002  0.4570708E+03  0.7546771E-02  0.1025634E+00
         21   -1    0    0  502  501  0.00000000000E+00  0.00000000000E+00  0.70389815653E+02  0.70389815653E+02  0.00000000000E+00 0.  1.
         21   -1    0    0  501  502 -0.00000000000E+00 -0.00000000000E+00 -0.74198828106E+03  0.74198828106E+03  0.00000000000E+00 0.  1.
      99926    2    1    2    0    0 -0.35527136788E-14  0.71054273576E-14 -0.67159846540E+03  0.81237809671E+03  0.45707075304E+03 0.  0.
      99925    2    3    3    0    0 -0.20161930887E+02  0.50543764903E+02 -0.23985375956E+03  0.35959539524E+03  0.26233155867E+03 0.  0.
         25    1    3    3    0    0  0.20161930887E+02 -0.50543764903E+02 -0.43174470584E+03  0.45278270147E+03  0.12509000000E+03 0.  0.
         25    1    4    4    0    0  0.12178093595E+02  0.64278618386E+01 -0.78887588901E+02  0.14852738183E+03  0.12509000000E+03 0.  0.
         25    1    4    4    0    0 -0.32340024482E+02  0.44115903065E+02 -0.16096617066E+03  0.21106801341E+03  0.12509000000E+03 0.  0.
<mgrwt>
<rscale>  2 0.45707075E+03</rscale>
<asrwt>0</asrwt>
<pdfrwt beam="1">  1       21 0.10351443E-01 0.45707075E+03</pdfrwt>
<pdfrwt beam="2">  1       21 0.10911592E+00 0.45707075E+03</pdfrwt>
<totfact> 0.46413125E+04</totfact>
</mgrwt>
</event>
<event>
 7    0  0.4707675E-002  0.4512630E+03  0.7546771E-02  0.1027346E+00
         21   -1    0    0  502  501  0.00000000000E+00  0.00000000000E+00  0.13713553526E+04  0.13713553526E+04  0.00000000000E+00 0.  1.
         21   -1    0    0  501  502 -0.00000000000E+00 -0.00000000000E+00 -0.37123547431E+02  0.37123547431E+02  0.00000000000E+00 0.  1.
      99926    2    1    2    0    0  0.00000000000E+00  0.00000000000E+00  0.13342318052E+04  0.14084789000E+04  0.45126300747E+03 0.  0.
      99925    2    3    3    0    0  0.12875353495E+02  0.59766968672E+02  0.55913221211E+03  0.62097350162E+03  0.26313759484E+03 0.  0.
         25    1    4    4    0    0  0.13935575781E+01  0.43860436841E+02  0.37300402554E+03  0.39586006504E+03  0.12509000000E+03 0.  0.
         25    1    3    3    0    0 -0.12875353495E+02 -0.59766968672E+02  0.77509959306E+03  0.78750539842E+03  0.12509000000E+03 0.  0.
         25    1    4    4    0    0  0.11481795916E+02  0.15906531831E+02  0.18612818657E+03  0.22511343658E+03  0.12509000000E+03 0.  0.
<mgrwt>
<rscale>  2 0.45126301E+03</rscale>
<asrwt>0</asrwt>
<pdfrwt beam="1">  1       21 0.20166987E+00 0.45126301E+03</pdfrwt>
<pdfrwt beam="2">  1       21 0.54593461E-02 0.45126301E+03</pdfrwt>
<totfact> 0.26879068E+04</totfact>
</mgrwt>
</event>
<event>
 7    0  0.4707675E-002  0.4719542E+03  0.7546771E-02  0.1021370E+00
         21   -1    0    0  502  501  0.00000000000E+00  0.00000000000E+00  0.52002560801E+03  0.52002560801E+03  0.00000000000E+00 0. -1.
         21   -1    0    0  501  502 -0.00000000000E+00 -0.00000000000E+00 -0.10708162086E+03  0.10708162086E+03  0.00000000000E+00 0. -1.
      99926    2    1    2    0    0  0.00000000000E+00  0.14210854715E-13  0.41294398715E+03  0.62710722887E+03  0.47195417149E+03 0.  0.
      99925    2    3    3    0    0 -0.36132333704E+02 -0.11032903400E+03  0.18365853026E+03  0.34127971074E+03  0.26317929999E+03 0.  0.
         25    1    4    4    0    0 -0.18802436559E+02 -0.24569572789E+02  0.11933627096E+03  0.17562986419E+03  0.12509000000E+03 0.  0.
         25    1    4    4    0    0 -0.17329897144E+02 -0.85759461209E+02  0.64322259297E+02  0.16564984655E+03  0.12509000000E+03 0.  0.
         25    1    3    3    0    0  0.36132333704E+02  0.11032903400E+03  0.22928545689E+03  0.28582751813E+03  0.12509000000E+03 0.  0.
<mgrwt>
<rscale>  2 0.47195417E+03</rscale>
<asrwt>0</asrwt>
<pdfrwt beam="1">  1       21 0.76474353E-01 0.47195417E+03</pdfrwt>
<pdfrwt beam="2">  1       21 0.15747297E-01 0.47195417E+03</pdfrwt>
<totfact> 0.50002613E+04</totfact>
</mgrwt>
</event>
<event>
 7    0  0.4707675E-002  0.4549571E+03  0.7546771E-02  0.1026254E+00
         21   -1    0    0  502  501  0.00000000000E+00  0.00000000000E+00  0.52835847182E+02  0.52835847182E+02  0.00000000000E+00 0.  1.
         21   -1    0    0  501  502 -0.00000000000E+00 -0.00000000000E+00 -0.97938203756E+03  0.97938203756E+03  0.00000000000E+00 0.  1.
      99926    2    1    2    0    0  0.00000000000E+00  0.00000000000E+00 -0.92654619038E+03  0.10322178847E+04  0.45495705147E+03 0.  0.
      99925    2    3    3    0    0  0.36980107028E+02 -0.33540869315E+02 -0.81291785649E+03  0.85600374061E+03  0.26346621094E+03 0.  0.
         25    1    4    4    0    0  0.17664507249E+02 -0.14969738807E+02 -0.27372442358E+03  0.30184217078E+03  0.12509000000E+03 0.  0.
         25    1    4    4    0    0  0.19315599779E+02 -0.18571130508E+02 -0.53919343291E+03  0.55416156983E+03  0.12509000000E+03 0.  0.
         25    1    3    3    0    0 -0.36980107028E+02  0.33540869315E+02 -0.11362833389E+03  0.17621414413E+03  0.12509000000E+03 0.  0.
<mgrwt>
<rscale>  2 0.45495705E+03</rscale>
<asrwt>0</asrwt>
<pdfrwt beam="1">  1       21 0.77699776E-02 0.45495705E+03</pdfrwt>
<pdfrwt beam="2">  1       21 0.14402677E+00 0.45495705E+03</pdfrwt>
<totfact> 0.37949440E+04</totfact>
</mgrwt>
</event>
<event>
 7    0  0.4707675E-002  0.4807903E+03  0.7546771E-02  0.1018918E+00
         21   -1    0    0  502  501  0.00000000000E+00  0.00000000000E+00  0.53873971270E+02  0.53873971270E+02  0.00000000000E+00 0. -1.
         21   -1    0    0  501  502 -0.00000000000E+00 -0.00000000000E+00 -0.10726854086E+04  0.10726854086E+04  0.00000000000E+00 0. -1.
      99926    2    1    2    0    0  0.00000000000E+00  0.00000000000E+00 -0.10188114374E+04  0.11265593799E+04  0.48079027813E+03 0.  0.
      99925    2    3    3    0    0  0.41363803221E+02 -0.60855734832E+02 -0.89481261506E+03  0.93567302442E+03  0.26340085018E+03 0.  0.
         25    1    4    4    0    0 -0.20555263644E+02 -0.27450241026E+02 -0.40438178035E+03  0.42467418920E+03  0.12509000000E+03 0.  0.
         25    1    3    3    0    0 -0.41363803221E+02  0.60855734832E+02 -0.12399882231E+03  0.19088635550E+03  0.12509000000E+03 0.  0.
         25    1    4    4    0    0  0.61919066865E+02 -0.33405493807E+02 -0.49043083471E+03  0.51099883521E+03  0.12509000000E+03 0.  0.
<mgrwt>
<rscale>  2 0.48079028E+03</rscale>
<asrwt>0</asrwt>
<pdfrwt beam="1">  1       21 0.79226428E-02 0.48079028E+03</pdfrwt>
<pdfrwt beam="2">  1       21 0.15774785E+00 0.48079028E+03</pdfrwt>
<totfact> 0.28416779E+04</totfact>
</mgrwt>
</event>
<event>
 7    0  0.4707675E-002  0.4533018E+03  0.7546771E-02  0.1026742E+00
         21   -1    0    0  502  501  0.00000000000E+00  0.00000000000E+00  0.45987654360E+02  0.45987654360E+02  0.00000000000E+00 0.  1.
         21   -1    0    0  501  502 -0.00000000000E+00 -0.00000000000E+00 -0.11170525272E+04  0.11170525272E+04  0.00000000000E+00 0.  1.
      99926    2    1    2    0    0  0.00000000000E+00 -0.35527136788E-14 -0.10710648728E+04  0.11630401816E+04  0.45330177817E+03 0.  0.
      99925    2    3    3    0    0  0.37928671918E+01  0.28730971357E+02 -0.39872198733E+03  0.47854597534E+03  0.26303454673E+03 0.  0.
         25    1    4    4    0    0 -0.95992294400E+01 -0.50012437903E+00 -0.13149588739E+03  0.18174452352E+03  0.12509000000E+03 0.  0.
         25    1    3    3    0    0 -0.37928671918E+01 -0.28730971357E+02 -0.67234288551E+03  0.68449420623E+03  0.12509000000E+03 0.  0.
         25    1    4    4    0    0  0.13392096632E+02  0.29231095736E+02 -0.26722609994E+03  0.29680145182E+03  0.12509000000E+03 0.  0.
<mgrwt>
<rscale>  2 0.45330178E+03</rscale>
<asrwt>0</asrwt>
<pdfrwt beam="1">  1       21 0.67628899E-02 0.45330178E+03</pdfrwt>
<pdfrwt beam="2">  1       21 0.16427244E+00 0.45330178E+03</pdfrwt>
<totfact> 0.33794973E+04</totfact>
</mgrwt>
</event>
<event>
 7    0  0.4707675E-002  0.4723575E+03  0.7546771E-02  0.1021257E+00
         21   -1    0    0  502  501  0.00000000000E+00  0.00000000000E+00  0.37062754318E+02  0.37062754318E+02  0.00000000000E+00 0. -1.
         21   -1    0    0  501  502 -0.00000000000E+00 -0.00000000000E+00 -0.15050255631E+04  0.15050255631E+04  0.00000000000E+00 0. -1.
      99926    2    1    2    0    0 -0.17763568394E-14  0.00000000000E+00 -0.14679628088E+04  0.15420883174E+04  0.47235746077E+03 0.  0.
      99925    2    3    3    0    0  0.14848049083E+02 -0.25731980665E+02 -0.13191189679E+04  0.13454043159E+04  0.26297399551E+03 0.  0.
         25    1    3    3    0    0 -0.14848049083E+02  0.25731980665E+02 -0.14884384085E+03  0.19668400151E+03  0.12509000000E+03 0.  0.
         25    1    4    4    0    0  0.45784960559E+02 -0.31496665595E-01 -0.65176617787E+03  0.66523899639E+03  0.12509000000E+03 0.  0.
         25    1    4    4    0    0 -0.30936911475E+02 -0.25700484000E+02 -0.66735279007E+03  0.68016531953E+03  0.12509000000E+03 0.  0.
<mgrwt>
<rscale>  2 0.47235746E+03</rscale>
<asrwt>0</asrwt>
<pdfrwt beam="1">  1       21 0.54504066E-02 0.47235746E+03</pdfrwt>
<pdfrwt beam="2">  1       21 0.22132723E+00 0.47235746E+03</pdfrwt>
<totfact> 0.19939777E+04</totfact>
</mgrwt>
</event>
<event>
 7    0  0.4707675E-002  0.4549516E+03  0.7546771E-02  0.1026256E+00
         21   -1    0    0  502  501  0.00000000000E+00  0.00000000000E+00  0.20399635805E+03  0.20399635805E+03  0.00000000000E+00 0. -1.
         21   -1    0    0  501  502 -0.00000000000E+00 -0.00000000000E+00 -0.25365763633E+03  0.25365763633E+03  0.00000000000E+00 0. -1.
      99926    2    1    2    0    0  0.00000000000E+00  0.00000000000E+00 -0.49661278280E+02  0.45765399438E+03  0.45495157545E+03 0.  0.
      99925    2    3    3    0    0 -0.10448262949E+03 -0.21220969821E+02 -0.69382645542E+02  0.29211430170E+03  0.26296361788E+03 0.  0.
         25    1    3    3    0    0  0.10448262949E+03  0.21220969821E+02  0.19721367263E+02  0.16553969268E+03  0.12509000000E+03 0.  0.
         25    1    4    4    0    0 -0.86887459227E+02  0.12557262531E+02 -0.32301903874E+02  0.15619870840E+03  0.12509000000E+03 0.  0.
         25    1    4    4    0    0 -0.17595170265E+02 -0.33778232352E+02 -0.37080741669E+02  0.13591559329E+03  0.12509000000E+03 0.  0.
<mgrwt>
<rscale>  2 0.45495158E+03</rscale>
<asrwt>0</asrwt>
<pdfrwt beam="1">  1       21 0.29999465E-01 0.45495158E+03</pdfrwt>
<pdfrwt beam="2">  1       21 0.37302593E-01 0.45495158E+03</pdfrwt>
<totfact> 0.68378164E+04</totfact>
</mgrwt>
</event>
<event>
 7    0  0.4707675E-002  0.4545092E+03  0.7546771E-02  0.1026386E+00
         21   -1    0    0  502  501  0.00000000000E+00  0.00000000000E+00  0.11107706009E+03  0.11107706009E+03  0.00000000000E+00 0. -1.
         21   -1    0    0  501  502 -0.00000000000E+00 -0.00000000000E+00 -0.46494438170E+03  0.46494438170E+03  0.00000000000E+00 0. -1.
      99926    2    1    2    0    0 -0.71054273576E-14 -0.17763568394E-14 -0.35386732161E+03  0.57602144179E+03  0.45450920794E+03 0.  0.
      99925    2    3    3    0    0  0.54638508163E+02  0.14112316140E+02 -0.34633909093E+03  0.43858525152E+03  0.26310023356E+03 0.  0.
         25    1    4    4    0    0  0.50609637606E+02  0.23589019867E+02 -0.13220116502E+03  0.19037445577E+03  0.12509000000E+03 0.  0.
         25    1    3    3    0    0 -0.54638508163E+02 -0.14112316140E+02 -0.75282306749E+01  0.13743619028E+03  0.12509000000E+03 0.  0.
         25    1    4    4    0    0  0.40288705573E+01 -0.94767037265E+01 -0.21413792591E+03  0.24821079575E+03  0.12509000000E+03 0.  0.
<mgrwt>
<rscale>  2 0.45450921E+03</rscale>
<asrwt>0</asrwt>
<pdfrwt beam="1">  1       21 0.16334862E-01 0.45450921E+03</pdfrwt>
<pdfrwt beam="2">  1       21 0.68374174E-01 0.45450921E+03</pdfrwt>
<totfact> 0.60413121E+04</totfact>
</mgrwt>
</event>
<event>
 7    0  0.4707675E-002  0.4542674E+03  0.7546771E-02  0.1026457E+00
         21   -1    0    0  502  501  0.00000000000E+00  0.00000000000E+00  0.11230440532E+04  0.11230440532E+04  0.00000000000E+00 0. -1.
         21   -1    0    0  501  502 -0.00000000000E+00 -0.00000000000E+00 -0.45937387149E+02  0.45937387149E+02  0.00000000000E+00 0. -1.
      99926    2    1    2    0    0  0.00000000000E+00  0.00000000000E+00  0.10771066660E+04  0.11689814403E+04  0.45426736381E+03 0.  0.
      99925    2    3    3    0    0  0.64587440466E+02 -0.67433275628E+02  0.51653152996E+03  0.58707872045E+03  0.26294071276E+03 0.  0.
         25    1    4    4    0    0  0.22581714738E+01 -0.46223288921E+02  0.19971841473E+03  0.24015962412E+03  0.12509000000E+03 0.  0.
         25    1    4    4    0    0  0.62329268993E+02 -0.21209986707E+02  0.31681311523E+03  0.34691909632E+03  0.12509000000E+03 0.  0.
         25    1    3    3    0    0 -0.64587440466E+02  0.67433275628E+02  0.56057513605E+03  0.58190271986E+03  0.12509000000E+03 0.  0.
<mgrwt>
<rscale>  2 0.45426736E+03</rscale>
<asrwt>0</asrwt>
<pdfrwt beam="1">  1       21 0.16515352E+00 0.45426736E+03</pdfrwt>
<pdfrwt beam="2">  1       21 0.67554988E-02 0.45426736E+03</pdfrwt>
<totfact> 0.33344859E+04</totfact>
</mgrwt>
</event>
<event>
 7    0  0.4707675E-002  0.4571196E+03  0.7546771E-02  0.1025620E+00
         21   -1    0    0  502  501  0.00000000000E+00  0.00000000000E+00  0.11048983538E+03  0.11048983538E+03  0.00000000000E+00 0.  1.
         21   -1    0    0  501  502 -0.00000000000E+00 -0.00000000000E+00 -0.47279998066E+03  0.47279998066E+03  0.00000000000E+00 0.  1.
      99926    2    1    2    0    0  0.14210854715E-13  0.00000000000E+00 -0.36231014528E+03  0.58328981604E+03  0.45711964312E+03 0.  0.
      99925    2    3    3    0    0  0.11144569706E+03  0.98611757355E+01 -0.26142830883E+03  0.38747858244E+03  0.26320620245E+03 0.  0.
         25    1    4    4    0    0  0.19823667282E+02 -0.18771273393E+02 -0.10855132961E+03  0.16785779025E+03  0.12509000000E+03 0.  0.
         25    1    4    4    0    0  0.91622029775E+02  0.28632449129E+02 -0.15287697922E+03  0.21962079218E+03  0.12509000000E+03 0.  0.
         25    1    3    3    0    0 -0.11144569706E+03 -0.98611757355E+01 -0.10088183645E+03  0.19581123360E+03  0.12509000000E+03 0.  0.
<mgrwt>
<rscale>  2 0.45711964E+03</rscale>
<asrwt>0</asrwt>
<pdfrwt beam="1">  1       21 0.16248505E-01 0.45711964E+03</pdfrwt>
<pdfrwt beam="2">  1       21 0.69529408E-01 0.45711964E+03</pdfrwt>
<totfact> 0.58728541E+04</totfact>
</mgrwt>
</event>
<event>
 7    0  0.4707675E-002  0.4561219E+03  0.7546771E-02  0.1025912E+00
         21   -1    0    0  502  501  0.00000000000E+00  0.00000000000E+00  0.93934494963E+03  0.93934494963E+03  0.00000000000E+00 0.  1.
         21   -1    0    0  501  502 -0.00000000000E+00 -0.00000000000E+00 -0.55370277798E+02  0.55370277798E+02  0.00000000000E+00 0.  1.
      99926    2    1    2    0    0  0.00000000000E+00  0.00000000000E+00  0.88397467183E+03  0.99471522743E+03  0.45612187323E+03 0.  0.
      99925    2    3    3    0    0  0.82158977370E+02  0.23256924324E+02  0.39044033006E+03  0.47846467131E+03  0.26304715976E+03 0.  0.
         25    1    4    4    0    0  0.58891444999E+02  0.42157156633E+02  0.24355917465E+03  0.28322077573E+03  0.12509000000E+03 0.  0.
         25    1    4    4    0    0  0.23267532371E+02 -0.18900232310E+02  0.14688115542E+03  0.19524389558E+03  0.12509000000E+03 0.  0.
         25    1    3    3    0    0 -0.82158977370E+02 -0.23256924324E+02  0.49353434177E+03  0.51625055612E+03  0.12509000000E+03 0.  0.
<mgrwt>
<rscale>  2 0.45612187E+03</rscale>
<asrwt>0</asrwt>
<pdfrwt beam="1">  1       21 0.13813895E+00 0.45612187E+03</pdfrwt>
<pdfrwt beam="2">  1       21 0.81426885E-02 0.45612187E+03</pdfrwt>
<totfact> 0.39029857E+04</totfact>
</mgrwt>
</event>
<event>
 7    0  0.4707675E-002  0.4545453E+03  0.7546771E-02  0.1026375E+00
         21   -1    0    0  502  501  0.00000000000E+00  0.00000000000E+00  0.43613938454E+03  0.43613938454E+03  0.00000000000E+00 0. -1.
         21   -1    0    0  501  502 -0.00000000000E+00 -0.00000000000E+00 -0.11843197542E+03  0.11843197542E+03  0.00000000000E+00 0. -1.
      99926    2    1    2    0    0  0.00000000000E+00  0.00000000000E+00  0.31770740912E+03  0.55457135997E+03  0.45454526231E+03 0.  0.
      99925    2    3    3    0    0  0.39587793913E+02  0.81645551129E+02  0.28163208194E+03  0.39588258665E+03  0.26300799111E+03 0.  0.
         25    1    4    4    0    0  0.54815647416E+02  0.56791481518E+02  0.12775897125E+03  0.19544792250E+03  0.12509000000E+03 0.  0.
         25    1    3    3    0    0 -0.39587793913E+02 -0.81645551129E+02  0.36075327181E+02  0.15868877332E+03  0.12509000000E+03 0.  0.
         25    1    4    4    0    0 -0.15227853502E+02  0.24854069611E+02  0.15387311069E+03  0.20043466415E+03  0.12509000000E+03 0.  0.
<mgrwt>
<rscale>  2 0.45454526E+03</rscale>
<asrwt>0</asrwt>
<pdfrwt beam="1">  1       21 0.64138144E-01 0.45454526E+03</pdfrwt>
<pdfrwt beam="2">  1       21 0.17416467E-01 0.45454526E+03</pdfrwt>
<totfact> 0.61787415E+04</totfact>
</mgrwt>
</event>
<event>
 7    0  0.4707675E-002  0.4501826E+03  0.7546771E-02  0.1027668E+00
         21   -1    0    0  502  501  0.00000000000E+00  0.00000000000E+00  0.59751432123E+03  0.59751432123E+03  0.00000000000E+00 0. -1.
         21   -1    0    0  501  502 -0.00000000000E+00 -0.00000000000E+00 -0.84794760753E+02  0.84794760753E+02  0.00000000000E+00 0. -1.
      99926    2    1    2    0    0  0.00000000000E+00  0.00000000000E+00  0.51271956047E+03  0.68230908198E+03  0.45018255815E+03 0.  0.
      99925    2    3    3    0    0  0.10359041264E+02 -0.38752368383E+02  0.47737170113E+03  0.54627219341E+03  0.26252716520E+03 0.  0.
         25    1    3    3    0    0 -0.10359041264E+02  0.38752368383E+02  0.35347859347E+02  0.13603688857E+03  0.12509000000E+03 0.  0.
         25    1    4    4    0    0  0.10057458470E+02  0.99293529168E+01  0.17627393515E+03  0.21660967854E+03  0.12509000000E+03 0.  0.
         25    1    4    4    0    0  0.30158279384E+00 -0.48681721300E+02  0.30109776597E+03  0.32966251487E+03  0.12509000000E+03 0.  0.
<mgrwt>
<rscale>  2 0.45018256E+03</rscale>
<asrwt>0</asrwt>
<pdfrwt beam="1">  1       21 0.87869751E-01 0.45018256E+03</pdfrwt>
<pdfrwt beam="2">  1       21 0.12469818E-01 0.45018256E+03</pdfrwt>
<totfact> 0.55967184E+04</totfact>
</mgrwt>
</event>
<event>
 7    0  0.4707675E-002  0.4522426E+03  0.7546771E-02  0.1027055E+00
         21   -1    0    0  502  501  0.00000000000E+00  0.00000000000E+00  0.15584317285E+03  0.15584317285E+03  0.00000000000E+00 0. -1.
         21   -1    0    0  501  502 -0.00000000000E+00 -0.00000000000E+00 -0.32809164586E+03  0.32809164586E+03  0.00000000000E+00 0. -1.
      99926    2    1    2    0    0  0.00000000000E+00  0.00000000000E+00 -0.17224847301E+03  0.48393481872E+03  0.45224260338E+03 0.  0.
      99925    2    3    3    0    0 -0.64766873411E+02 -0.81202561024E+02 -0.68130196002E+02  0.29086299914E+03  0.26300372023E+03 0.  0.
         25    1    4    4    0    0 -0.35517268004E+02 -0.18820181439E+02  0.27771359760E+01  0.13141878153E+03  0.12509000000E+03 0.  0.
         25    1    4    4    0    0 -0.29249605407E+02 -0.62382379585E+02 -0.70907331978E+02  0.15944421760E+03  0.12509000000E+03 0.  0.
         25    1    3    3    0    0  0.64766873411E+02  0.81202561024E+02 -0.10411827701E+03  0.19307181958E+03  0.12509000000E+03 0.  0.
<mgrwt>
<rscale>  2 0.45224260E+03</rscale>
<asrwt>0</asrwt>
<pdfrwt beam="1">  1       21 0.22918114E-01 0.45224260E+03</pdfrwt>
<pdfrwt beam="2">  1       21 0.48248772E-01 0.45224260E+03</pdfrwt>
<totfact> 0.67888689E+04</totfact>
</mgrwt>
</event>
<event>
 7    0  0.4707675E-002  0.4620324E+03  0.7546771E-02  0.1024193E+00
         21   -1    0    0  502  501  0.00000000000E+00  0.00000000000E+00  0.11300004021E+03  0.11300004021E+03  0.00000000000E+00 0. -1.
         21   -1    0    0  501  502 -0.00000000000E+00 -0.00000000000E+00 -0.47228730299E+03  0.47228730299E+03  0.00000000000E+00 0. -1.
      99926    2    1    2    0    0 -0.35527136788E-14  0.00000000000E+00 -0.35928726279E+03  0.58528734320E+03  0.46203239811E+03 0.  0.
      99925    2    3    3    0    0 -0.28897757394E+02  0.12606970156E+02 -0.37092707654E+03  0.45576124759E+03  0.26293992206E+03 0.  0.
         25    1    4    4    0    0 -0.55127737720E+02  0.73077431041E+01 -0.19362931665E+03  0.23713348760E+03  0.12509000000E+03 0.  0.
         25    1    3    3    0    0  0.28897757394E+02 -0.12606970156E+02  0.11639813757E+02  0.12952609561E+03  0.12509000000E+03 0.  0.
         25    1    4    4    0    0  0.26229980326E+02  0.52992270519E+01 -0.17729775990E+03  0.21862775999E+03  0.12509000000E+03 0.  0.
<mgrwt>
<rscale>  2 0.46203240E+03</rscale>
<asrwt>0</asrwt>
<pdfrwt beam="1">  1       21 0.16617653E-01 0.46203240E+03</pdfrwt>
<pdfrwt beam="2">  1       21 0.69454015E-01 0.46203240E+03</pdfrwt>
<totfact> 0.56392320E+04</totfact>
</mgrwt>
</event>
<event>
 7    0  0.4707675E-002  0.4589305E+03  0.7546771E-02  0.1025092E+00
         21   -1    0    0  502  501  0.00000000000E+00  0.00000000000E+00  0.65281153996E+02  0.65281153996E+02  0.00000000000E+00 0.  1.
         21   -1    0    0  501  502 -0.00000000000E+00 -0.00000000000E+00 -0.80657723567E+03  0.80657723567E+03  0.00000000000E+00 0.  1.
      99926    2    1    2    0    0  0.00000000000E+00 -0.17763568394E-14 -0.74129608168E+03  0.87185838967E+03  0.45893046415E+03 0.  0.
      99925    2    3    3    0    0 -0.10215778910E+03 -0.11067946083E+02 -0.57035382164E+03  0.63642798027E+03  0.26301783002E+03 0.  0.
         25    1    4    4    0    0 -0.40866912110E+02 -0.36828246593E+02 -0.22640378430E+03  0.26444773756E+03  0.12509000000E+03 0.  0.
         25    1    4    4    0    0 -0.61290876987E+02  0.25760300510E+02 -0.34395003734E+03  0.37198024271E+03  0.12509000000E+03 0.  0.
         25    1    3    3    0    0  0.10215778910E+03  0.11067946083E+02 -0.17094226004E+03  0.23543040940E+03  0.12509000000E+03 0.  0.
<mgrwt>
<rscale>  2 0.45893046E+03</rscale>
<asrwt>0</asrwt>
<pdfrwt beam="1">  1       21 0.96001711E-02 0.45893046E+03</pdfrwt>
<pdfrwt beam="2">  1       21 0.11861428E+00 0.45893046E+03</pdfrwt>
<totfact> 0.43129563E+04</totfact>
</mgrwt>
</event>
<event>
 7    0  0.4707675E-002  0.4456093E+03  0.7546771E-02  0.1029040E+00
         21   -1    0    0  502  501  0.00000000000E+00  0.00000000000E+00  0.82087070984E+03  0.82087070984E+03  0.00000000000E+00 0. -1.
         21   -1    0    0  501  502 -0.00000000000E+00 -0.00000000000E+00 -0.60474693393E+02  0.60474693393E+02  0.00000000000E+00 0. -1.
      99926    2    1    2    0    0  0.00000000000E+00 -0.35527136788E-14  0.76039601644E+03  0.88134540323E+03  0.44560926603E+03 0.  0.
      99925    2    3    3    0    0  0.85397972185E+02  0.28225353847E+02  0.58636683328E+03  0.64891659920E+03  0.26301559894E+03 0.  0.
         25    1    4    4    0    0  0.36692424026E+02 -0.25992021229E+02  0.29496676283E+03  0.32353487977E+03  0.12509000000E+03 0.  0.
         25    1    3    3    0    0 -0.85397972185E+02 -0.28225353847E+02  0.17402918316E+03  0.23242880403E+03  0.12509000000E+03 0.  0.
         25    1    4    4    0    0  0.48705548160E+02  0.54217375076E+02  0.29140007045E+03  0.32538171943E+03  0.12509000000E+03 0.  0.
<mgrwt>
<rscale>  2 0.44560927E+03</rscale>
<asrwt>0</asrwt>
<pdfrwt beam="1">  1       21 0.12071627E+00 0.44560927E+03</pdfrwt>
<pdfrwt beam="2">  1       21 0.88933378E-02 0.44560927E+03</pdfrwt>
<totfact> 0.47444289E+04</totfact>
</mgrwt>
</event>
<event>
 7    0  0.4707675E-002  0.4590904E+03  0.7546771E-02  0.1025045E+00
         21   -1    0    0  502  501  0.00000000000E+00  0.00000000000E+00  0.69967247460E+02  0.69967247460E+02  0.00000000000E+00 0. -1.
         21   -1    0    0  501  502 -0.00000000000E+00 -0.00000000000E+00 -0.75308085294E+03  0.75308085294E+03  0.00000000000E+00 0. -1.
      99926    2    1    2    0    0  0.00000000000E+00 -0.71054273576E-14 -0.68311360548E+03  0.82304810040E+03  0.45909038062E+03 0.  0.
      99925    2    3    3    0    0  0.56783519393E+02 -0.41589262680E+02 -0.59586146152E+03  0.65507643740E+03  0.26290725108E+03 0.  0.
         25    1    4    4    0    0  0.45289327670E+02 -0.30717643613E+02 -0.39487776303E+03  0.41781652991E+03  0.12509000000E+03 0.  0.
         25    1    4    4    0    0  0.11494191722E+02 -0.10871619067E+02 -0.20098369849E+03  0.23725990749E+03  0.12509000000E+03 0.  0.
         25    1    3    3    0    0 -0.56783519393E+02  0.41589262680E+02 -0.87252143958E+02  0.16797166300E+03  0.12509000000E+03 0.  0.
<mgrwt>
<rscale>  2 0.45909038E+03</rscale>
<asrwt>0</asrwt>
<pdfrwt beam="1">  1       21 0.10289302E-01 0.45909038E+03</pdfrwt>
<pdfrwt beam="2">  1       21 0.11074718E+00 0.45909038E+03</pdfrwt>
<totfact> 0.45201812E+04</totfact>
</mgrwt>
</event>
<event>
 7    0  0.4707675E-002  0.4463254E+03  0.7546771E-02  0.1028824E+00
         21   -1    0    0  502  501  0.00000000000E+00  0.00000000000E+00  0.88881020333E+03  0.88881020333E+03  0.00000000000E+00 0.  1.
         21   -1    0    0  501  502 -0.00000000000E+00 -0.00000000000E+00 -0.56031738083E+02  0.56031738083E+02  0.00000000000E+00 0.  1.
      99926    2    1    2    0    0  0.00000000000E+00  0.00000000000E+00  0.83277846524E+03  0.94484194141E+03  0.44632535450E+03 0.  0.
      99925    2    3    3    0    0  0.27918179697E+02  0.96914932269E+02  0.45961923945E+03  0.53855725705E+03  0.26195828864E+03 0.  0.
         25    1    4    4    0    0  0.28763272717E+02  0.58734203415E+02  0.17133397514E+03  0.22199070171E+03  0.12509000000E+03 0.  0.
         25    1    3    3    0    0 -0.27918179697E+02 -0.96914932269E+02  0.37315922579E+03  0.40628468436E+03  0.12509000000E+03 0.  0.
         25    1    4    4    0    0 -0.84509301982E+00  0.38180728854E+02  0.28828526432E+03  0.31656655534E+03  0.12509000000E+03 0.  0.
<mgrwt>
<rscale>  2 0.44632535E+03</rscale>
<asrwt>0</asrwt>
<pdfrwt beam="1">  1       21 0.13070737E+00 0.44632535E+03</pdfrwt>
<pdfrwt beam="2">  1       21 0.82399620E-02 0.44632535E+03</pdfrwt>
<totfact> 0.44278648E+04</totfact>
</mgrwt>
</event>
<event>
 7    0  0.4707675E-002  0.4558976E+03  0.7546771E-02  0.1025978E+00
         21   -1    0    0  502  501  0.00000000000E+00  0.00000000000E+00  0.11320267004E+03  0.11320267004E+03  0.00000000000E+00 0.  1.
         21   -1    0    0  501  502 -0.00000000000E+00 -0.00000000000E+00 -0.45900562214E+03  0.45900562214E+03  0.00000000000E+00 0.  1.
      99926    2    1    2    0    0  0.00000000000E+00  0.00000000000E+00 -0.34580295210E+03  0.57220829218E+03  0.45589762882E+03 0.  0.
      99925    2    3    3    0    0  0.17656437583E+02  0.92227099866E+02 -0.13640530552E+03  0.31084174836E+03  0.26305626282E+03 0.  0.
         25    1    4    4    0    0  0.15703883625E+02  0.85936041575E+02 -0.90713974983E+02  0.17750534798E+03  0.12509000000E+03 0.  0.
         25    1    3    3    0    0 -0.17656437583E+02 -0.92227099866E+02 -0.20939764658E+03  0.26136654382E+03  0.12509000000E+03 0.  0.
         25    1    4    4    0    0  0.19525539580E+01  0.62910582909E+01 -0.45691330541E+02  0.13333640039E+03  0.12509000000E+03 0.  0.
<mgrwt>
<rscale>  2 0.45589763E+03</rscale>
<asrwt>0</asrwt>
<pdfrwt beam="1">  1       21 0.16647452E-01 0.45589763E+03</pdfrwt>
<pdfrwt beam="2">  1       21 0.67500825E-01 0.45589763E+03</pdfrwt>
<totfact> 0.59995408E+04</totfact>
</mgrwt>
</event>
<event>
 7    0  0.4707675E-002  0.4531057E+03  0.7546771E-02  0.1026800E+00
         21   -1    0    0  502  501  0.00000000000E+00  0.00000000000E+00  0.85033427518E+03  0.85033427518E+03  0.00000000000E+00 0.  1.
         21   -1    0    0  501  502 -0.00000000000E+00 -0.00000000000E+00 -0.60360016893E+02  0.60360016893E+02  0.00000000000E+00 0.  1.
      99926    2    1    2    0    0 -0.14210854715E-13  0.71054273576E-14  0.78997425828E+03  0.91069429207E+03  0.45310568840E+03 0.  0.
      99925    2    3    3    0    0  0.10197539625E+03 -0.34722543266E+02  0.44224089660E+03  0.52576490195E+03  0.26314840878E+03 0.  0.
         25    1    4    4    0    0  0.27581732004E+02  0.14106755750E+02  0.17137385903E+03  0.21442075496E+03  0.12509000000E+03 0.  0.
         25    1    3    3    0    0 -0.10197539625E+03  0.34722543266E+02  0.34773336168E+03  0.38492939012E+03  0.12509000000E+03 0.  0.
         25    1    4    4    0    0  0.74393664250E+02 -0.48829299016E+02  0.27086703757E+03  0.31134414699E+03  0.12509000000E+03 0.  0.
<mgrwt>
<rscale>  2 0.45310569E+03</rscale>
<asrwt>0</asrwt>
<pdfrwt beam="1">  1       21 0.12504915E+00 0.45310569E+03</pdfrwt>
<pdfrwt beam="2">  1       21 0.88764736E-02 0.45310569E+03</pdfrwt>
<totfact> 0.43414698E+04</totfact>
</mgrwt>
</event>
<event>
 7    0  0.4707675E-002  0.4540517E+03  0.7546771E-02  0.1026521E+00
         21   -1    0    0  502  501  0.00000000000E+00  0.00000000000E+00  0.33663452971E+03  0.33663452971E+03  0.00000000000E+00 0. -1.
         21   -1    0    0  501  502 -0.00000000000E+00 -0.00000000000E+00 -0.15310591041E+03  0.15310591041E+03  0.00000000000E+00 0. -1.
      99926    2    1    2    0    0  0.00000000000E+00  0.00000000000E+00  0.18352861930E+03  0.48974044011E+03  0.45405169814E+03 0.  0.
      99925    2    3    3    0    0  0.65102223835E+02 -0.66974791893E+02  0.49071610529E+02  0.28370617693E+03  0.26335764575E+03 0.  0.
         25    1    3    3    0    0 -0.65102223835E+02  0.66974791893E+02  0.13445700877E+03  0.20603426318E+03  0.12509000000E+03 0.  0.
         25    1    4    4    0    0  0.36103173195E+02 -0.75534082013E+02  0.32029807182E+02  0.15389039381E+03  0.12509000000E+03 0.  0.
         25    1    4    4    0    0  0.28999050641E+02  0.85592901198E+01  0.17041803347E+02  0.12981578312E+03  0.12509000000E+03 0.  0.
<mgrwt>
<rscale>  2 0.45405170E+03</rscale>
<asrwt>0</asrwt>
<pdfrwt beam="1">  1       21 0.49505078E-01 0.45405170E+03</pdfrwt>
<pdfrwt beam="2">  1       21 0.22515575E-01 0.45405170E+03</pdfrwt>
<totfact> 0.66496807E+04</totfact>
</mgrwt>
</event>
<event>
 7    0  0.4707675E-002  0.4532077E+03  0.7546771E-02  0.1026770E+00
         21   -1    0    0  502  501  0.00000000000E+00  0.00000000000E+00  0.20218907618E+03  0.20218907618E+03  0.00000000000E+00 0.  1.
         21   -1    0    0  501  502 -0.00000000000E+00 -0.00000000000E+00 -0.25396673152E+03  0.25396673152E+03  0.00000000000E+00 0.  1.
      99926    2    1    2    0    0 -0.35527136788E-14  0.00000000000E+00 -0.51777655340E+02  0.45615580771E+03  0.45320767349E+03 0.  0.
      99925    2    3    3    0    0  0.30218166917E+02  0.10358251741E+03 -0.60853732088E+02  0.29070986852E+03  0.26299539049E+03 0.  0.
         25    1    4    4    0    0  0.38459204877E+02  0.19389480872E+02 -0.40355930198E+02  0.13831547856E+03  0.12509000000E+03 0.  0.
         25    1    4    4    0    0 -0.82410379602E+01  0.84193036535E+02 -0.20497801890E+02  0.15239438996E+03  0.12509000000E+03 0.  0.
         25    1    3    3    0    0 -0.30218166917E+02 -0.10358251741E+03  0.90760767484E+01  0.16544593919E+03  0.12509000000E+03 0.  0.
<mgrwt>
<rscale>  2 0.45320767E+03</rscale>
<asrwt>0</asrwt>
<pdfrwt beam="1">  1       21 0.29733688E-01 0.45320767E+03</pdfrwt>
<pdfrwt beam="2">  1       21 0.37348048E-01 0.45320767E+03</pdfrwt>
<totfact> 0.69448940E+04</totfact>
</mgrwt>
</event>
<event>
 7    0  0.4707675E-002  0.4368436E+03  0.7546771E-02  0.1031720E+00
         21   -1    0    0  502  501  0.00000000000E+00  0.00000000000E+00  0.19281303621E+03  0.19281303621E+03  0.00000000000E+00 0. -1.
         21   -1    0    0  501  502 -0.00000000000E+00 -0.00000000000E+00 -0.24743178403E+03  0.24743178403E+03  0.00000000000E+00 0. -1.
      99926    2    1    2    0    0 -0.71054273576E-14 -0.71054273576E-14 -0.54618747816E+02  0.44024482024E+03  0.43684355796E+03 0.  0.
      99925    2    3    3    0    0  0.58427363687E+02  0.43374140067E+02 -0.96562785031E+02  0.28957337898E+03  0.26312221021E+03 0.  0.
         25    1    4    4    0    0  0.49885242851E+02  0.40129181186E+02 -0.83532572189E+02  0.16347503587E+03  0.12509000000E+03 0.  0.
         25    1    3    3    0    0 -0.58427363687E+02 -0.43374140067E+02  0.41944037215E+02  0.15067144126E+03  0.12509000000E+03 0.  0.
         25    1    4    4    0    0  0.85421208356E+01  0.32449588817E+01 -0.13030212842E+02  0.12609834310E+03  0.12509000000E+03 0.  0.
<mgrwt>
<rscale>  2 0.43684356E+03</rscale>
<asrwt>0</asrwt>
<pdfrwt beam="1">  1       21 0.28354858E-01 0.43684356E+03</pdfrwt>
<pdfrwt beam="2">  1       21 0.36387027E-01 0.43684356E+03</pdfrwt>
<totfact> 0.80713912E+04</totfact>
</mgrwt>
</event>
<event>
 7    0  0.4707675E-002  0.4316937E+03  0.7546771E-02  0.1033326E+00
         21   -1    0    0  502  501  0.00000000000E+00  0.00000000000E+00  0.15267067449E+03  0.15267067449E+03  0.00000000000E+00 0.  1.
         21   -1    0    0  501  502 -0.00000000000E+00 -0.00000000000E+00 -0.30516581741E+03  0.30516581741E+03  0.00000000000E+00 0.  1.
      99926    2    1    2    0    0 -0.35527136788E-14  0.14210854715E-13 -0.15249514292E+03  0.45783649189E+03  0.43169373947E+03 0.  0.
      99925    2    3    3    0    0  0.27380243765E+02 -0.82216564530E+02 -0.73931113401E+02  0.28657921156E+03  0.26296880754E+03 0.  0.
         25    1    4    4    0    0  0.34937145450E+02 -0.61681472925E+02 -0.92785279135E+01  0.14407917065E+03  0.12509000000E+03 0.  0.
         25    1    3    3    0    0 -0.27380243765E+02  0.82216564530E+02 -0.78564029523E+02  0.17125728033E+03  0.12509000000E+03 0.  0.
         25    1    4    4    0    0 -0.75569016849E+01 -0.20535091605E+02 -0.64652585488E+02  0.14250004091E+03  0.12509000000E+03 0.  0.
<mgrwt>
<rscale>  2 0.43169374E+03</rscale>
<asrwt>0</asrwt>
<pdfrwt beam="1">  1       21 0.22451570E-01 0.43169374E+03</pdfrwt>
<pdfrwt beam="2">  1       21 0.44877325E-01 0.43169374E+03</pdfrwt>
<totfact> 0.82601963E+04</totfact>
</mgrwt>
</event>
<event>
 7    0  0.4707675E-002  0.4536775E+03  0.7546771E-02  0.1026631E+00
         21   -1    0    0  502  501  0.00000000000E+00  0.00000000000E+00  0.28994445543E+03  0.28994445543E+03  0.00000000000E+00 0. -1.
         21   -1    0    0  501  502 -0.00000000000E+00 -0.00000000000E+00 -0.17746783590E+03  0.17746783590E+03  0.00000000000E+00 0. -1.
      99926    2    1    2    0    0  0.71054273576E-14 -0.14210854715E-13  0.11247661953E+03  0.46741229133E+03  0.45367748473E+03 0.  0.
      99925    2    3    3    0    0  0.24438766123E+02 -0.84405667376E+02 -0.54819537166E+00  0.27729736067E+03  0.26300561923E+03 0.  0.
         25    1    4    4    0    0  0.31569690435E+02 -0.36546920877E+02 -0.35474380933E+02  0.13870206409E+03  0.12509000000E+03 0.  0.
         25    1    3    3    0    0 -0.24438766123E+02  0.84405667376E+02  0.11302481490E+03  0.19011493066E+03  0.12509000000E+03 0.  0.
         25    1    4    4    0    0 -0.71309243116E+01 -0.47858746499E+02  0.34926185562E+02  0.13859529659E+03  0.12509000000E+03 0.  0.
<mgrwt>
<rscale>  2 0.45367748E+03</rscale>
<asrwt>0</asrwt>
<pdfrwt beam="1">  1       21 0.42638891E-01 0.45367748E+03</pdfrwt>
<pdfrwt beam="2">  1       21 0.26098211E-01 0.45367748E+03</pdfrwt>
<totfact> 0.68342902E+04</totfact>
</mgrwt>
</event>
<event>
 7    0  0.4707675E-002  0.4588950E+03  0.7546771E-02  0.1025102E+00
         21   -1    0    0  502  501  0.00000000000E+00  0.00000000000E+00  0.21882689110E+03  0.21882689110E+03  0.00000000000E+00 0.  1.
         21   -1    0    0  501  502 -0.00000000000E+00 -0.00000000000E+00 -0.24058360861E+03  0.24058360861E+03  0.00000000000E+00 0.  1.
      99926    2    1    2    0    0  0.00000000000E+00  0.00000000000E+00 -0.21756717514E+02  0.45941049971E+03  0.45889503428E+03 0.  0.
      99925    2    3    3    0    0 -0.41295476565E+02  0.10744392183E+03  0.62349856440E+01  0.28713004153E+03  0.26297390171E+03 0.  0.
         25    1    4    4    0    0 -0.44662160624E+02  0.45158785754E+02 -0.28370255738E+02  0.14313072358E+03  0.12509000000E+03 0.  0.
         25    1    4    4    0    0  0.33666840586E+01  0.62285136080E+02  0.34605241382E+02  0.14399931795E+03  0.12509000000E+03 0.  0.
         25    1    3    3    0    0  0.41295476565E+02 -0.10744392183E+03 -0.27991703158E+02  0.17228045818E+03  0.12509000000E+03 0.  0.
<mgrwt>
<rscale>  2 0.45889503E+03</rscale>
<asrwt>0</asrwt>
<pdfrwt beam="1">  1       21 0.32180425E-01 0.45889503E+03</pdfrwt>
<pdfrwt beam="2">  1       21 0.35379942E-01 0.45889503E+03</pdfrwt>
<totfact> 0.66144254E+04</totfact>
</mgrwt>
</event>
<event>
 7    0  0.4707675E-002  0.4522366E+03  0.7546771E-02  0.1027057E+00
         21   -1    0    0  502  501  0.00000000000E+00  0.00000000000E+00  0.34315101490E+03  0.34315101490E+03  0.00000000000E+00 0. -1.
         21   -1    0    0  501  502 -0.00000000000E+00 -0.00000000000E+00 -0.14899992920E+03  0.14899992920E+03  0.00000000000E+00 0. -1.
      99926    2    1    2    0    0  0.00000000000E+00  0.71054273576E-14  0.19415108570E+03  0.49215094410E+03  0.45223656166E+03 0.  0.
      99925    2    3    3    0    0 -0.99497066177E+02  0.37562500487E+02  0.89807472382E+02  0.29761121716E+03  0.26305217517E+03 0.  0.
         25    1    3    3    0    0  0.99497066177E+02 -0.37562500487E+02  0.10434361331E+03  0.19453972695E+03  0.12509000000E+03 0.  0.
         25    1    4    4    0    0 -0.72934582475E+02 -0.58888949779E+01  0.22317512239E+02  0.14662780042E+03  0.12509000000E+03 0.  0.
         25    1    4    4    0    0 -0.26562483702E+02  0.43451395465E+02  0.67489960143E+02  0.15098341673E+03  0.12509000000E+03 0.  0.
<mgrwt>
<rscale>  2 0.45223656E+03</rscale>
<asrwt>0</asrwt>
<pdfrwt beam="1">  1       21 0.50463384E-01 0.45223656E+03</pdfrwt>
<pdfrwt beam="2">  1       21 0.21911754E-01 0.45223656E+03</pdfrwt>
<totfact> 0.67289792E+04</totfact>
</mgrwt>
</event>
<event>
 7    0  0.4707675E-002  0.4153139E+03  0.7546771E-02  0.1038602E+00
         21   -1    0    0  502  501  0.00000000000E+00  0.00000000000E+00  0.16675973023E+03  0.16675973023E+03  0.00000000000E+00 0. -1.
         21   -1    0    0  501  502 -0.00000000000E+00 -0.00000000000E+00 -0.25858407021E+03  0.25858407021E+03  0.00000000000E+00 0. -1.
      99926    2    1    2    0    0 -0.71054273576E-14  0.00000000000E+00 -0.91824339974E+02  0.42534380044E+03  0.41531390437E+03 0.  0.
      99925    2    3    3    0    0 -0.39292687483E+02  0.48121410546E+02 -0.28036266787E+02  0.27179898020E+03  0.26311417282E+03 0.  0.
         25    1    3    3    0    0  0.39292687483E+02 -0.48121410546E+02 -0.63788073187E+02  0.15354482024E+03  0.12509000000E+03 0.  0.
         25    1    4    4    0    0 -0.37530250518E+02 -0.31376702055E+01 -0.38518367278E+02  0.13619668644E+03  0.12509000000E+03 0.  0.
         25    1    4    4    0    0 -0.17624369649E+01  0.51259080751E+02  0.10482100491E+02  0.13560229376E+03  0.12509000000E+03 0.  0.
<mgrwt>
<rscale>  2 0.41531390E+03</rscale>
<asrwt>0</asrwt>
<pdfrwt beam="1">  1       21 0.24523490E-01 0.41531390E+03</pdfrwt>
<pdfrwt beam="2">  1       21 0.38027069E-01 0.41531390E+03</pdfrwt>
<totfact> 0.98419007E+04</totfact>
</mgrwt>
</event>
<event>
 7    0  0.4707675E-002  0.4594418E+03  0.7546771E-02  0.1024943E+00
         21   -1    0    0  502  501  0.00000000000E+00  0.00000000000E+00  0.25064371763E+03  0.25064371763E+03  0.00000000000E+00 0. -1.
         21   -1    0    0  501  502 -0.00000000000E+00 -0.00000000000E+00 -0.21054461651E+03  0.21054461651E+03  0.00000000000E+00 0. -1.
      99926    2    1    2    0    0 -0.14210854715E-13  0.00000000000E+00  0.40099101123E+02  0.46118833414E+03  0.45944177175E+03 0.  0.
      99925    2    3    3    0    0  0.11038566817E+03  0.16604217392E+02  0.61133371706E+02  0.29221897475E+03  0.26304741834E+03 0.  0.
         25    1    4    4    0    0  0.17867820414E+02 -0.14003823205E+02  0.29952247607E+02  0.13061397822E+03  0.12509000000E+03 0.  0.
         25    1    4    4    0    0  0.92517847755E+02  0.30608040597E+02  0.31181124099E+02  0.16160499653E+03  0.12509000000E+03 0.  0.
         25    1    3    3    0    0 -0.11038566817E+03 -0.16604217392E+02 -0.21034270583E+02  0.16896935939E+03  0.12509000000E+03 0.  0.
<mgrwt>
<rscale>  2 0.45944177E+03</rscale>
<asrwt>0</asrwt>
<pdfrwt beam="1">  1       21 0.36859370E-01 0.45944177E+03</pdfrwt>
<pdfrwt beam="2">  1       21 0.30962444E-01 0.45944177E+03</pdfrwt>
<totfact> 0.65734171E+04</totfact>
</mgrwt>
</event>
<event>
 7    0  0.4707675E-002  0.4547912E+03  0.7546771E-02  0.1026303E+00
         21   -1    0    0  502  501  0.00000000000E+00  0.00000000000E+00  0.93858086937E+02  0.93858086937E+02  0.00000000000E+00 0. -1.
         21   -1    0    0  501  502 -0.00000000000E+00 -0.00000000000E+00 -0.55092483276E+03  0.55092483276E+03  0.00000000000E+00 0. -1.
      99926    2    1    2    0    0  0.00000000000E+00  0.00000000000E+00 -0.45706674582E+03  0.64478291969E+03  0.45479116460E+03 0.  0.
      99925    2    3    3    0    0  0.28412880270E+02  0.89125231324E+02 -0.37764580846E+03  0.46955223741E+03  0.26289227524E+03 0.  0.
         25    1    4    4    0    0  0.13149465521E+01  0.48774343964E+01 -0.15436455921E+03  0.19874970111E+03  0.12509000000E+03 0.  0.
         25    1    4    4    0    0  0.27097933718E+02  0.84247796928E+02 -0.22328124925E+03  0.27080253629E+03  0.12509000000E+03 0.  0.
         25    1    3    3    0    0 -0.28412880270E+02 -0.89125231324E+02 -0.79420937360E+02  0.17523068229E+03  0.12509000000E+03 0.  0.
<mgrwt>
<rscale>  2 0.45479116E+03</rscale>
<asrwt>0</asrwt>
<pdfrwt beam="1">  1       21 0.13802660E-01 0.45479116E+03</pdfrwt>
<pdfrwt beam="2">  1       21 0.81018357E-01 0.45479116E+03</pdfrwt>
<totfact> 0.56095424E+04</totfact>
</mgrwt>
</event>
<event>
 7    0  0.4707675E-002  0.4536677E+03  0.7546771E-02  0.1026634E+00
         21   -1    0    0  502  501  0.00000000000E+00  0.00000000000E+00  0.28330053543E+03  0.28330053543E+03  0.00000000000E+00 0.  1.
         21   -1    0    0  501  502 -0.00000000000E+00 -0.00000000000E+00 -0.18162193561E+03  0.18162193561E+03  0.00000000000E+00 0.  1.
      99926    2    1    2    0    0  0.00000000000E+00  0.35527136788E-14  0.10167859982E+03  0.46492247104E+03  0.45366768280E+03 0.  0.
      99925    2    3    3    0    0  0.97305360668E+02 -0.23371999839E+02  0.11599473787E+03  0.30409012510E+03  0.26268125434E+03 0.  0.
         25    1    4    4    0    0  0.58980646562E+02 -0.22922685170E+02  0.19522227617E+02  0.14153724469E+03  0.12509000000E+03 0.  0.
         25    1    4    4    0    0  0.38324714106E+02 -0.44931466845E+00  0.96472510253E+02  0.16255288041E+03  0.12509000000E+03 0.  0.
         25    1    3    3    0    0 -0.97305360668E+02  0.23371999839E+02 -0.14316138049E+02  0.16083234594E+03  0.12509000000E+03 0.  0.
<mgrwt>
<rscale>  2 0.45366768E+03</rscale>
<asrwt>0</asrwt>
<pdfrwt beam="1">  1       21 0.41661844E-01 0.45366768E+03</pdfrwt>
<pdfrwt beam="2">  1       21 0.26709108E-01 0.45366768E+03</pdfrwt>
<totfact> 0.68537071E+04</totfact>
</mgrwt>
</event>
<event>
 7    0  0.4707675E-002  0.4603055E+03  0.7546771E-02  0.1024693E+00
         21   -1    0    0  502  501  0.00000000000E+00  0.00000000000E+00  0.30232633604E+02  0.30232633604E+02  0.00000000000E+00 0. -1.
         21   -1    0    0  501  502 -0.00000000000E+00 -0.00000000000E+00 -0.17520896302E+04  0.17520896302E+04  0.00000000000E+00 0. -1.
      99926    2    1    2    0    0  0.00000000000E+00  0.00000000000E+00 -0.17218569966E+04  0.17823222638E+04  0.46030548043E+03 0.  0.
      99925    2    3    3    0    0  0.62894524441E+02  0.99007018731E+02 -0.11368694003E+04  0.11727190265E+04  0.26275420245E+03 0.  0.
         25    1    4    4    0    0  0.54305720926E+02  0.16023780874E+02 -0.52878863406E+03  0.54632481226E+03  0.12509000000E+03 0.  0.
         25    1    4    4    0    0  0.85888035149E+01  0.82983237857E+02 -0.60808076620E+03  0.62639421424E+03  0.12509000000E+03 0.  0.
         25    1    3    3    0    0 -0.62894524441E+02 -0.99007018731E+02 -0.58498759630E+03  0.60960323726E+03  0.12509000000E+03 0.  0.
<mgrwt>
<rscale>  2 0.46030548E+03</rscale>
<asrwt>0</asrwt>
<pdfrwt beam="1">  1       21 0.44459754E-02 0.46030548E+03</pdfrwt>
<pdfrwt beam="2">  1       21 0.25766025E+00 0.46030548E+03</pdfrwt>
<totfact> 0.16894928E+04</totfact>
</mgrwt>
</event>
<event>
 7    0  0.4707675E-002  0.4472327E+03  0.7546771E-02  0.1028551E+00
         21   -1    0    0  502  501  0.00000000000E+00  0.00000000000E+00  0.34692210523E+02  0.34692210523E+02  0.00000000000E+00 0. -1.
         21   -1    0    0  501  502 -0.00000000000E+00 -0.00000000000E+00 -0.14413688806E+04  0.14413688806E+04  0.00000000000E+00 0. -1.
      99926    2    1    2    0    0  0.00000000000E+00  0.35527136788E-14 -0.14066766700E+04  0.14760610911E+04  0.44723270295E+03 0.  0.
      99925    2    3    3    0    0 -0.35838520101E+02  0.30561214482E+02 -0.12038867625E+04  0.12331832575E+04  0.26301943326E+03 0.  0.
         25    1    4    4    0    0  0.55222445676E+01 -0.66545255412E+01 -0.69401097466E+03  0.70524713324E+03  0.12509000000E+03 0.  0.
         25    1    3    3    0    0  0.35838520101E+02 -0.30561214482E+02 -0.20278990754E+03  0.24287783360E+03  0.12509000000E+03 0.  0.
         25    1    4    4    0    0 -0.41360764669E+02  0.37215740023E+02 -0.50987578784E+03  0.52793612425E+03  0.12509000000E+03 0.  0.
<mgrwt>
<rscale>  2 0.44723270E+03</rscale>
<asrwt>0</asrwt>
<pdfrwt beam="1">  1       21 0.51017948E-02 0.44723270E+03</pdfrwt>
<pdfrwt beam="2">  1       21 0.21196605E+00 0.44723270E+03</pdfrwt>
<totfact> 0.25899783E+04</totfact>
</mgrwt>
</event>
<event>
 7    0  0.4707675E-002  0.4549605E+03  0.7546771E-02  0.1026253E+00
         21   -1    0    0  502  501  0.00000000000E+00  0.00000000000E+00  0.14301027096E+04  0.14301027096E+04  0.00000000000E+00 0.  1.
         21   -1    0    0  501  502 -0.00000000000E+00 -0.00000000000E+00 -0.36184306043E+02  0.36184306043E+02  0.00000000000E+00 0.  1.
      99926    2    1    2    0    0  0.14210854715E-13 -0.71054273576E-14  0.13939184035E+04  0.14662870156E+04  0.45496054385E+03 0.  0.
      99925    2    3    3    0    0 -0.95884016234E+02  0.47709661785E+02  0.99524297935E+03  0.10349407993E+04  0.26291427060E+03 0.  0.
         25    1    4    4    0    0 -0.67995635160E+02 -0.97765724380E+01  0.46482240916E+03  0.48623694628E+03  0.12509000000E+03 0.  0.
         25    1    3    3    0    0  0.95884016234E+02 -0.47709661785E+02  0.39867542417E+03  0.43134621632E+03  0.12509000000E+03 0.  0.
         25    1    4    4    0    0 -0.27888381074E+02  0.57486234223E+02  0.53042057019E+03  0.54870385301E+03  0.12509000000E+03 0.  0.
<mgrwt>
<rscale>  2 0.45496054E+03</rscale>
<asrwt>0</asrwt>
<pdfrwt beam="1">  1       21 0.21030918E+00 0.45496054E+03</pdfrwt>
<pdfrwt beam="2">  1       21 0.53212224E-02 0.45496054E+03</pdfrwt>
<totfact> 0.24625122E+04</totfact>
</mgrwt>
</event>
<event>
 7    0  0.4707675E-002  0.4543294E+03  0.7546771E-02  0.1026439E+00
         21   -1    0    0  502  501  0.00000000000E+00  0.00000000000E+00  0.70534916866E+03  0.70534916866E+03  0.00000000000E+00 0.  1.
         21   -1    0    0  501  502 -0.00000000000E+00 -0.00000000000E+00 -0.73160660214E+02  0.73160660214E+02  0.00000000000E+00 0.  1.
      99926    2    1    2    0    0  0.00000000000E+00  0.00000000000E+00  0.63218850845E+03  0.77850982888E+03  0.45432944373E+03 0.  0.
      99925    2    3    3    0    0  0.54438125672E+02 -0.13443381278E+02  0.23070334721E+03  0.35426688336E+03  0.26293869286E+03 0.  0.
         25    1    4    4    0    0  0.61974729864E+02  0.14817817826E+02  0.12118916822E+03  0.18545823643E+03  0.12509000000E+03 0.  0.
         25    1    3    3    0    0 -0.54438125672E+02  0.13443381278E+02  0.40148516124E+03  0.42424294552E+03  0.12509000000E+03 0.  0.
         25    1    4    4    0    0 -0.75366041917E+01 -0.28261199103E+02  0.10951417900E+03  0.16880864693E+03  0.12509000000E+03 0.  0.
<mgrwt>
<rscale>  2 0.45432944E+03</rscale>
<asrwt>0</asrwt>
<pdfrwt beam="1">  1       21 0.10372782E+00 0.45432944E+03</pdfrwt>
<pdfrwt beam="2">  1       21 0.10758921E-01 0.45432944E+03</pdfrwt>
<totfact> 0.49079683E+04</totfact>
</mgrwt>
</event>
<event>
 7    0  0.4707675E-002  0.4521135E+03  0.7546771E-02  0.1027094E+00
         21   -1    0    0  502  501  0.00000000000E+00  0.00000000000E+00  0.24005112802E+03  0.24005112802E+03  0.00000000000E+00 0.  1.
         21   -1    0    0  501  502 -0.00000000000E+00 -0.00000000000E+00 -0.21287820310E+03  0.21287820310E+03  0.00000000000E+00 0.  1.
      99926    2    1    2    0    0  0.00000000000E+00  0.00000000000E+00  0.27172924918E+02  0.45292933112E+03  0.45211349365E+03 0.  0.
      99925    2    3    3    0    0 -0.78401565411E+02 -0.20704977724E+02 -0.57998397111E+02  0.28124018249E+03  0.26297666173E+03 0.  0.
         25    1    4    4    0    0 -0.42513349616E+02 -0.29403291020E+02 -0.65969051791E+02  0.15057012424E+03  0.12509000000E+03 0.  0.
         25    1    3    3    0    0  0.78401565411E+02  0.20704977724E+02  0.85171322030E+02  0.17168914863E+03  0.12509000000E+03 0.  0.
         25    1    4    4    0    0 -0.35888215795E+02  0.86983132966E+01  0.79706546791E+01  0.13067005825E+03  0.12509000000E+03 0.  0.
<mgrwt>
<rscale>  2 0.45211349E+03</rscale>
<asrwt>0</asrwt>
<pdfrwt beam="1">  1       21 0.35301637E-01 0.45211349E+03</pdfrwt>
<pdfrwt beam="2">  1       21 0.31305618E-01 0.45211349E+03</pdfrwt>
<totfact> 0.70303032E+04</totfact>
</mgrwt>
</event>
<event>
 7    0  0.4707675E-002  0.4517497E+03  0.7546771E-02  0.1027202E+00
         21   -1    0    0  502  501  0.00000000000E+00  0.00000000000E+00  0.85768329961E+03  0.85768329961E+03  0.00000000000E+00 0. -1.
         21   -1    0    0  501  502 -0.00000000000E+00 -0.00000000000E+00 -0.59485193511E+02  0.59485193511E+02  0.00000000000E+00 0. -1.
      99926    2    1    2    0    0  0.00000000000E+00  0.00000000000E+00  0.79819810610E+03  0.91716849312E+03  0.45174974067E+03 0.  0.
      99925    2    3    3    0    0  0.65678355370E+02 -0.82542294991E+02  0.44223799224E+03  0.52540072060E+03  0.26333362604E+03 0.  0.
         25    1    3    3    0    0 -0.65678355370E+02  0.82542294991E+02  0.35596011386E+03  0.39176777252E+03  0.12509000000E+03 0.  0.
         25    1    4    4    0    0  0.74925387874E+02 -0.42416041379E+02  0.22905181905E+03  0.27481844593E+03  0.12509000000E+03 0.  0.
         25    1    4    4    0    0 -0.92470325046E+01 -0.40126253612E+02  0.21318617319E+03  0.25058227467E+03  0.12509000000E+03 0.  0.
<mgrwt>
<rscale>  2 0.45174974E+03</rscale>
<asrwt>0</asrwt>
<pdfrwt beam="1">  1       21 0.12612989E+00 0.45174974E+03</pdfrwt>
<pdfrwt beam="2">  1       21 0.87478231E-02 0.45174974E+03</pdfrwt>
<totfact> 0.43597718E+04</totfact>
</mgrwt>
</event>
<event>
 7    0  0.4707675E-002  0.4117109E+03  0.7546771E-02  0.1039798E+00
         21   -1    0    0  502  501  0.00000000000E+00  0.00000000000E+00  0.27171619766E+03  0.27171619766E+03  0.00000000000E+00 0. -1.
         21   -1    0    0  501  502 -0.00000000000E+00 -0.00000000000E+00 -0.15595856472E+03  0.15595856472E+03  0.00000000000E+00 0. -1.
      99926    2    1    2    0    0  0.00000000000E+00  0.71054273576E-14  0.11575763294E+03  0.42767476238E+03  0.41171090925E+03 0.  0.
      99925    2    3    3    0    0  0.17427294678E+02 -0.52009185575E+02  0.11236728780E+03  0.29104508579E+03  0.26281584544E+03 0.  0.
         25    1    3    3    0    0 -0.17427294678E+02  0.52009185575E+02  0.33903451391E+01  0.13662967659E+03  0.12509000000E+03 0.  0.
         25    1    4    4    0    0  0.48029394378E+02 -0.34199031020E+02  0.52518441387E+02  0.14792596538E+03  0.12509000000E+03 0.  0.
         25    1    4    4    0    0 -0.30602099701E+02 -0.17810154556E+02  0.59848846414E+02  0.14311912042E+03  0.12509000000E+03 0.  0.
<mgrwt>
<rscale>  2 0.41171091E+03</rscale>
<asrwt>0</asrwt>
<pdfrwt beam="1">  1       21 0.39958264E-01 0.41171091E+03</pdfrwt>
<pdfrwt beam="2">  1       21 0.22935083E-01 0.41171091E+03</pdfrwt>
<totfact> 0.10127555E+05</totfact>
</mgrwt>
</event>
<event>
 7    0  0.4707675E-002  0.4527576E+03  0.7546771E-02  0.1026903E+00
         21   -1    0    0  502  501  0.00000000000E+00  0.00000000000E+00  0.23074777021E+03  0.23074777021E+03  0.00000000000E+00 0.  1.
         21   -1    0    0  501  502 -0.00000000000E+00 -0.00000000000E+00 -0.22209251214E+03  0.22209251214E+03  0.00000000000E+00 0.  1.
      99926    2    1    2    0    0  0.00000000000E+00  0.00000000000E+00  0.86552580718E+01  0.45284028235E+03  0.45275755966E+03 0.  0.
      99925    2    3    3    0    0 -0.70033640740E+02  0.68193404093E+02 -0.47278493570E+02  0.28452170384E+03  0.26298724837E+03 0.  0.
         25    1    4    4    0    0 -0.63627129782E+02  0.39329135656E+02  0.48188686217E+01  0.14582839967E+03  0.12509000000E+03 0.  0.
         25    1    3    3    0    0  0.70033640740E+02 -0.68193404093E+02  0.55933751642E+02  0.16831857850E+03  0.12509000000E+03 0.  0.
         25    1    4    4    0    0 -0.64065109582E+01  0.28864268437E+02 -0.52097362192E+02  0.13869330417E+03  0.12509000000E+03 0.  0.
<mgrwt>
<rscale>  2 0.45275756E+03</rscale>
<asrwt>0</asrwt>
<pdfrwt beam="1">  1       21 0.33933496E-01 0.45275756E+03</pdfrwt>
<pdfrwt beam="2">  1       21 0.32660663E-01 0.45275756E+03</pdfrwt>
<totfact> 0.69947474E+04</totfact>
</mgrwt>
</event>
<event>
 7    0  0.4707675E-002  0.4475335E+03  0.7546771E-02  0.1028460E+00
         21   -1    0    0  502  501  0.00000000000E+00  0.00000000000E+00  0.11726501967E+03  0.11726501967E+03  0.00000000000E+00 0.  1.
         21   -1    0    0  501  502 -0.00000000000E+00 -0.00000000000E+00 -0.42699477307E+03  0.42699477307E+03  0.00000000000E+00 0.  1.
      99926    2    1    2    0    0  0.35527136788E-14 -0.14210854715E-13 -0.30972975340E+03  0.54425979274E+03  0.44753346450E+03 0.  0.
      99925    2    3    3    0    0  0.26897259761E+02 -0.93725668317E+02 -0.14555534530E+03  0.31598647441E+03  0.26296982713E+03 0.  0.
         25    1    4    4    0    0  0.18216739126E+01 -0.24600817732E+02 -0.10541783296E+03  0.16543562595E+03  0.12509000000E+03 0.  0.
         25    1    3    3    0    0 -0.26897259761E+02  0.93725668317E+02 -0.16417440811E+03  0.22827331833E+03  0.12509000000E+03 0.  0.
         25    1    4    4    0    0  0.25075585849E+02 -0.69124850585E+02 -0.40137512336E+02  0.15055084846E+03  0.12509000000E+03 0.  0.
<mgrwt>
<rscale>  2 0.44753346E+03</rscale>
<asrwt>0</asrwt>
<pdfrwt beam="1">  1       21 0.17244856E-01 0.44753346E+03</pdfrwt>
<pdfrwt beam="2">  1       21 0.62793348E-01 0.44753346E+03</pdfrwt>
<totfact> 0.66065046E+04</totfact>
</mgrwt>
</event>
<event>
 7    0  0.4707675E-002  0.4568066E+03  0.7546771E-02  0.1025711E+00
         21   -1    0    0  502  501  0.00000000000E+00  0.00000000000E+00  0.48630222087E+03  0.48630222087E+03  0.00000000000E+00 0.  1.
         21   -1    0    0  501  502 -0.00000000000E+00 -0.00000000000E+00 -0.10727501466E+03  0.10727501466E+03  0.00000000000E+00 0.  1.
      99926    2    1    2    0    0  0.00000000000E+00  0.00000000000E+00  0.37902720622E+03  0.59357723553E+03  0.45680664563E+03 0.  0.
      99925    2    3    3    0    0 -0.73674480087E+02 -0.12487077210E+02  0.35148731448E+03  0.44528762076E+03  0.26297124719E+03 0.  0.
         25    1    3    3    0    0  0.73674480087E+02  0.12487077210E+02  0.27539891737E+02  0.14828961478E+03  0.12509000000E+03 0.  0.
         25    1    4    4    0    0 -0.27416369999E+02  0.16890165616E+02  0.22339450798E+03  0.25804950946E+03  0.12509000000E+03 0.  0.
         25    1    4    4    0    0 -0.46258110088E+02 -0.29377242826E+02  0.12809280650E+03  0.18723811130E+03  0.12509000000E+03 0.  0.
<mgrwt>
<rscale>  2 0.45680665E+03</rscale>
<asrwt>0</asrwt>
<pdfrwt beam="1">  1       21 0.71515032E-01 0.45680665E+03</pdfrwt>
<pdfrwt beam="2">  1       21 0.15775738E-01 0.45680665E+03</pdfrwt>
<totfact> 0.58239377E+04</totfact>
</mgrwt>
</event>
<event>
 7    0  0.4707675E-002  0.4541504E+03  0.7546771E-02  0.1026492E+00
         21   -1    0    0  502  501  0.00000000000E+00  0.00000000000E+00  0.57495164957E+03  0.57495164957E+03  0.00000000000E+00 0.  1.
         21   -1    0    0  501  502 -0.00000000000E+00 -0.00000000000E+00 -0.89682595394E+02  0.89682595394E+02  0.00000000000E+00 0.  1.
      99926    2    1    2    0    0  0.00000000000E+00 -0.35527136788E-14  0.48526905418E+03  0.66463424497E+03  0.45415044274E+03 0.  0.
      99925    2    3    3    0    0  0.71233669557E+02 -0.29328835790E+02  0.18591220740E+03  0.33117293372E+03  0.26301662852E+03 0.  0.
         25    1    3    3    0    0 -0.71233669557E+02  0.29328835790E+02  0.29935684678E+03  0.33346131125E+03  0.12509000000E+03 0.  0.
         25    1    4    4    0    0  0.41034566072E+02 -0.52947892196E+02  0.11300373587E+03  0.18139643691E+03  0.12509000000E+03 0.  0.
         25    1    4    4    0    0  0.30199103485E+02  0.23619056406E+02  0.72908471526E+02  0.14977649681E+03  0.12509000000E+03 0.  0.
<mgrwt>
<rscale>  2 0.45415044E+03</rscale>
<asrwt>0</asrwt>
<pdfrwt beam="1">  1       21 0.84551711E-01 0.45415044E+03</pdfrwt>
<pdfrwt beam="2">  1       21 0.13188617E-01 0.45415044E+03</pdfrwt>
<totfact> 0.55234312E+04</totfact>
</mgrwt>
</event>
<event>
 7    0  0.4707675E-002  0.4626085E+03  0.7546771E-02  0.1024027E+00
         21   -1    0    0  502  501  0.00000000000E+00  0.00000000000E+00  0.32172835361E+03  0.32172835361E+03  0.00000000000E+00 0.  1.
         21   -1    0    0  501  502 -0.00000000000E+00 -0.00000000000E+00 -0.16629449585E+03  0.16629449585E+03  0.00000000000E+00 0.  1.
      99926    2    1    2    0    0  0.71054273576E-14  0.00000000000E+00  0.15543385776E+03  0.48802284947E+03  0.46260849264E+03 0.  0.
      99925    2    3    3    0    0  0.63543133160E+02 -0.39723588219E+02  0.19613596390E+03  0.33662977572E+03  0.26312467831E+03 0.  0.
         25    1    4    4    0    0  0.34181118316E+02 -0.19379796203E+02  0.48357995011E+02  0.13974952283E+03  0.12509000000E+03 0.  0.
         25    1    4    4    0    0  0.29362014844E+02 -0.20343792017E+02  0.14777796889E+03  0.19688025289E+03  0.12509000000E+03 0.  0.
         25    1    3    3    0    0 -0.63543133160E+02  0.39723588219E+02 -0.40702106143E+02  0.15139307374E+03  0.12509000000E+03 0.  0.
<mgrwt>
<rscale>  2 0.46260849E+03</rscale>
<asrwt>0</asrwt>
<pdfrwt beam="1">  1       21 0.47312993E-01 0.46260849E+03</pdfrwt>
<pdfrwt beam="2">  1       21 0.24455073E-01 0.46260849E+03</pdfrwt>
<totfact> 0.62273578E+04</totfact>
</mgrwt>
</event>
<event>
 7    0  0.4707675E-002  0.4513442E+03  0.7546771E-02  0.1027322E+00
         21   -1    0    0  502  501  0.00000000000E+00  0.00000000000E+00  0.69914836781E+03  0.69914836781E+03  0.00000000000E+00 0.  1.
         21   -1    0    0  501  502 -0.00000000000E+00 -0.00000000000E+00 -0.72842769646E+02  0.72842769646E+02  0.00000000000E+00 0.  1.
      99926    2    1    2    0    0  0.00000000000E+00  0.00000000000E+00  0.62630559816E+03  0.77199113746E+03  0.45134423007E+03 0.  0.
      99925    2    3    3    0    0  0.62850597896E+02 -0.48481835598E+01  0.24184021037E+03  0.36280310604E+03  0.26299373351E+03 0.  0.
         25    1    4    4    0    0  0.27435333116E+02 -0.41075821094E+01  0.17421218248E+03  0.21625670477E+03  0.12509000000E+03 0.  0.
         25    1    3    3    0    0 -0.62850597896E+02  0.48481835598E+01  0.38446538779E+03  0.40918803141E+03  0.12509000000E+03 0.  0.
         25    1    4    4    0    0  0.35415264780E+02 -0.74060145043E+00  0.67628027893E+02  0.14654640127E+03  0.12509000000E+03 0.  0.
<mgrwt>
<rscale>  2 0.45134423E+03</rscale>
<asrwt>0</asrwt>
<pdfrwt beam="1">  1       21 0.10281593E+00 0.45134423E+03</pdfrwt>
<pdfrwt beam="2">  1       21 0.10712172E-01 0.45134423E+03</pdfrwt>
<totfact> 0.50585526E+04</totfact>
</mgrwt>
</event>
<event>
 7    0  0.4707675E-002  0.4541249E+03  0.7546771E-02  0.1026499E+00
         21   -1    0    0  502  501  0.00000000000E+00  0.00000000000E+00  0.14251880224E+04  0.14251880224E+04  0.00000000000E+00 0.  1.
         21   -1    0    0  501  502 -0.00000000000E+00 -0.00000000000E+00 -0.36175827988E+02  0.36175827988E+02  0.00000000000E+00 0.  1.
      99926    2    1    2    0    0  0.00000000000E+00  0.00000000000E+00  0.13890121944E+04  0.14613638504E+04  0.45412490242E+03 0.  0.
      99925    2    3    3    0    0  0.10432587715E+03  0.40802936889E+02  0.84352068462E+03  0.89061236011E+03  0.26289629570E+03 0.  0.
         25    1    3    3    0    0 -0.10432587715E+03 -0.40802936889E+02  0.54549150980E+03  0.57075149029E+03  0.12509000000E+03 0.  0.
         25    1    4    4    0    0  0.24625896643E+02  0.31948736914E+02  0.30824802914E+03  0.33509925715E+03  0.12509000000E+03 0.  0.
         25    1    4    4    0    0  0.79699980509E+02  0.88541999754E+01  0.53527265548E+03  0.55551310296E+03  0.12509000000E+03 0.  0.
<mgrwt>
<rscale>  2 0.45412490E+03</rscale>
<asrwt>0</asrwt>
<pdfrwt beam="1">  1       21 0.20958644E+00 0.45412490E+03</pdfrwt>
<pdfrwt beam="2">  1       21 0.53199757E-02 0.45412490E+03</pdfrwt>
<totfact> 0.24910465E+04</totfact>
</mgrwt>
</event>
<event>
 7    0  0.4707675E-002  0.4018626E+03  0.7546771E-02  0.1043137E+00
         21   -1    0    0  502  501  0.00000000000E+00  0.00000000000E+00  0.15266197434E+03  0.15266197434E+03  0.00000000000E+00 0. -1.
         21   -1    0    0  501  502 -0.00000000000E+00 -0.00000000000E+00 -0.26446268616E+03  0.26446268616E+03  0.00000000000E+00 0. -1.
      99926    2    1    2    0    0  0.17763568394E-14  0.00000000000E+00 -0.11180071182E+03  0.41712466050E+03  0.40186264225E+03 0.  0.
      99925    2    3    3    0    0 -0.10260811383E+01  0.48370109579E+02 -0.65995108850E+02  0.27539822787E+03  0.26296028061E+03 0.  0.
         25    1    4    4    0    0  0.39545159380E+02  0.29298549986E+02 -0.30045656789E+02  0.13774060496E+03  0.12509000000E+03 0.  0.
         25    1    3    3    0    0  0.10260811383E+01 -0.48370109579E+02 -0.45805602974E+02  0.14172643263E+03  0.12509000000E+03 0.  0.
         25    1    4    4    0    0 -0.40571240518E+02  0.19071559594E+02 -0.35949452061E+02  0.13765762291E+03  0.12509000000E+03 0.  0.
<mgrwt>
<rscale>  2 0.40186264E+03</rscale>
<asrwt>0</asrwt>
<pdfrwt beam="1">  1       21 0.22450291E-01 0.40186264E+03</pdfrwt>
<pdfrwt beam="2">  1       21 0.38891571E-01 0.40186264E+03</pdfrwt>
<totfact> 0.11176511E+05</totfact>
</mgrwt>
</event>
<event>
 7    0  0.4707675E-002  0.4559771E+03  0.7546771E-02  0.1025954E+00
         21   -1    0    0  502  501  0.00000000000E+00  0.00000000000E+00  0.38675227651E+02  0.38675227651E+02  0.00000000000E+00 0.  1.
         21   -1    0    0  501  502 -0.00000000000E+00 -0.00000000000E+00 -0.13439814863E+04  0.13439814863E+04  0.00000000000E+00 0.  1.
      99926    2    1    2    0    0  0.17763568394E-14  0.00000000000E+00 -0.13053062586E+04  0.13826567139E+04  0.45597714829E+03 0.  0.
      99925    2    3    3    0    0  0.88018906824E+01 -0.99505427608E+02 -0.65348854140E+03  0.71146922299E+03  0.26298741057E+03 0.  0.
         25    1    4    4    0    0  0.15366181800E+02 -0.47665972901E+02 -0.22727047102E+03  0.26421116482E+03  0.12509000000E+03 0.  0.
         25    1    4    4    0    0 -0.65642911174E+01 -0.51839454707E+02 -0.42621807038E+03  0.44725805817E+03  0.12509000000E+03 0.  0.
         25    1    3    3    0    0 -0.88018906824E+01  0.99505427608E+02 -0.65181771723E+03  0.67118749095E+03  0.12509000000E+03 0.  0.
<mgrwt>
<rscale>  2 0.45597715E+03</rscale>
<asrwt>0</asrwt>
<pdfrwt beam="1">  1       21 0.56875351E-02 0.45597715E+03</pdfrwt>
<pdfrwt beam="2">  1       21 0.19764428E+00 0.45597715E+03</pdfrwt>
<totfact> 0.26595324E+04</totfact>
</mgrwt>
</event>
<event>
 7    0  0.4707675E-002  0.4519871E+03  0.7546771E-02  0.1027131E+00
         21   -1    0    0  502  501  0.00000000000E+00  0.00000000000E+00  0.29730248948E+03  0.29730248948E+03  0.00000000000E+00 0.  1.
         21   -1    0    0  501  502 -0.00000000000E+00 -0.00000000000E+00 -0.17178832231E+03  0.17178832231E+03  0.00000000000E+00 0.  1.
      99926    2    1    2    0    0  0.00000000000E+00  0.00000000000E+00  0.12551416717E+03  0.46909081179E+03  0.45198714976E+03 0.  0.
      99925    2    3    3    0    0 -0.81273053060E+02 -0.31514991509E+02  0.14939229794E+03  0.31476590430E+03  0.26298481322E+03 0.  0.
         25    1    3    3    0    0  0.81273053060E+02  0.31514991509E+02 -0.23878130766E+02  0.15432490749E+03  0.12509000000E+03 0.  0.
         25    1    4    4    0    0 -0.49084123941E+02 -0.51311043220E+02  0.56962328245E+02  0.15470710817E+03  0.12509000000E+03 0.  0.
         25    1    4    4    0    0 -0.32188929120E+02  0.19796051711E+02  0.92429969696E+02  0.16005879613E+03  0.12509000000E+03 0.  0.
<mgrwt>
<rscale>  2 0.45198715E+03</rscale>
<asrwt>0</asrwt>
<pdfrwt beam="1">  1       21 0.43720954E-01 0.45198715E+03</pdfrwt>
<pdfrwt beam="2">  1       21 0.25262989E-01 0.45198715E+03</pdfrwt>
<totfact> 0.69141316E+04</totfact>
</mgrwt>
</event>
<event>
 6    0  0.4707675E-002  0.4539516E+03  0.7546771E-02  0.1026550E+00
         21   -1    0    0  502  501  0.00000000000E+00  0.00000000000E+00  0.65891114637E+02  0.65891114637E+02  0.00000000000E+00 0. -1.
         21   -1    0    0  501  502 -0.00000000000E+00 -0.00000000000E+00 -0.78186583674E+03  0.78186583674E+03  0.00000000000E+00 0. -1.
      99926    2    1    2    0    0  0.00000000000E+00  0.00000000000E+00 -0.71597472211E+03  0.84775695138E+03  0.45395158984E+03 0.  0.
         25    1    3    3    0    0 -0.62633806433E+02  0.43394635485E+02 -0.40859369123E+03  0.43405345375E+03  0.12509000000E+03 0.  0.
         25    1    3    3    0    0  0.87911750889E+01  0.19383031528E+02 -0.14450446416E+03  0.19230713698E+03  0.12509000000E+03 0.  0.
         25    1    3    3    0    0  0.53842631344E+02 -0.62777667014E+02 -0.16287656671E+03  0.22139636065E+03  0.12509000000E+03 0.  0.
<mgrwt>
<rscale>  2 0.45395159E+03</rscale>
<asrwt>0</asrwt>
<pdfrwt beam="1">  1       21 0.96898701E-02 0.45395159E+03</pdfrwt>
<pdfrwt beam="2">  1       21 0.11498027E+00 0.45395159E+03</pdfrwt>
<totfact> 0.45916360E+04</totfact>
</mgrwt>
</event>
<event>
 7    0  0.4707675E-002  0.4432392E+03  0.7546771E-02  0.1029758E+00
         21   -1    0    0  502  501  0.00000000000E+00  0.00000000000E+00  0.57578992315E+02  0.57578992315E+02  0.00000000000E+00 0. -1.
         21   -1    0    0  501  502 -0.00000000000E+00 -0.00000000000E+00 -0.85300645649E+03  0.85300645649E+03  0.00000000000E+00 0. -1.
      99926    2    1    2    0    0  0.00000000000E+00  0.00000000000E+00 -0.79542746418E+03  0.91058544881E+03  0.44323922301E+03 0.  0.
      99925    2    3    3    0    0 -0.88246226526E+02  0.31660098430E+02 -0.58622452215E+03  0.64942814490E+03  0.26326406267E+03 0.  0.
         25    1    3    3    0    0  0.88246226526E+02 -0.31660098430E+02 -0.20920294203E+03  0.26115730390E+03  0.12509000000E+03 0.  0.
         25    1    4    4    0    0 -0.12287312534E+02  0.42551844300E+02 -0.28099368497E+03  0.31075166386E+03  0.12509000000E+03 0.  0.
         25    1    4    4    0    0 -0.75958913992E+02 -0.10891745870E+02 -0.30523083718E+03  0.33867648104E+03  0.12509000000E+03 0.  0.
<mgrwt>
<rscale>  2 0.44323922E+03</rscale>
<asrwt>0</asrwt>
<pdfrwt beam="1">  1       21 0.84674989E-02 0.44323922E+03</pdfrwt>
<pdfrwt beam="2">  1       21 0.12544213E+00 0.44323922E+03</pdfrwt>
<totfact> 0.46952869E+04</totfact>
</mgrwt>
</event>
<event>
 7    0  0.4707675E-002  0.4518935E+03  0.7546771E-02  0.1027159E+00
         21   -1    0    0  502  501  0.00000000000E+00  0.00000000000E+00  0.50532596499E+03  0.50532596499E+03  0.00000000000E+00 0. -1.
         21   -1    0    0  501  502 -0.00000000000E+00 -0.00000000000E+00 -0.10102774945E+03  0.10102774945E+03  0.00000000000E+00 0. -1.
      99926    2    1    2    0    0  0.00000000000E+00  0.00000000000E+00  0.40429821554E+03  0.60635371444E+03  0.45189354933E+03 0.  0.
      99925    2    3    3    0    0 -0.10544831517E+03  0.28165565793E+02  0.23404790044E+03  0.36856110698E+03  0.26295669532E+03 0.  0.
         25    1    4    4    0    0 -0.10506402042E+02  0.22732898287E+02  0.10563928177E+03  0.16563313407E+03  0.12509000000E+03 0.  0.
         25    1    3    3    0    0  0.10544831517E+03 -0.28165565793E+02  0.17025031510E+03  0.23779260745E+03  0.12509000000E+03 0.  0.
         25    1    4    4    0    0 -0.94941913125E+02  0.54326675061E+01  0.12840861867E+03  0.20292797292E+03  0.12509000000E+03 0.  0.
<mgrwt>
<rscale>  2 0.45189355E+03</rscale>
<asrwt>0</asrwt>
<pdfrwt beam="1">  1       21 0.74312641E-01 0.45189355E+03</pdfrwt>
<pdfrwt beam="2">  1       21 0.14857022E-01 0.45189355E+03</pdfrwt>
<totfact> 0.59741483E+04</totfact>
</mgrwt>
</event>
<event>
 7    0  0.4707675E-002  0.4574743E+03  0.7546771E-02  0.1025516E+00
         21   -1    0    0  502  501  0.00000000000E+00  0.00000000000E+00  0.59682923351E+03  0.59682923351E+03  0.00000000000E+00 0. -1.
         21   -1    0    0  501  502 -0.00000000000E+00 -0.00000000000E+00 -0.87664422152E+02  0.87664422152E+02  0.00000000000E+00 0. -1.
      99926    2    1    2    0    0  0.00000000000E+00  0.00000000000E+00  0.50916481136E+03  0.68449365566E+03  0.45747432662E+03 0.  0.
      99925    2    3    3    0    0  0.81139117631E+02  0.57943244274E+02  0.23294874817E+03  0.36530124092E+03  0.26313285879E+03 0.  0.
         25    1    4    4    0    0  0.16040441078E+00  0.28722003240E+02  0.90048028809E+02  0.15678371979E+03  0.12509000000E+03 0.  0.
         25    1    3    3    0    0 -0.81139117631E+02 -0.57943244274E+02  0.27621606319E+03  0.31919241475E+03  0.12509000000E+03 0.  0.
         25    1    4    4    0    0  0.80978713221E+02  0.29221241034E+02  0.14290071936E+03  0.20851752112E+03  0.12509000000E+03 0.  0.
<mgrwt>
<rscale>  2 0.45747433E+03</rscale>
<asrwt>0</asrwt>
<pdfrwt beam="1">  1       21 0.87769003E-01 0.45747433E+03</pdfrwt>
<pdfrwt beam="2">  1       21 0.12891827E-01 0.45747433E+03</pdfrwt>
<totfact> 0.52718667E+04</totfact>
</mgrwt>
</event>
<event>
 6    0  0.4707675E-002  0.4467913E+03  0.7546771E-02  0.1028683E+00
         21   -1    0    0  502  501  0.00000000000E+00  0.00000000000E+00  0.85142909832E+02  0.85142909832E+02  0.00000000000E+00 0. -1.
         21   -1    0    0  501  502 -0.00000000000E+00 -0.00000000000E+00 -0.58613934141E+03  0.58613934141E+03  0.00000000000E+00 0. -1.
      99926    2    1    2    0    0  0.00000000000E+00  0.71054273576E-14 -0.50099643158E+03  0.67128225124E+03  0.44679126712E+03 0.  0.
         25    1    3    3    0    0 -0.34878693189E+02  0.43932583545E+02 -0.52468417251E+02  0.14678909375E+03  0.12509000000E+03 0.  0.
         25    1    3    3    0    0 -0.21722133079E+02 -0.26720546179E+02 -0.26066671880E+03  0.29117088632E+03  0.12509000000E+03 0.  0.
         25    1    3    3    0    0  0.56600826268E+02 -0.17212037366E+02 -0.18786129553E+03  0.23332227117E+03  0.12509000000E+03 0.  0.
<mgrwt>
<rscale>  2 0.44679127E+03</rscale>
<asrwt>0</asrwt>
<pdfrwt beam="1">  1       21 0.12521016E-01 0.44679127E+03</pdfrwt>
<pdfrwt beam="2">  1       21 0.86196965E-01 0.44679127E+03</pdfrwt>
<totfact> 0.58160956E+04</totfact>
</mgrwt>
</event>
<event>
 7    0  0.4707675E-002  0.4528003E+03  0.7546771E-02  0.1026890E+00
         21   -1    0    0  502  501  0.00000000000E+00  0.00000000000E+00  0.40962283699E+03  0.40962283699E+03  0.00000000000E+00 0.  1.
         21   -1    0    0  501  502 -0.00000000000E+00 -0.00000000000E+00 -0.12513225261E+03  0.12513225261E+03  0.00000000000E+00 0.  1.
      99926    2    1    2    0    0 -0.14210854715E-13 -0.71054273576E-14  0.28449058438E+03  0.53475508961E+03  0.45280030175E+03 0.  0.
      99925    2    3    3    0    0 -0.85698287842E+02 -0.56558502799E+02  0.12576344281E+03  0.30807276928E+03  0.26181926370E+03 0.  0.
         25    1    3    3    0    0  0.85698287842E+02  0.56558502799E+02  0.15872714157E+03  0.22668232033E+03  0.12509000000E+03 0.  0.
         25    1    4    4    0    0 -0.74793254074E+02 -0.34488379105E+02  0.93517473718E+02  0.17656869807E+03  0.12509000000E+03 0.  0.
         25    1    4    4    0    0 -0.10905033769E+02 -0.22070123694E+02  0.32245969088E+02  0.13150407121E+03  0.12509000000E+03 0.  0.
<mgrwt>
<rscale>  2 0.45280030E+03</rscale>
<asrwt>0</asrwt>
<pdfrwt beam="1">  1       21 0.60238652E-01 0.45280030E+03</pdfrwt>
<pdfrwt beam="2">  1       21 0.18401802E-01 0.45280030E+03</pdfrwt>
<totfact> 0.63992167E+04</totfact>
</mgrwt>
</event>
<event>
 7    0  0.4707675E-002  0.4530392E+03  0.7546771E-02  0.1026820E+00
         21   -1    0    0  502  501  0.00000000000E+00  0.00000000000E+00  0.70029385059E+03  0.70029385059E+03  0.00000000000E+00 0. -1.
         21   -1    0    0  501  502 -0.00000000000E+00 -0.00000000000E+00 -0.73270860038E+02  0.73270860038E+02  0.00000000000E+00 0. -1.
      99926    2    1    2    0    0  0.00000000000E+00  0.00000000000E+00  0.62702299056E+03  0.77356471063E+03  0.45303921558E+03 0.  0.
      99925    2    3    3    0    0  0.68518362009E+02 -0.83801577885E+02  0.43046293978E+03  0.51665843969E+03  0.26442414865E+03 0.  0.
         25    1    3    3    0    0 -0.68518362009E+02  0.83801577885E+02  0.19656005078E+03  0.25690627095E+03  0.12509000000E+03 0.  0.
         25    1    4    4    0    0  0.78032036349E+01 -0.87813052285E+01  0.22202099917E+03  0.25510553401E+03  0.12509000000E+03 0.  0.
         25    1    4    4    0    0  0.60715158375E+02 -0.75020272657E+02  0.20844194060E+03  0.26155290568E+03  0.12509000000E+03 0.  0.
<mgrwt>
<rscale>  2 0.45303922E+03</rscale>
<asrwt>0</asrwt>
<pdfrwt beam="1">  1       21 0.10298439E+00 0.45303922E+03</pdfrwt>
<pdfrwt beam="2">  1       21 0.10775127E-01 0.45303922E+03</pdfrwt>
<totfact> 0.49832632E+04</totfact>
</mgrwt>
</event>
<event>
 7    0  0.4707675E-002  0.4518848E+03  0.7546771E-02  0.1027161E+00
         21   -1    0    0  502  501  0.00000000000E+00  0.00000000000E+00  0.49817411907E+03  0.49817411907E+03  0.00000000000E+00 0.  1.
         21   -1    0    0  501  502 -0.00000000000E+00 -0.00000000000E+00 -0.10247414710E+03  0.10247414710E+03  0.00000000000E+00 0.  1.
      99926    2    1    2    0    0 -0.35527136788E-14  0.00000000000E+00  0.39569997197E+03  0.60064826618E+03  0.45188479931E+03 0.  0.
      99925    2    3    3    0    0  0.23716602566E+02  0.35898783948E+02  0.38458129265E+03  0.46789913038E+03  0.26301259594E+03 0.  0.
         25    1    4    4    0    0 -0.10252990404E+02  0.18796103068E+02  0.24941686429E+03  0.27984763282E+03  0.12509000000E+03 0.  0.
         25    1    4    4    0    0  0.33969592970E+02  0.17102680880E+02  0.13516442836E+03  0.18805149756E+03  0.12509000000E+03 0.  0.
         25    1    3    3    0    0 -0.23716602566E+02 -0.35898783948E+02  0.11118679320E+02  0.13274913580E+03  0.12509000000E+03 0.  0.
<mgrwt>
<rscale>  2 0.45188480E+03</rscale>
<asrwt>0</asrwt>
<pdfrwt beam="1">  1       21 0.73260899E-01 0.45188480E+03</pdfrwt>
<pdfrwt beam="2">  1       21 0.15069728E-01 0.45188480E+03</pdfrwt>
<totfact> 0.60104131E+04</totfact>
</mgrwt>
</event>
<event>
 7    0  0.4707675E-002  0.4455431E+03  0.7546771E-02  0.1029060E+00
         21   -1    0    0  502  501  0.00000000000E+00  0.00000000000E+00  0.92271968894E+02  0.92271968894E+02  0.00000000000E+00 0.  1.
         21   -1    0    0  501  502 -0.00000000000E+00 -0.00000000000E+00 -0.53783586767E+03  0.53783586767E+03  0.00000000000E+00 0.  1.
      99926    2    1    2    0    0  0.00000000000E+00  0.00000000000E+00 -0.44556389878E+03  0.63010783657E+03  0.44554314921E+03 0.  0.
      99925    2    3    3    0    0 -0.55468818976E+02  0.87067497510E+02 -0.26375994032E+03  0.38647342518E+03  0.26293509323E+03 0.  0.
         25    1    3    3    0    0  0.55468818976E+02 -0.87067497510E+02 -0.18180395845E+03  0.24363441138E+03  0.12509000000E+03 0.  0.
         25    1    4    4    0    0 -0.59130976856E+02  0.63941315345E+02 -0.11652112080E+03  0.19185839550E+03  0.12509000000E+03 0.  0.
         25    1    4    4    0    0  0.36621578796E+01  0.23126182166E+02 -0.14723881953E+03  0.19461502968E+03  0.12509000000E+03 0.  0.
<mgrwt>
<rscale>  2 0.44554315E+03</rscale>
<asrwt>0</asrwt>
<pdfrwt beam="1">  1       21 0.13569407E-01 0.44554315E+03</pdfrwt>
<pdfrwt beam="2">  1       21 0.79093510E-01 0.44554315E+03</pdfrwt>
<totfact> 0.61312533E+04</totfact>
</mgrwt>
</event>
<event>
 7    0  0.4707675E-002  0.4496881E+03  0.7546771E-02  0.1027815E+00
         21   -1    0    0  502  501  0.00000000000E+00  0.00000000000E+00  0.31792270934E+03  0.31792270934E+03  0.00000000000E+00 0. -1.
         21   -1    0    0  501  502 -0.00000000000E+00 -0.00000000000E+00 -0.15901617831E+03  0.15901617831E+03  0.00000000000E+00 0. -1.
      99926    2    1    2    0    0  0.00000000000E+00  0.00000000000E+00  0.15890653103E+03  0.47693888765E+03  0.44968813299E+03 0.  0.
      99925    2    3    3    0    0  0.86078615001E+02 -0.25166495734E+02  0.36314471800E+02  0.28016693448E+03  0.26292943891E+03 0.  0.
         25    1    4    4    0    0  0.90667249025E+00 -0.14286790385E+02  0.11547706157E+02  0.12643493209E+03  0.12509000000E+03 0.  0.
         25    1    3    3    0    0 -0.86078615001E+02  0.25166495734E+02  0.12259205923E+03  0.19677195317E+03  0.12509000000E+03 0.  0.
         25    1    4    4    0    0  0.85171942511E+02 -0.10879705349E+02  0.24766765644E+02  0.15373200239E+03  0.12509000000E+03 0.  0.
<mgrwt>
<rscale>  2 0.44968813E+03</rscale>
<asrwt>0</asrwt>
<pdfrwt beam="1">  1       21 0.46753340E-01 0.44968813E+03</pdfrwt>
<pdfrwt beam="2">  1       21 0.23384732E-01 0.44968813E+03</pdfrwt>
<totfact> 0.69821339E+04</totfact>
</mgrwt>
</event>
<event>
 7    0  0.4707675E-002  0.4493828E+03  0.7546771E-02  0.1027906E+00
         21   -1    0    0  502  501  0.00000000000E+00  0.00000000000E+00  0.94418373389E+02  0.94418373389E+02  0.00000000000E+00 0. -1.
         21   -1    0    0  501  502 -0.00000000000E+00 -0.00000000000E+00 -0.53470760432E+03  0.53470760432E+03  0.00000000000E+00 0. -1.
      99926    2    1    2    0    0 -0.14210854715E-13  0.00000000000E+00 -0.44028923093E+03  0.62912597771E+03  0.44938278667E+03 0.  0.
      99925    2    3    3    0    0 -0.97502246555E+02  0.59063636910E+01 -0.34232368474E+03  0.44261504089E+03  0.26302280522E+03 0.  0.
         25    1    4    4    0    0 -0.94828911218E+01  0.16553906592E+02 -0.13914600790E+03  0.18807731565E+03  0.12509000000E+03 0.  0.
         25    1    4    4    0    0 -0.88019355433E+02 -0.10647542901E+02 -0.20317767684E+03  0.25453772524E+03  0.12509000000E+03 0.  0.
         25    1    3    3    0    0  0.97502246555E+02 -0.59063636910E+01 -0.97965546189E+02  0.18651093683E+03  0.12509000000E+03 0.  0.
<mgrwt>
<rscale>  2 0.44938279E+03</rscale>
<asrwt>0</asrwt>
<pdfrwt beam="1">  1       21 0.13885055E-01 0.44938279E+03</pdfrwt>
<pdfrwt beam="2">  1       21 0.78633470E-01 0.44938279E+03</pdfrwt>
<totfact> 0.59515842E+04</totfact>
</mgrwt>
</event>
<event>
 7    0  0.4707675E-002  0.4540281E+03  0.7546771E-02  0.1026528E+00
         21   -1    0    0  502  501  0.00000000000E+00  0.00000000000E+00  0.36310758172E+03  0.36310758172E+03  0.00000000000E+00 0. -1.
         21   -1    0    0  501  502 -0.00000000000E+00 -0.00000000000E+00 -0.14192867389E+03  0.14192867389E+03  0.00000000000E+00 0. -1.
      99926    2    1    2    0    0 -0.35527136788E-14  0.00000000000E+00  0.22117890783E+03  0.50503625561E+03  0.45402809408E+03 0.  0.
      99925    2    3    3    0    0 -0.31162830681E+02  0.42429887360E+02  0.24960401076E+03  0.36637511493E+03  0.26297746158E+03 0.  0.
         25    1    4    4    0    0  0.16595957480E+02 -0.67709278094E+00  0.13637618006E+03  0.18580057817E+03  0.12509000000E+03 0.  0.
         25    1    3    3    0    0  0.31162830681E+02 -0.42429887360E+02 -0.28425102926E+02  0.13866114068E+03  0.12509000000E+03 0.  0.
         25    1    4    4    0    0 -0.47758788161E+02  0.43106980141E+02  0.11322783070E+03  0.18057453677E+03  0.12509000000E+03 0.  0.
<mgrwt>
<rscale>  2 0.45402809E+03</rscale>
<asrwt>0</asrwt>
<pdfrwt beam="1">  1       21 0.53398174E-01 0.45402809E+03</pdfrwt>
<pdfrwt beam="2">  1       21 0.20871864E-01 0.45402809E+03</pdfrwt>
<totfact> 0.65421498E+04</totfact>
</mgrwt>
</event>
<event>
 7    0  0.4707675E-002  0.4568701E+03  0.7546771E-02  0.1025693E+00
         21   -1    0    0  502  501  0.00000000000E+00  0.00000000000E+00  0.49971645176E+03  0.49971645176E+03  0.00000000000E+00 0. -1.
         21   -1    0    0  501  502 -0.00000000000E+00 -0.00000000000E+00 -0.10442435441E+03  0.10442435441E+03  0.00000000000E+00 0. -1.
      99926    2    1    2    0    0  0.00000000000E+00 -0.14210854715E-13  0.39529209735E+03  0.60414080617E+03  0.45687008159E+03 0.  0.
      99925    2    3    3    0    0 -0.21357119886E+02  0.11124321101E+03  0.22430430061E+03  0.36390027399E+03  0.26321058408E+03 0.  0.
         25    1    4    4    0    0  0.22432978337E+02  0.45721448701E+02  0.13611202312E+03  0.19174900346E+03  0.12509000000E+03 0.  0.
         25    1    3    3    0    0  0.21357119886E+02 -0.11124321101E+03  0.17098779675E+03  0.24024053218E+03  0.12509000000E+03 0.  0.
         25    1    4    4    0    0 -0.43790098223E+02  0.65521762311E+02  0.88192277486E+02  0.17215127054E+03  0.12509000000E+03 0.  0.
<mgrwt>
<rscale>  2 0.45687008E+03</rscale>
<asrwt>0</asrwt>
<pdfrwt beam="1">  1       21 0.73487713E-01 0.45687008E+03</pdfrwt>
<pdfrwt beam="2">  1       21 0.15356523E-01 0.45687008E+03</pdfrwt>
<totfact> 0.57568844E+04</totfact>
</mgrwt>
</event>
<event>
 7    0  0.4707675E-002  0.4529765E+03  0.7546771E-02  0.1026838E+00
         21   -1    0    0  502  501  0.00000000000E+00  0.00000000000E+00  0.67747966765E+03  0.67747966765E+03  0.00000000000E+00 0. -1.
         21   -1    0    0  501  502 -0.00000000000E+00 -0.00000000000E+00 -0.75717285199E+02  0.75717285199E+02  0.00000000000E+00 0. -1.
      99926    2    1    2    0    0  0.71054273576E-14  0.14210854715E-13  0.60176238245E+03  0.75319695284E+03  0.45297647273E+03 0.  0.
      99925    2    3    3    0    0 -0.57178468438E+02 -0.78726254726E+02  0.46891356046E+03  0.54640353409E+03  0.26307735450E+03 0.  0.
         25    1    4    4    0    0 -0.16502933827E+02 -0.42915427571E+01  0.17347377129E+03  0.21454934535E+03  0.12509000000E+03 0.  0.
         25    1    3    3    0    0  0.57178468438E+02  0.78726254726E+02  0.13284882199E+03  0.20679341875E+03  0.12509000000E+03 0.  0.
         25    1    4    4    0    0 -0.40675534612E+02 -0.74434711968E+02  0.29543978917E+03  0.33185418875E+03  0.12509000000E+03 0.  0.
<mgrwt>
<rscale>  2 0.45297647E+03</rscale>
<asrwt>0</asrwt>
<pdfrwt beam="1">  1       21 0.99629360E-01 0.45297647E+03</pdfrwt>
<pdfrwt beam="2">  1       21 0.11134895E-01 0.45297647E+03</pdfrwt>
<totfact> 0.50912897E+04</totfact>
</mgrwt>
</event>
<event>
 7    0  0.4707675E-002  0.4578505E+03  0.7546771E-02  0.1025406E+00
         21   -1    0    0  502  501  0.00000000000E+00  0.00000000000E+00  0.48533374796E+03  0.48533374796E+03  0.00000000000E+00 0. -1.
         21   -1    0    0  501  502 -0.00000000000E+00 -0.00000000000E+00 -0.10798088762E+03  0.10798088762E+03  0.00000000000E+00 0. -1.
      99926    2    1    2    0    0  0.00000000000E+00  0.17763568394E-14  0.37735286033E+03  0.59331463558E+03  0.45785049481E+03 0.  0.
      99925    2    3    3    0    0  0.88057336874E+02  0.93192589999E+01  0.14053479684E+03  0.31123087770E+03  0.26319894936E+03 0.  0.
         25    1    4    4    0    0  0.73629688453E+02 -0.24339880971E+01  0.42645901795E+02  0.15130577107E+03  0.12509000000E+03 0.  0.
         25    1    4    4    0    0  0.14427648421E+02  0.11753247097E+02  0.97888895048E+02  0.15992510663E+03  0.12509000000E+03 0.  0.
         25    1    3    3    0    0 -0.88057336874E+02 -0.93192589999E+01  0.23681806349E+03  0.28208375788E+03  0.12509000000E+03 0.  0.
<mgrwt>
<rscale>  2 0.45785049E+03</rscale>
<asrwt>0</asrwt>
<pdfrwt beam="1">  1       21 0.71372609E-01 0.45785049E+03</pdfrwt>
<pdfrwt beam="2">  1       21 0.15879542E-01 0.45785049E+03</pdfrwt>
<totfact> 0.57779030E+04</totfact>
</mgrwt>
</event>
<event>
 7    0  0.4707675E-002  0.4610613E+03  0.7546771E-02  0.1024474E+00
         21   -1    0    0  502  501  0.00000000000E+00  0.00000000000E+00  0.74255346983E+02  0.74255346983E+02  0.00000000000E+00 0. -1.
         21   -1    0    0  501  502 -0.00000000000E+00 -0.00000000000E+00 -0.71569772303E+03  0.71569772303E+03  0.00000000000E+00 0. -1.
      99926    2    1    2    0    0  0.14210854715E-13  0.00000000000E+00 -0.64144237605E+03  0.78995307001E+03  0.46106130941E+03 0.  0.
      99925    2    3    3    0    0 -0.99726991126E+02 -0.62930652031E+02 -0.37868417914E+03  0.47595447469E+03  0.26310685039E+03 0.  0.
         25    1    4    4    0    0 -0.23889923917E+02 -0.50859322561E+02 -0.14164842500E+03  0.19715269098E+03  0.12509000000E+03 0.  0.
         25    1    3    3    0    0  0.99726991126E+02  0.62930652031E+02 -0.26275819690E+03  0.31399859532E+03  0.12509000000E+03 0.  0.
         25    1    4    4    0    0 -0.75837067209E+02 -0.12071329470E+02 -0.23703575414E+03  0.27880178371E+03  0.12509000000E+03 0.  0.
<mgrwt>
<rscale>  2 0.46106131E+03</rscale>
<asrwt>0</asrwt>
<pdfrwt beam="1">  1       21 0.10919904E-01 0.46106131E+03</pdfrwt>
<pdfrwt beam="2">  1       21 0.10524967E+00 0.46106131E+03</pdfrwt>
<totfact> 0.46025741E+04</totfact>
</mgrwt>
</event>
<event>
 7    0  0.4707675E-002  0.4414701E+03  0.7546771E-02  0.1030297E+00
         21   -1    0    0  502  501  0.00000000000E+00  0.00000000000E+00  0.10430562484E+03  0.10430562484E+03  0.00000000000E+00 0. -1.
         21   -1    0    0  501  502 -0.00000000000E+00 -0.00000000000E+00 -0.46712681591E+03  0.46712681591E+03  0.00000000000E+00 0. -1.
      99926    2    1    2    0    0  0.00000000000E+00 -0.14210854715E-13 -0.36282119107E+03  0.57143244075E+03  0.44147006427E+03 0.  0.
      99925    2    3    3    0    0  0.61594651357E+02 -0.76364433816E+02 -0.25564654082E+03  0.37970518242E+03  0.26305026877E+03 0.  0.
         25    1    4    4    0    0  0.46894535974E+02 -0.77990009138E+02 -0.13588104976E+03  0.20589489264E+03  0.12509000000E+03 0.  0.
         25    1    4    4    0    0  0.14700115383E+02  0.16255753224E+01 -0.11976549106E+03  0.17381028979E+03  0.12509000000E+03 0.  0.
         25    1    3    3    0    0 -0.61594651357E+02  0.76364433816E+02 -0.10717465025E+03  0.19172725833E+03  0.12509000000E+03 0.  0.
<mgrwt>
<rscale>  2 0.44147006E+03</rscale>
<asrwt>0</asrwt>
<pdfrwt beam="1">  1       21 0.15339063E-01 0.44147006E+03</pdfrwt>
<pdfrwt beam="2">  1       21 0.68695118E-01 0.44147006E+03</pdfrwt>
<totfact> 0.67398393E+04</totfact>
</mgrwt>
</event>
<event>
 7    0  0.4707675E-002  0.4517081E+03  0.7546771E-02  0.1027214E+00
         21   -1    0    0  502  501  0.00000000000E+00  0.00000000000E+00  0.53095311604E+03  0.53095311604E+03  0.00000000000E+00 0. -1.
         21   -1    0    0  501  502 -0.00000000000E+00 -0.00000000000E+00 -0.96072602265E+02  0.96072602265E+02  0.00000000000E+00 0. -1.
      99926    2    1    2    0    0  0.00000000000E+00  0.00000000000E+00  0.43488051377E+03  0.62702571830E+03  0.45170808068E+03 0.  0.
      99925    2    3    3    0    0 -0.80398997466E+02 -0.30354604803E+02  0.17876850628E+03  0.32932407351E+03  0.26288926515E+03 0.  0.
         25    1    4    4    0    0 -0.24383032079E+02  0.12625007781E+01  0.44854586273E+02  0.13511316802E+03  0.12509000000E+03 0.  0.
         25    1    3    3    0    0  0.80398997466E+02  0.30354604803E+02  0.25611200750E+03  0.29770164479E+03  0.12509000000E+03 0.  0.
         25    1    4    4    0    0 -0.56015965387E+02 -0.31617105581E+02  0.13391392000E+03  0.19421090550E+03  0.12509000000E+03 0.  0.
<mgrwt>
<rscale>  2 0.45170808E+03</rscale>
<asrwt>0</asrwt>
<pdfrwt beam="1">  1       21 0.78081339E-01 0.45170808E+03</pdfrwt>
<pdfrwt beam="2">  1       21 0.14128324E-01 0.45170808E+03</pdfrwt>
<totfact> 0.58551749E+04</totfact>
</mgrwt>
</event>
<event>
 7    0  0.4707675E-002  0.4422829E+03  0.7546771E-02  0.1030049E+00
         21   -1    0    0  502  501  0.00000000000E+00  0.00000000000E+00  0.66304286177E+03  0.66304286177E+03  0.00000000000E+00 0. -1.
         21   -1    0    0  501  502 -0.00000000000E+00 -0.00000000000E+00 -0.73756221758E+02  0.73756221758E+02  0.00000000000E+00 0. -1.
      99926    2    1    2    0    0 -0.14210854715E-13  0.00000000000E+00  0.58928664001E+03  0.73679908353E+03  0.44228287938E+03 0.  0.
      99925    2    3    3    0    0  0.99237667429E+02 -0.50215829258E+01  0.34825950612E+03  0.44763664077E+03  0.26309798103E+03 0.  0.
         25    1    4    4    0    0  0.67084575705E+02  0.22263908070E+02  0.13700306811E+03  0.19852800979E+03  0.12509000000E+03 0.  0.
         25    1    4    4    0    0  0.32153091724E+02 -0.27285490996E+02  0.21125643801E+03  0.24910863098E+03  0.12509000000E+03 0.  0.
         25    1    3    3    0    0 -0.99237667429E+02  0.50215829258E+01  0.24102713389E+03  0.28916244276E+03  0.12509000000E+03 0.  0.
<mgrwt>
<rscale>  2 0.44228288E+03</rscale>
<asrwt>0</asrwt>
<pdfrwt beam="1">  1       21 0.97506300E-01 0.44228288E+03</pdfrwt>
<pdfrwt beam="2">  1       21 0.10846504E-01 0.44228288E+03</pdfrwt>
<totfact> 0.56379147E+04</totfact>
</mgrwt>
</event>
<event>
 7    0  0.4707675E-002  0.4537051E+03  0.7546771E-02  0.1026623E+00
         21   -1    0    0  502  501  0.00000000000E+00  0.00000000000E+00  0.66741664915E+02  0.66741664915E+02  0.00000000000E+00 0.  1.
         21   -1    0    0  501  502 -0.00000000000E+00 -0.00000000000E+00 -0.77106386182E+03  0.77106386182E+03  0.00000000000E+00 0.  1.
      99926    2    1    2    0    0  0.14210854715E-13  0.00000000000E+00 -0.70432219691E+03  0.83780552673E+03  0.45370512844E+03 0.  0.
      99925    2    3    3    0    0 -0.79341247319E+02  0.69638626378E+02 -0.37407133239E+03  0.46921671325E+03  0.26285050974E+03 0.  0.
         25    1    4    4    0    0 -0.67576525197E+02  0.54114769974E+02 -0.24525989935E+03  0.28860859554E+03  0.12509000000E+03 0.  0.
         25    1    3    3    0    0  0.79341247319E+02 -0.69638626378E+02 -0.33025086452E+03  0.36858881348E+03  0.12509000000E+03 0.  0.
         25    1    4    4    0    0 -0.11764722123E+02  0.15523856404E+02 -0.12881143304E+03  0.18060811772E+03  0.12509000000E+03 0.  0.
<mgrwt>
<rscale>  2 0.45370513E+03</rscale>
<asrwt>0</asrwt>
<pdfrwt beam="1">  1       21 0.98149505E-02 0.45370513E+03</pdfrwt>
<pdfrwt beam="2">  1       21 0.11339175E+00 0.45370513E+03</pdfrwt>
<totfact> 0.46460092E+04</totfact>
</mgrwt>
</event>
<event>
 7    0  0.4707675E-002  0.4570192E+03  0.7546771E-02  0.1025649E+00
         21   -1    0    0  502  501  0.00000000000E+00  0.00000000000E+00  0.38926613245E+02  0.38926613245E+02  0.00000000000E+00 0.  1.
         21   -1    0    0  501  502 -0.00000000000E+00 -0.00000000000E+00 -0.13414120020E+04  0.13414120020E+04  0.00000000000E+00 0.  1.
      99926    2    1    2    0    0  0.00000000000E+00 -0.71054273576E-14 -0.13024853888E+04  0.13803386153E+04  0.45701915148E+03 0.  0.
      99925    2    3    3    0    0  0.31095122087E+02  0.47984764058E+02 -0.51584102593E+03  0.58176093846E+03  0.26283907868E+03 0.  0.
         25    1    3    3    0    0 -0.31095122087E+02 -0.47984764058E+02 -0.78664436286E+03  0.79857767682E+03  0.12509000000E+03 0.  0.
         25    1    4    4    0    0 -0.14368260172E+02 -0.43051057116E+01 -0.24054739340E+03  0.27154288318E+03  0.12509000000E+03 0.  0.
         25    1    4    4    0    0  0.45463382260E+02  0.52289869770E+02 -0.27529363253E+03  0.31021805528E+03  0.12509000000E+03 0.  0.
<mgrwt>
<rscale>  2 0.45701915E+03</rscale>
<asrwt>0</asrwt>
<pdfrwt beam="1">  1       21 0.57245009E-02 0.45701915E+03</pdfrwt>
<pdfrwt beam="2">  1       21 0.19726651E+00 0.45701915E+03</pdfrwt>
<totfact> 0.26443276E+04</totfact>
</mgrwt>
</event>
<event>
 7    0  0.4707675E-002  0.4302871E+03  0.7546771E-02  0.1033769E+00
         21   -1    0    0  502  501  0.00000000000E+00  0.00000000000E+00  0.86471239197E+03  0.86471239197E+03  0.00000000000E+00 0.  1.
         21   -1    0    0  501  502 -0.00000000000E+00 -0.00000000000E+00 -0.53528495263E+02  0.53528495263E+02  0.00000000000E+00 0.  1.
      99926    2    1    2    0    0 -0.71054273576E-14  0.00000000000E+00  0.81118389671E+03  0.91824088723E+03  0.43028712822E+03 0.  0.
      99925    2    3    3    0    0  0.36333307093E+02  0.72069638646E+02  0.59761597865E+03  0.65790858855E+03  0.26302986697E+03 0.  0.
         25    1    4    4    0    0  0.27476343060E+02  0.38746278643E+02  0.39741885781E+03  0.41933933774E+03  0.12509000000E+03 0.  0.
         25    1    4    4    0    0  0.88569640337E+01  0.33323360003E+02  0.20019712085E+03  0.23856925080E+03  0.12509000000E+03 0.  0.
         25    1    3    3    0    0 -0.36333307093E+02 -0.72069638646E+02  0.21356791805E+03  0.26033229869E+03  0.12509000000E+03 0.  0.
<mgrwt>
<rscale>  2 0.43028713E+03</rscale>
<asrwt>0</asrwt>
<pdfrwt beam="1">  1       21 0.12716358E+00 0.43028713E+03</pdfrwt>
<pdfrwt beam="2">  1       21 0.78718381E-02 0.43028713E+03</pdfrwt>
<totfact> 0.51758881E+04</totfact>
</mgrwt>
</event>
<event>
 7    0  0.4707675E-002  0.4458975E+03  0.7546771E-02  0.1028953E+00
         21   -1    0    0  502  501  0.00000000000E+00  0.00000000000E+00  0.24988146182E+03  0.24988146182E+03  0.00000000000E+00 0. -1.
         21   -1    0    0  501  502 -0.00000000000E+00 -0.00000000000E+00 -0.19891886596E+03  0.19891886596E+03  0.00000000000E+00 0. -1.
      99926    2    1    2    0    0  0.00000000000E+00  0.00000000000E+00  0.50962595857E+02  0.44880032778E+03  0.44589746360E+03 0.  0.
      99925    2    3    3    0    0 -0.33997164006E+02  0.89980365024E+02  0.72834774431E+02  0.28949504367E+03  0.26315433246E+03 0.  0.
         25    1    3    3    0    0  0.33997164006E+02 -0.89980365024E+02 -0.21872178575E+02  0.15930528411E+03  0.12509000000E+03 0.  0.
         25    1    4    4    0    0 -0.26495652472E+02  0.34791124897E+01  0.33315469151E+02  0.13218000003E+03  0.12509000000E+03 0.  0.
         25    1    4    4    0    0 -0.75015115346E+01  0.86501252534E+02  0.39519305281E+02  0.15731504364E+03  0.12509000000E+03 0.  0.
<mgrwt>
<rscale>  2 0.44589746E+03</rscale>
<asrwt>0</asrwt>
<pdfrwt beam="1">  1       21 0.36747274E-01 0.44589746E+03</pdfrwt>
<pdfrwt beam="2">  1       21 0.29252774E-01 0.44589746E+03</pdfrwt>
<totfact> 0.74249869E+04</totfact>
</mgrwt>
</event>
<event>
 7    0  0.4707675E-002  0.4581330E+03  0.7546771E-02  0.1025324E+00
         21   -1    0    0  502  501  0.00000000000E+00  0.00000000000E+00  0.62711017419E+02  0.62711017419E+02  0.00000000000E+00 0. -1.
         21   -1    0    0  501  502 -0.00000000000E+00 -0.00000000000E+00 -0.83671844533E+03  0.83671844533E+03  0.00000000000E+00 0. -1.
      99926    2    1    2    0    0  0.00000000000E+00  0.00000000000E+00 -0.77400742792E+03  0.89942946275E+03  0.45813301562E+03 0.  0.
      99925    2    3    3    0    0  0.43327224911E+02 -0.26127960591E+01 -0.27462605890E+03  0.38279290293E+03  0.26310997546E+03 0.  0.
         25    1    4    4    0    0  0.57939152276E+02 -0.20404836418E+02 -0.14923093269E+03  0.20418296228E+03  0.12509000000E+03 0.  0.
         25    1    3    3    0    0 -0.43327224911E+02  0.26127960591E+01 -0.49938136902E+03  0.51663655982E+03  0.12509000000E+03 0.  0.
         25    1    4    4    0    0 -0.14611927365E+02  0.17792040359E+02 -0.12539512621E+03  0.17860994065E+03  0.12509000000E+03 0.  0.
<mgrwt>
<rscale>  2 0.45813302E+03</rscale>
<asrwt>0</asrwt>
<pdfrwt beam="1">  1       21 0.92222087E-02 0.45813302E+03</pdfrwt>
<pdfrwt beam="2">  1       21 0.12304683E+00 0.45813302E+03</pdfrwt>
<totfact> 0.42213298E+04</totfact>
</mgrwt>
</event>
<event>
 7    0  0.4707675E-002  0.4563048E+03  0.7546771E-02  0.1025858E+00
         21   -1    0    0  502  501  0.00000000000E+00  0.00000000000E+00  0.18054310695E+04  0.18054310695E+04  0.00000000000E+00 0. -1.
         21   -1    0    0  501  502 -0.00000000000E+00 -0.00000000000E+00 -0.28831628333E+02  0.28831628333E+02  0.00000000000E+00 0. -1.
      99926    2    1    2    0    0  0.00000000000E+00  0.00000000000E+00  0.17765994412E+04  0.18342626978E+04  0.45630479979E+03 0.  0.
      99925    2    3    3    0    0 -0.94668433009E+02 -0.22567470191E+02  0.87482596212E+03  0.91866763530E+03  0.26297976583E+03 0.  0.
         25    1    4    4    0    0 -0.42135574479E+02 -0.23036953261E+01  0.30109380020E+03  0.32876389441E+03  0.12509000000E+03 0.  0.
         25    1    4    4    0    0 -0.52532858530E+02 -0.20263774865E+02  0.57373216192E+03  0.58990374089E+03  0.12509000000E+03 0.  0.
         25    1    3    3    0    0  0.94668433009E+02  0.22567470191E+02  0.90177347904E+03  0.91559506252E+03  0.12509000000E+03 0.  0.
<mgrwt>
<rscale>  2 0.45630480E+03</rscale>
<asrwt>0</asrwt>
<pdfrwt beam="1">  1       21 0.26550449E+00 0.45630480E+03</pdfrwt>
<pdfrwt beam="2">  1       21 0.42399465E-02 0.45630480E+03</pdfrwt>
<totfact> 0.16443116E+04</totfact>
</mgrwt>
</event>
<event>
 7    0  0.4707675E-002  0.4553578E+03  0.7546771E-02  0.1026136E+00
         21   -1    0    0  502  501  0.00000000000E+00  0.00000000000E+00  0.18618299665E+03  0.18618299665E+03  0.00000000000E+00 0. -1.
         21   -1    0    0  501  502 -0.00000000000E+00 -0.00000000000E+00 -0.27842329511E+03  0.27842329511E+03  0.00000000000E+00 0. -1.
      99926    2    1    2    0    0  0.71054273576E-14 -0.17763568394E-14 -0.92240298459E+02  0.46460629176E+03  0.45535780842E+03 0.  0.
      99925    2    3    3    0    0 -0.36954369115E+02  0.13362635325E+02  0.50587498339E+02  0.27072108589E+03  0.26303350725E+03 0.  0.
         25    1    4    4    0    0  0.21309175653E+02  0.16222220080E+02  0.23508123896E+02  0.13006683428E+03  0.12509000000E+03 0.  0.
         25    1    3    3    0    0  0.36954369115E+02 -0.13362635325E+02 -0.14282779680E+03  0.19388520588E+03  0.12509000000E+03 0.  0.
         25    1    4    4    0    0 -0.58263544769E+02 -0.28595847545E+01  0.27079374443E+02  0.14065425160E+03  0.12509000000E+03 0.  0.
<mgrwt>
<rscale>  2 0.45535781E+03</rscale>
<asrwt>0</asrwt>
<pdfrwt beam="1">  1       21 0.27379853E-01 0.45535781E+03</pdfrwt>
<pdfrwt beam="2">  1       21 0.40944602E-01 0.45535781E+03</pdfrwt>
<totfact> 0.67646877E+04</totfact>
</mgrwt>
</event>
<event>
 6    0  0.4707675E-002  0.4491993E+03  0.7546771E-02  0.1027961E+00
         21   -1    0    0  502  501  0.00000000000E+00  0.00000000000E+00  0.25918348780E+03  0.25918348780E+03  0.00000000000E+00 0. -1.
         21   -1    0    0  501  502 -0.00000000000E+00 -0.00000000000E+00 -0.19463046464E+03  0.19463046464E+03  0.00000000000E+00 0. -1.
      99926    2    1    2    0    0  0.00000000000E+00  0.00000000000E+00  0.64553023160E+02  0.45381395245E+03  0.44919929946E+03 0.  0.
         25    1    3    3    0    0  0.19887524445E+02 -0.14895838590E+02  0.24007770309E+02  0.12977396030E+03  0.12509000000E+03 0.  0.
         25    1    3    3    0    0 -0.57526664068E+02 -0.37116468992E+02 -0.56300065993E+02  0.15331064829E+03  0.12509000000E+03 0.  0.
         25    1    3    3    0    0  0.37639139623E+02  0.52012307582E+02  0.96845318844E+02  0.17072934386E+03  0.12509000000E+03 0.  0.
<mgrwt>
<rscale>  2 0.44919930E+03</rscale>
<asrwt>0</asrwt>
<pdfrwt beam="1">  1       21 0.38115219E-01 0.44919930E+03</pdfrwt>
<pdfrwt beam="2">  1       21 0.28622127E-01 0.44919930E+03</pdfrwt>
<totfact> 0.71902785E+04</totfact>
</mgrwt>
</event>
<event>
 7    0  0.4707675E-002  0.4506136E+03  0.7546771E-02  0.1027539E+00
         21   -1    0    0  502  501  0.00000000000E+00  0.00000000000E+00  0.11592518003E+04  0.11592518003E+04  0.00000000000E+00 0. -1.
         21   -1    0    0  501  502 -0.00000000000E+00 -0.00000000000E+00 -0.43789574528E+02  0.43789574528E+02  0.00000000000E+00 0. -1.
      99926    2    1    2    0    0  0.00000000000E+00 -0.14210854715E-13  0.11154622258E+04  0.12030413748E+04  0.45061355109E+03 0.  0.
      99925    2    3    3    0    0 -0.68104935275E+02  0.64019810501E+02  0.85416352011E+03  0.89863812251E+03  0.26309378136E+03 0.  0.
         25    1    3    3    0    0  0.68104935275E+02 -0.64019810501E+02  0.26129870568E+03  0.30440325234E+03  0.12509000000E+03 0.  0.
         25    1    4    4    0    0 -0.55275616953E+02  0.46529613430E+01  0.35473955638E+03  0.38021665513E+03  0.12509000000E+03 0.  0.
         25    1    4    4    0    0 -0.12829318322E+02  0.59366849158E+02  0.49942396373E+03  0.51842146738E+03  0.12509000000E+03 0.  0.
<mgrwt>
<rscale>  2 0.45061355E+03</rscale>
<asrwt>0</asrwt>
<pdfrwt beam="1">  1       21 0.17047819E+00 0.45061355E+03</pdfrwt>
<pdfrwt beam="2">  1       21 0.64396441E-02 0.45061355E+03</pdfrwt>
<totfact> 0.33178984E+04</totfact>
</mgrwt>
</event>
<event>
 7    0  0.4707675E-002  0.4594091E+03  0.7546771E-02  0.1024953E+00
         21   -1    0    0  502  501  0.00000000000E+00  0.00000000000E+00  0.38174563952E+03  0.38174563952E+03  0.00000000000E+00 0. -1.
         21   -1    0    0  501  502 -0.00000000000E+00 -0.00000000000E+00 -0.13821815051E+03  0.13821815051E+03  0.00000000000E+00 0. -1.
      99926    2    1    2    0    0  0.00000000000E+00  0.00000000000E+00  0.24352748901E+03  0.51996379003E+03  0.45940908246E+03 0.  0.
      99925    2    3    3    0    0 -0.80618086422E+02 -0.26685625329E+02  0.24419172492E+03  0.36877070895E+03  0.26296547075E+03 0.  0.
         25    1    4    4    0    0 -0.72058707727E+02  0.11516589091E+02  0.13860422532E+03  0.20045879517E+03  0.12509000000E+03 0.  0.
         25    1    3    3    0    0  0.80618086422E+02  0.26685625329E+02 -0.66423590967E+00  0.15119308108E+03  0.12509000000E+03 0.  0.
         25    1    4    4    0    0 -0.85593786960E+01 -0.38202214420E+02  0.10558749960E+03  0.16831191379E+03  0.12509000000E+03 0.  0.
<mgrwt>
<rscale>  2 0.45940908E+03</rscale>
<asrwt>0</asrwt>
<pdfrwt beam="1">  1       21 0.56139064E-01 0.45940908E+03</pdfrwt>
<pdfrwt beam="2">  1       21 0.20326199E-01 0.45940908E+03</pdfrwt>
<totfact> 0.61702725E+04</totfact>
</mgrwt>
</event>
<event>
 7    0  0.4707675E-002  0.4528788E+03  0.7546771E-02  0.1026867E+00
         21   -1    0    0  502  501  0.00000000000E+00  0.00000000000E+00  0.37778054730E+03  0.37778054730E+03  0.00000000000E+00 0. -1.
         21   -1    0    0  501  502 -0.00000000000E+00 -0.00000000000E+00 -0.13572640976E+03  0.13572640976E+03  0.00000000000E+00 0. -1.
      99926    2    1    2    0    0  0.00000000000E+00 -0.14210854715E-13  0.24205413755E+03  0.51350695706E+03  0.45287878008E+03 0.  0.
      99925    2    3    3    0    0  0.74756265462E+02 -0.76564837655E+02  0.11875530064E+03  0.30783541096E+03  0.26307631064E+03 0.  0.
         25    1    4    4    0    0  0.54463731767E+02 -0.25830187258E+02  0.97544059998E+02  0.16969339525E+03  0.12509000000E+03 0.  0.
         25    1    4    4    0    0  0.20292533694E+02 -0.50734650397E+02  0.21211240642E+02  0.13814201571E+03  0.12509000000E+03 0.  0.
         25    1    3    3    0    0 -0.74756265462E+02  0.76564837655E+02  0.12329883691E+03  0.20567154609E+03  0.12509000000E+03 0.  0.
<mgrwt>
<rscale>  2 0.45287878E+03</rscale>
<asrwt>0</asrwt>
<pdfrwt beam="1">  1       21 0.55555963E-01 0.45287878E+03</pdfrwt>
<pdfrwt beam="2">  1       21 0.19959766E-01 0.45287878E+03</pdfrwt>
<totfact> 0.65426149E+04</totfact>
</mgrwt>
</event>
<event>
 7    0  0.4707675E-002  0.4501926E+03  0.7546771E-02  0.1027665E+00
         21   -1    0    0  502  501  0.00000000000E+00  0.00000000000E+00  0.10032272911E+04  0.10032272911E+04  0.00000000000E+00 0.  1.
         21   -1    0    0  501  502 -0.00000000000E+00 -0.00000000000E+00 -0.50505344265E+02  0.50505344265E+02  0.00000000000E+00 0.  1.
      99926    2    1    2    0    0  0.00000000000E+00  0.17763568394E-14  0.95272194684E+03  0.10537326354E+04  0.45019257974E+03 0.  0.
      99925    2    3    3    0    0 -0.10654186324E+03 -0.90910027007E+01  0.64587239197E+03  0.70554019953E+03  0.26306275200E+03 0.  0.
         25    1    3    3    0    0  0.10654186324E+03  0.90910027007E+01  0.30684955487E+03  0.34819243584E+03  0.12509000000E+03 0.  0.
         25    1    4    4    0    0 -0.91003448158E+02 -0.22901777643E+02  0.33044892623E+03  0.36558189226E+03  0.12509000000E+03 0.  0.
         25    1    4    4    0    0 -0.15538415084E+02  0.13810774943E+02  0.31542346574E+03  0.33995830728E+03  0.12509000000E+03 0.  0.
<mgrwt>
<rscale>  2 0.45019258E+03</rscale>
<asrwt>0</asrwt>
<pdfrwt beam="1">  1       21 0.14753341E+00 0.45019258E+03</pdfrwt>
<pdfrwt beam="2">  1       21 0.74272572E-02 0.45019258E+03</pdfrwt>
<totfact> 0.38567642E+04</totfact>
</mgrwt>
</event>
<event>
 7    0  0.4707675E-002  0.4490069E+03  0.7546771E-02  0.1028019E+00
         21   -1    0    0  502  501  0.00000000000E+00  0.00000000000E+00  0.53857318368E+03  0.53857318368E+03  0.00000000000E+00 0.  1.
         21   -1    0    0  501  502 -0.00000000000E+00 -0.00000000000E+00 -0.93583951580E+02  0.93583951580E+02  0.00000000000E+00 0.  1.
      99926    2    1    2    0    0  0.00000000000E+00  0.00000000000E+00  0.44498923210E+03  0.63215713525E+03  0.44900693421E+03 0.  0.
      99925    2    3    3    0    0 -0.19310027171E+02  0.88850903737E+02  0.36215789045E+03  0.45672652361E+03  0.26300840197E+03 0.  0.
         25    1    4    4    0    0 -0.10679483052E+02  0.27301923968E+02  0.23504105920E+03  0.26786424550E+03  0.12509000000E+03 0.  0.
         25    1    4    4    0    0 -0.86305441189E+01  0.61548979769E+02  0.12711683126E+03  0.18886227811E+03  0.12509000000E+03 0.  0.
         25    1    3    3    0    0  0.19310027171E+02 -0.88850903737E+02  0.82831341640E+02  0.17543061165E+03  0.12509000000E+03 0.  0.
<mgrwt>
<rscale>  2 0.44900693E+03</rscale>
<asrwt>0</asrwt>
<pdfrwt beam="1">  1       21 0.79201938E-01 0.44900693E+03</pdfrwt>
<pdfrwt beam="2">  1       21 0.13762346E-01 0.44900693E+03</pdfrwt>
<totfact> 0.59506667E+04</totfact>
</mgrwt>
</event>
<event>
 7    0  0.4707675E-002  0.4263398E+03  0.7546771E-02  0.1035022E+00
         21   -1    0    0  502  501  0.00000000000E+00  0.00000000000E+00  0.94627850480E+02  0.94627850480E+02  0.00000000000E+00 0. -1.
         21   -1    0    0  501  502 -0.00000000000E+00 -0.00000000000E+00 -0.48021167985E+03  0.48021167985E+03  0.00000000000E+00 0. -1.
      99926    2    1    2    0    0 -0.35527136788E-14  0.00000000000E+00 -0.38558382937E+03  0.57483953033E+03  0.42633976610E+03 0.  0.
      99925    2    3    3    0    0  0.30182028590E+02 -0.16956338577E+02 -0.14715709954E+03  0.30337445731E+03  0.26302543059E+03 0.  0.
         25    1    4    4    0    0  0.27137391016E+02 -0.29170744936E+02 -0.37456294124E+02  0.13652052015E+03  0.12509000000E+03 0.  0.
         25    1    4    4    0    0  0.30446375743E+01  0.12214406359E+02 -0.10970080541E+03  0.16685393717E+03  0.12509000000E+03 0.  0.
         25    1    3    3    0    0 -0.30182028590E+02  0.16956338577E+02 -0.23842672983E+03  0.27146507301E+03  0.12509000000E+03 0.  0.
<mgrwt>
<rscale>  2 0.42633977E+03</rscale>
<asrwt>0</asrwt>
<pdfrwt beam="1">  1       21 0.13915860E-01 0.42633977E+03</pdfrwt>
<pdfrwt beam="2">  1       21 0.70619365E-01 0.42633977E+03</pdfrwt>
<totfact> 0.76083603E+04</totfact>
</mgrwt>
</event>
<event>
 7    0  0.4707675E-002  0.4461263E+03  0.7546771E-02  0.1028884E+00
         21   -1    0    0  502  501  0.00000000000E+00  0.00000000000E+00  0.44953369459E+02  0.44953369459E+02  0.00000000000E+00 0.  1.
         21   -1    0    0  501  502 -0.00000000000E+00 -0.00000000000E+00 -0.11068617079E+04  0.11068617079E+04  0.00000000000E+00 0.  1.
      99926    2    1    2    0    0  0.00000000000E+00  0.00000000000E+00 -0.10619083384E+04  0.11518150774E+04  0.44612627493E+03 0.  0.
      99925    2    3    3    0    0  0.95574066775E+02 -0.42359918021E+02 -0.68143654951E+03  0.73788868877E+03  0.26304976928E+03 0.  0.
         25    1    4    4    0    0  0.35818665232E+02  0.47660720018E+01 -0.39974417144E+03  0.42041479865E+03  0.12509000000E+03 0.  0.
         25    1    4    4    0    0  0.59755401543E+02 -0.47125990023E+02 -0.28169237806E+03  0.31747389012E+03  0.12509000000E+03 0.  0.
         25    1    3    3    0    0 -0.95574066775E+02  0.42359918021E+02 -0.38047178893E+03  0.41392638858E+03  0.12509000000E+03 0.  0.
<mgrwt>
<rscale>  2 0.44612627E+03</rscale>
<asrwt>0</asrwt>
<pdfrwt beam="1">  1       21 0.66107894E-02 0.44612627E+03</pdfrwt>
<pdfrwt beam="2">  1       21 0.16277379E+00 0.44612627E+03</pdfrwt>
<totfact> 0.36158472E+04</totfact>
</mgrwt>
</event>
<event>
 7    0  0.4707675E-002  0.4618325E+03  0.7546771E-02  0.1024251E+00
         21   -1    0    0  502  501  0.00000000000E+00  0.00000000000E+00  0.16131284406E+03  0.16131284406E+03  0.00000000000E+00 0. -1.
         21   -1    0    0  501  502 -0.00000000000E+00 -0.00000000000E+00 -0.33055212611E+03  0.33055212611E+03  0.00000000000E+00 0. -1.
      99926    2    1    2    0    0  0.00000000000E+00  0.00000000000E+00 -0.16923928205E+03  0.49186497018E+03  0.46183245262E+03 0.  0.
      99925    2    3    3    0    0 -0.85734593260E+02  0.83200553917E+02 -0.99363100764E+02  0.30530950533E+03  0.26280813457E+03 0.  0.
         25    1    4    4    0    0 -0.77973740628E+02  0.27911404168E+02 -0.68353047374E+02  0.16485932760E+03  0.12509000000E+03 0.  0.
         25    1    4    4    0    0 -0.77608526321E+01  0.55289149749E+02 -0.31010053390E+02  0.14045017773E+03  0.12509000000E+03 0.  0.
         25    1    3    3    0    0  0.85734593260E+02 -0.83200553917E+02 -0.69876181285E+02  0.18655546485E+03  0.12509000000E+03 0.  0.
<mgrwt>
<rscale>  2 0.46183245E+03</rscale>
<asrwt>0</asrwt>
<pdfrwt beam="1">  1       21 0.23722477E-01 0.46183245E+03</pdfrwt>
<pdfrwt beam="2">  1       21 0.48610606E-01 0.46183245E+03</pdfrwt>
<totfact> 0.62392572E+04</totfact>
</mgrwt>
</event>
<event>
 7    0  0.4707675E-002  0.4457896E+03  0.7546771E-02  0.1028985E+00
         21   -1    0    0  502  501  0.00000000000E+00  0.00000000000E+00  0.41559392736E+03  0.41559392736E+03  0.00000000000E+00 0. -1.
         21   -1    0    0  501  502 -0.00000000000E+00 -0.00000000000E+00 -0.11954478620E+03  0.11954478620E+03  0.00000000000E+00 0. -1.
      99926    2    1    2    0    0  0.35527136788E-14  0.00000000000E+00  0.29604914116E+03  0.53513871356E+03  0.44578957903E+03 0.  0.
      99925    2    3    3    0    0  0.17100764174E+02 -0.92199932784E+02  0.24260129682E+03  0.36991933242E+03  0.26304307544E+03 0.  0.
         25    1    3    3    0    0 -0.17100764174E+02  0.92199932784E+02  0.53447844338E+02  0.16521938114E+03  0.12509000000E+03 0.  0.
         25    1    4    4    0    0 -0.80085031785E+01 -0.65364365871E+01  0.10508041227E+03  0.16369563913E+03  0.12509000000E+03 0.  0.
         25    1    4    4    0    0  0.25109267352E+02 -0.85663496197E+02  0.13752088455E+03  0.20622369330E+03  0.12509000000E+03 0.  0.
<mgrwt>
<rscale>  2 0.44578958E+03</rscale>
<asrwt>0</asrwt>
<pdfrwt beam="1">  1       21 0.61116754E-01 0.44578958E+03</pdfrwt>
<pdfrwt beam="2">  1       21 0.17580116E-01 0.44578958E+03</pdfrwt>
<totfact> 0.67658305E+04</totfact>
</mgrwt>
</event>
<event>
 7    0  0.4707675E-002  0.4554759E+03  0.7546771E-02  0.1026102E+00
         21   -1    0    0  502  501  0.00000000000E+00  0.00000000000E+00  0.10626128963E+03  0.10626128963E+03  0.00000000000E+00 0.  1.
         21   -1    0    0  501  502 -0.00000000000E+00 -0.00000000000E+00 -0.48808535534E+03  0.48808535534E+03  0.00000000000E+00 0.  1.
      99926    2    1    2    0    0  0.14210854715E-13  0.00000000000E+00 -0.38182406571E+03  0.59434664497E+03  0.45547592388E+03 0.  0.
      99925    2    3    3    0    0  0.10077738425E+03  0.50436668535E+02 -0.26003735471E+03  0.38654999008E+03  0.26287169926E+03 0.  0.
         25    1    4    4    0    0  0.91230723675E+02  0.18811448613E+02 -0.15522175123E+03  0.22004139541E+03  0.12509000000E+03 0.  0.
         25    1    4    4    0    0  0.95466605754E+01  0.31625219923E+02 -0.10481560349E+03  0.16650859467E+03  0.12509000000E+03 0.  0.
         25    1    3    3    0    0 -0.10077738425E+03 -0.50436668535E+02 -0.12178671100E+03  0.20779665489E+03  0.12509000000E+03 0.  0.
<mgrwt>
<rscale>  2 0.45547592E+03</rscale>
<asrwt>0</asrwt>
<pdfrwt beam="1">  1       21 0.15626660E-01 0.45547592E+03</pdfrwt>
<pdfrwt beam="2">  1       21 0.71777259E-01 0.45547592E+03</pdfrwt>
<totfact> 0.58806117E+04</totfact>
</mgrwt>
</event>
<event>
 7    0  0.4707675E-002  0.4447665E+03  0.7546771E-02  0.1029294E+00
         21   -1    0    0  502  501  0.00000000000E+00  0.00000000000E+00  0.27090780647E+03  0.27090780647E+03  0.00000000000E+00 0. -1.
         21   -1    0    0  501  502 -0.00000000000E+00 -0.00000000000E+00 -0.18255033531E+03  0.18255033531E+03  0.00000000000E+00 0. -1.
      99926    2    1    2    0    0  0.00000000000E+00  0.00000000000E+00  0.88357471151E+02  0.45345814178E+03  0.44476650463E+03 0.  0.
      99925    2    3    3    0    0 -0.79734598711E+02  0.12786952119E+02  0.12181903983E+03  0.30085310564E+03  0.26296691871E+03 0.  0.
         25    1    4    4    0    0 -0.23992274330E+02  0.43647145838E+02  0.62878427064E+02  0.14859982254E+03  0.12509000000E+03 0.  0.
         25    1    3    3    0    0  0.79734598711E+02 -0.12786952119E+02 -0.33461568680E+02  0.15260503614E+03  0.12509000000E+03 0.  0.
         25    1    4    4    0    0 -0.55742324381E+02 -0.30860193720E+02  0.58940612766E+02  0.15225328311E+03  0.12509000000E+03 0.  0.
<mgrwt>
<rscale>  2 0.44476650E+03</rscale>
<asrwt>0</asrwt>
<pdfrwt beam="1">  1       21 0.39839383E-01 0.44476650E+03</pdfrwt>
<pdfrwt beam="2">  1       21 0.26845637E-01 0.44476650E+03</pdfrwt>
<totfact> 0.74557264E+04</totfact>
</mgrwt>
</event>
<event>
 7    0  0.4707675E-002  0.4514663E+03  0.7546771E-02  0.1027286E+00
         21   -1    0    0  502  501  0.00000000000E+00  0.00000000000E+00  0.63633302496E+03  0.63633302496E+03  0.00000000000E+00 0.  1.
         21   -1    0    0  501  502 -0.00000000000E+00 -0.00000000000E+00 -0.80076695269E+02  0.80076695269E+02  0.00000000000E+00 0.  1.
      99926    2    1    2    0    0  0.00000000000E+00  0.00000000000E+00  0.55625632969E+03  0.71640972023E+03  0.45146625889E+03 0.  0.
      99925    2    3    3    0    0  0.10311690892E+03 -0.33736704804E+02  0.32445733398E+03  0.43154212876E+03  0.26303000811E+03 0.  0.
         25    1    3    3    0    0 -0.10311690892E+03  0.33736704804E+02  0.23179899571E+03  0.28486759147E+03  0.12509000000E+03 0.  0.
         25    1    4    4    0    0  0.49934843837E+02 -0.19008316976E+02  0.22329819194E+03  0.26146585890E+03  0.12509000000E+03 0.  0.
         25    1    4    4    0    0  0.53182065079E+02 -0.14728387829E+02  0.10115914204E+03  0.17007626987E+03  0.12509000000E+03 0.  0.
<mgrwt>
<rscale>  2 0.45146626E+03</rscale>
<asrwt>0</asrwt>
<pdfrwt beam="1">  1       21 0.93578383E-01 0.45146626E+03</pdfrwt>
<pdfrwt beam="2">  1       21 0.11775985E-01 0.45146626E+03</pdfrwt>
<totfact> 0.53492606E+04</totfact>
</mgrwt>
</event>
<event>
 7    0  0.4707675E-002  0.4618610E+03  0.7546771E-02  0.1024243E+00
         21   -1    0    0  502  501  0.00000000000E+00  0.00000000000E+00  0.60005652135E+03  0.60005652135E+03  0.00000000000E+00 0.  1.
         21   -1    0    0  501  502 -0.00000000000E+00 -0.00000000000E+00 -0.88873139076E+02  0.88873139076E+02  0.00000000000E+00 0.  1.
      99926    2    1    2    0    0  0.44408920985E-14  0.71054273576E-14  0.51118338227E+03  0.68892966042E+03  0.46186104696E+03 0.  0.
      99925    2    3    3    0    0 -0.65222635277E+01 -0.47371544075E+02  0.15650730441E+03  0.30981327800E+03  0.26306487372E+03 0.  0.
         25    1    3    3    0    0  0.65222635277E+01  0.47371544075E+02  0.35467607786E+03  0.37911638242E+03  0.12509000000E+03 0.  0.
         25    1    4    4    0    0  0.30845877641E+02 -0.40302899302E+02  0.62369212350E+02  0.14870513982E+03  0.12509000000E+03 0.  0.
         25    1    4    4    0    0 -0.37368141168E+02 -0.70686447730E+01  0.94138092057E+02  0.16110813818E+03  0.12509000000E+03 0.  0.
<mgrwt>
<rscale>  2 0.46186105E+03</rscale>
<asrwt>0</asrwt>
<pdfrwt beam="1">  1       21 0.88243604E-01 0.46186105E+03</pdfrwt>
<pdfrwt beam="2">  1       21 0.13069580E-01 0.46186105E+03</pdfrwt>
<totfact> 0.50712325E+04</totfact>
</mgrwt>
</event>
<event>
 7    0  0.4707675E-002  0.4601147E+03  0.7546771E-02  0.1024748E+00
         21   -1    0    0  502  501  0.00000000000E+00  0.00000000000E+00  0.32896559571E+03  0.32896559571E+03  0.00000000000E+00 0. -1.
         21   -1    0    0  501  502 -0.00000000000E+00 -0.00000000000E+00 -0.16088731888E+03  0.16088731888E+03  0.00000000000E+00 0. -1.
      99926    2    1    2    0    0  0.00000000000E+00  0.00000000000E+00  0.16807827683E+03  0.48985291459E+03  0.46011473656E+03 0.  0.
      99925    2    3    3    0    0  0.41093070042E+02  0.10667741162E+03  0.74815275540E+02  0.29642539312E+03  0.26306268773E+03 0.  0.
         25    1    3    3    0    0 -0.41093070042E+02 -0.10667741162E+03  0.93263001286E+02  0.19342752148E+03  0.12509000000E+03 0.  0.
         25    1    4    4    0    0  0.20282393276E+02  0.95698243231E+02  0.52126854239E+02  0.16713541297E+03  0.12509000000E+03 0.  0.
         25    1    4    4    0    0  0.20810676766E+02  0.10979168392E+02  0.22688421301E+02  0.12928998015E+03  0.12509000000E+03 0.  0.
<mgrwt>
<rscale>  2 0.46011474E+03</rscale>
<asrwt>0</asrwt>
<pdfrwt beam="1">  1       21 0.48377294E-01 0.46011474E+03</pdfrwt>
<pdfrwt beam="2">  1       21 0.23659900E-01 0.46011474E+03</pdfrwt>
<totfact> 0.63376898E+04</totfact>
</mgrwt>
</event>
<event>
 7    0  0.4707675E-002  0.4537238E+03  0.7546771E-02  0.1026617E+00
         21   -1    0    0  502  501  0.00000000000E+00  0.00000000000E+00  0.16209271318E+03  0.16209271318E+03  0.00000000000E+00 0.  1.
         21   -1    0    0  501  502 -0.00000000000E+00 -0.00000000000E+00 -0.31751159400E+03  0.31751159400E+03  0.00000000000E+00 0.  1.
      99926    2    1    2    0    0  0.00000000000E+00  0.00000000000E+00 -0.15541888082E+03  0.47960430717E+03  0.45372377384E+03 0.  0.
      99925    2    3    3    0    0  0.82097197560E+02  0.40452125519E+02 -0.16619911785E+03  0.32423363453E+03  0.26292390284E+03 0.  0.
         25    1    4    4    0    0  0.72559010078E+02  0.43760587822E+02 -0.72290408842E+02  0.16749092602E+03  0.12509000000E+03 0.  0.
         25    1    3    3    0    0 -0.82097197560E+02 -0.40452125519E+02  0.10780237030E+02  0.15537067264E+03  0.12509000000E+03 0.  0.
         25    1    4    4    0    0  0.95381874820E+01 -0.33084623036E+01 -0.93908709006E+02  0.15674270851E+03  0.12509000000E+03 0.  0.
<mgrwt>
<rscale>  2 0.45372377E+03</rscale>
<asrwt>0</asrwt>
<pdfrwt beam="1">  1       21 0.23837164E-01 0.45372377E+03</pdfrwt>
<pdfrwt beam="2">  1       21 0.46692881E-01 0.45372377E+03</pdfrwt>
<totfact> 0.67409189E+04</totfact>
</mgrwt>
</event>
<event>
 6    0  0.4707675E-002  0.4554151E+03  0.7546771E-02  0.1026119E+00
         21   -1    0    0  502  501  0.00000000000E+00  0.00000000000E+00  0.75521562714E+03  0.75521562714E+03  0.00000000000E+00 0.  1.
         21   -1    0    0  501  502 -0.00000000000E+00 -0.00000000000E+00 -0.68656866067E+02  0.68656866067E+02  0.00000000000E+00 0.  1.
      99926    2    1    2    0    0  0.00000000000E+00  0.71054273576E-14  0.68655876107E+03  0.82387249320E+03  0.45541514320E+03 0.  0.
         25    1    3    3    0    0  0.26981396314E+02  0.65266177020E+01  0.28667746994E+03  0.31400966921E+03  0.12509000000E+03 0.  0.
         25    1    3    3    0    0  0.65254121639E+02  0.51822959938E+02  0.19033619423E+03  0.24252648206E+03  0.12509000000E+03 0.  0.
         25    1    3    3    0    0 -0.92235517954E+02 -0.58349577640E+02  0.20954509690E+03  0.26733634193E+03  0.12509000000E+03 0.  0.
<mgrwt>
<rscale>  2 0.45541514E+03</rscale>
<asrwt>0</asrwt>
<pdfrwt beam="1">  1       21 0.11106112E+00 0.45541514E+03</pdfrwt>
<pdfrwt beam="2">  1       21 0.10096598E-01 0.45541514E+03</pdfrwt>
<totfact> 0.46480123E+04</totfact>
</mgrwt>
</event>
<event>
 7    0  0.4707675E-002  0.4507114E+03  0.7546771E-02  0.1027510E+00
         21   -1    0    0  502  501  0.00000000000E+00  0.00000000000E+00  0.12131455714E+04  0.12131455714E+04  0.00000000000E+00 0. -1.
         21   -1    0    0  501  502 -0.00000000000E+00 -0.00000000000E+00 -0.41862408103E+02  0.41862408103E+02  0.00000000000E+00 0. -1.
      99926    2    1    2    0    0 -0.35527136788E-14  0.14210854715E-13  0.11712831633E+04  0.12550079795E+04  0.45071141543E+03 0.  0.
      99925    2    3    3    0    0 -0.21536626221E+02  0.10723584114E+03  0.72114020878E+03  0.77517515497E+03  0.26246898536E+03 0.  0.
         25    1    4    4    0    0 -0.15252909336E+02  0.91164874205E+02  0.44873271154E+03  0.47492340439E+03  0.12509000000E+03 0.  0.
         25    1    3    3    0    0  0.21536626221E+02 -0.10723584114E+03  0.45014295453E+03  0.47983282454E+03  0.12509000000E+03 0.  0.
         25    1    4    4    0    0 -0.62837168847E+01  0.16070966936E+02  0.27240749724E+03  0.30025175058E+03  0.12509000000E+03 0.  0.
<mgrwt>
<rscale>  2 0.45071142E+03</rscale>
<asrwt>0</asrwt>
<pdfrwt beam="1">  1       21 0.17840374E+00 0.45071142E+03</pdfrwt>
<pdfrwt beam="2">  1       21 0.61562373E-02 0.45071142E+03</pdfrwt>
<totfact> 0.31487930E+04</totfact>
</mgrwt>
</event>
<event>
 7    0  0.4707675E-002  0.4033672E+03  0.7546771E-02  0.1042620E+00
         21   -1    0    0  502  501  0.00000000000E+00  0.00000000000E+00  0.57713733527E+02  0.57713733527E+02  0.00000000000E+00 0.  1.
         21   -1    0    0  501  502 -0.00000000000E+00 -0.00000000000E+00 -0.70479358020E+03  0.70479358020E+03  0.00000000000E+00 0.  1.
      99926    2    1    2    0    0  0.00000000000E+00  0.00000000000E+00 -0.64707984668E+03  0.76250731373E+03  0.40336717209E+03 0.  0.
      99925    2    3    3    0    0 -0.15330635322E+02  0.13733048099E+02 -0.34026687610E+03  0.43053542938E+03  0.26297449303E+03 0.  0.
         25    1    3    3    0    0  0.15330635322E+02 -0.13733048099E+02 -0.30681297057E+03  0.33197188435E+03  0.12509000000E+03 0.  0.
         25    1    4    4    0    0  0.36932786428E+01 -0.12373218839E+02 -0.11276099324E+03  0.16890614716E+03  0.12509000000E+03 0.  0.
         25    1    4    4    0    0 -0.19023913964E+02  0.26106266938E+02 -0.22750588287E+03  0.26162928222E+03  0.12509000000E+03 0.  0.
<mgrwt>
<rscale>  2 0.40336717E+03</rscale>
<asrwt>0</asrwt>
<pdfrwt beam="1">  1       21 0.84873138E-02 0.40336717E+03</pdfrwt>
<pdfrwt beam="2">  1       21 0.10364611E+00 0.40336717E+03</pdfrwt>
<totfact> 0.76105127E+04</totfact>
</mgrwt>
</event>
<event>
 7    0  0.4707675E-002  0.4491033E+03  0.7546771E-02  0.1027990E+00
         21   -1    0    0  502  501  0.00000000000E+00  0.00000000000E+00  0.18926628446E+02  0.18926628446E+02  0.00000000000E+00 0.  1.
         21   -1    0    0  501  502 -0.00000000000E+00 -0.00000000000E+00 -0.26641533951E+04  0.26641533951E+04  0.00000000000E+00 0.  1.
      99926    2    1    2    0    0  0.00000000000E+00  0.88817841970E-15 -0.26452267667E+04  0.26830800236E+04  0.44910329072E+03 0.  0.
      99925    2    3    3    0    0  0.89744948131E+02  0.63287581499E+01 -0.13216125791E+04  0.13505274976E+04  0.26300285846E+03 0.  0.
         25    1    3    3    0    0 -0.89744948131E+02 -0.63287581499E+01 -0.13236141876E+04  0.13325525260E+04  0.12509000000E+03 0.  0.
         25    1    4    4    0    0  0.23652764866E+02  0.15281255831E+02 -0.46904345066E+03  0.48625326402E+03  0.12509000000E+03 0.  0.
         25    1    4    4    0    0  0.66092183265E+02 -0.89524976810E+01 -0.85256912842E+03  0.86427423353E+03  0.12509000000E+03 0.  0.
<mgrwt>
<rscale>  2 0.44910329E+03</rscale>
<asrwt>0</asrwt>
<pdfrwt beam="1">  1       21 0.27833282E-02 0.44910329E+03</pdfrwt>
<pdfrwt beam="2">  1       21 0.39178720E+00 0.44910329E+03</pdfrwt>
<totfact> 0.56907239E+03</totfact>
</mgrwt>
</event>
<event>
 7    0  0.4707675E-002  0.4536510E+03  0.7546771E-02  0.1026639E+00
         21   -1    0    0  502  501  0.00000000000E+00  0.00000000000E+00  0.16340474744E+03  0.16340474744E+03  0.00000000000E+00 0. -1.
         21   -1    0    0  501  502 -0.00000000000E+00 -0.00000000000E+00 -0.31486112337E+03  0.31486112337E+03  0.00000000000E+00 0. -1.
      99926    2    1    2    0    0  0.00000000000E+00  0.00000000000E+00 -0.15145637594E+03  0.47826587081E+03  0.45365097748E+03 0.  0.
      99925    2    3    3    0    0  0.35276491199E+02  0.35275119397E+02 -0.20114287599E+03  0.33472137852E+03  0.26285201121E+03 0.  0.
         25    1    3    3    0    0 -0.35276491199E+02 -0.35275119397E+02  0.49686500048E+02  0.14354449229E+03  0.12509000000E+03 0.  0.
         25    1    4    4    0    0  0.17550435532E+02 -0.21721322244E+02 -0.10937123579E+03  0.16849156936E+03  0.12509000000E+03 0.  0.
         25    1    4    4    0    0  0.17726055667E+02  0.56996441641E+02 -0.91771640199E+02  0.16622980916E+03  0.12509000000E+03 0.  0.
<mgrwt>
<rscale>  2 0.45365098E+03</rscale>
<asrwt>0</asrwt>
<pdfrwt beam="1">  1       21 0.24030111E-01 0.45365098E+03</pdfrwt>
<pdfrwt beam="2">  1       21 0.46303105E-01 0.45365098E+03</pdfrwt>
<totfact> 0.67546908E+04</totfact>
</mgrwt>
</event>
<event>
 7    0  0.4707675E-002  0.4712357E+03  0.7546771E-02  0.1021572E+00
         21   -1    0    0  502  501  0.00000000000E+00  0.00000000000E+00  0.17224365302E+03  0.17224365302E+03  0.00000000000E+00 0.  1.
         21   -1    0    0  501  502 -0.00000000000E+00 -0.00000000000E+00 -0.32230955140E+03  0.32230955140E+03  0.00000000000E+00 0.  1.
      99926    2    1    2    0    0  0.00000000000E+00 -0.71054273576E-14 -0.15006589838E+03  0.49455320442E+03  0.47123571400E+03 0.  0.
      99925    2    3    3    0    0 -0.36991661912E+02 -0.63670639723E+02  0.16467484818E+02  0.27363872044E+03  0.26302972808E+03 0.  0.
         25    1    3    3    0    0  0.36991661912E+02  0.63670639723E+02 -0.16653338320E+03  0.22091448399E+03  0.12509000000E+03 0.  0.
         25    1    4    4    0    0  0.17348955580E+02 -0.37319748918E+02 -0.10630470826E+02  0.13211459014E+03  0.12509000000E+03 0.  0.
         25    1    4    4    0    0 -0.54340617492E+02 -0.26350890805E+02  0.27097955644E+02  0.14152413029E+03  0.12509000000E+03 0.  0.
<mgrwt>
<rscale>  2 0.47123571E+03</rscale>
<asrwt>0</asrwt>
<pdfrwt beam="1">  1       21 0.25329949E-01 0.47123571E+03</pdfrwt>
<pdfrwt beam="2">  1       21 0.47398464E-01 0.47123571E+03</pdfrwt>
<totfact> 0.57834070E+04</totfact>
</mgrwt>
</event>
<event>
 7    0  0.4707675E-002  0.4628365E+03  0.7546771E-02  0.1023962E+00
         21   -1    0    0  502  501  0.00000000000E+00  0.00000000000E+00  0.27011670012E+03  0.27011670012E+03  0.00000000000E+00 0.  1.
         21   -1    0    0  501  502 -0.00000000000E+00 -0.00000000000E+00 -0.19826398783E+03  0.19826398783E+03  0.00000000000E+00 0.  1.
      99926    2    1    2    0    0  0.00000000000E+00  0.00000000000E+00  0.71852712295E+02  0.46838068795E+03  0.46283653333E+03 0.  0.
      99925    2    3    3    0    0 -0.87258932635E+02 -0.24702056335E+02  0.12483295446E+03  0.30504444864E+03  0.26314356579E+03 0.  0.
         25    1    4    4    0    0 -0.70551666154E+02  0.13411426748E+02  0.45787176767E+02  0.15133201122E+03  0.12509000000E+03 0.  0.
         25    1    3    3    0    0  0.87258932635E+02  0.24702056335E+02 -0.52980242165E+02  0.16333623931E+03  0.12509000000E+03 0.  0.
         25    1    4    4    0    0 -0.16707266481E+02 -0.38113483084E+02  0.79045777693E+02  0.15371243742E+03  0.12509000000E+03 0.  0.
<mgrwt>
<rscale>  2 0.46283653E+03</rscale>
<asrwt>0</asrwt>
<pdfrwt beam="1">  1       21 0.39723044E-01 0.46283653E+03</pdfrwt>
<pdfrwt beam="2">  1       21 0.29156469E-01 0.46283653E+03</pdfrwt>
<totfact> 0.63510307E+04</totfact>
</mgrwt>
</event>
<event>
 7    0  0.4707675E-002  0.4527888E+03  0.7546771E-02  0.1026894E+00
         21   -1    0    0  502  501  0.00000000000E+00  0.00000000000E+00  0.69578084099E+03  0.69578084099E+03  0.00000000000E+00 0.  1.
         21   -1    0    0  501  502 -0.00000000000E+00 -0.00000000000E+00 -0.73664622368E+02  0.73664622368E+02  0.00000000000E+00 0.  1.
      99926    2    1    2    0    0  0.00000000000E+00 -0.22204460493E-14  0.62211621862E+03  0.76944546336E+03  0.45278883777E+03 0.  0.
      99925    2    3    3    0    0 -0.61289045305E+02  0.62168463354E+00  0.54947769396E+03  0.61234486842E+03  0.26321809997E+03 0.  0.
         25    1    4    4    0    0  0.76770660406E+00 -0.23801721933E+02  0.28851721569E+03  0.31536772693E+03  0.12509000000E+03 0.  0.
         25    1    4    4    0    0 -0.62056751909E+02  0.24423406567E+02  0.26096047827E+03  0.29697714148E+03  0.12509000000E+03 0.  0.
         25    1    3    3    0    0  0.61289045305E+02 -0.62168463354E+00  0.72638524662E+02  0.15710059494E+03  0.12509000000E+03 0.  0.
<mgrwt>
<rscale>  2 0.45278884E+03</rscale>
<asrwt>0</asrwt>
<pdfrwt beam="1">  1       21 0.10232071E+00 0.45278884E+03</pdfrwt>
<pdfrwt beam="2">  1       21 0.10833033E-01 0.45278884E+03</pdfrwt>
<totfact> 0.50142875E+04</totfact>
</mgrwt>
</event>
<event>
 7    0  0.4707675E-002  0.4556676E+03  0.7546771E-02  0.1026045E+00
         21   -1    0    0  502  501  0.00000000000E+00  0.00000000000E+00  0.26931548105E+03  0.26931548105E+03  0.00000000000E+00 0.  1.
         21   -1    0    0  501  502 -0.00000000000E+00 -0.00000000000E+00 -0.19274135788E+03  0.19274135788E+03  0.00000000000E+00 0.  1.
      99926    2    1    2    0    0  0.00000000000E+00  0.00000000000E+00  0.76574123170E+02  0.46205683892E+03  0.45566756090E+03 0.  0.
      99925    2    3    3    0    0  0.79547019347E+02  0.69276766494E+02  0.51317104562E+01  0.28351125623E+03  0.26310701111E+03 0.  0.
         25    1    4    4    0    0  0.67155448846E+02  0.48661964131E+02 -0.26148731595E+02  0.15234534888E+03  0.12509000000E+03 0.  0.
         25    1    4    4    0    0  0.12391570500E+02  0.20614802363E+02  0.31280442051E+02  0.13116590735E+03  0.12509000000E+03 0.  0.
         25    1    3    3    0    0 -0.79547019347E+02 -0.69276766494E+02  0.71442412714E+02  0.17854558269E+03  0.12509000000E+03 0.  0.
<mgrwt>
<rscale>  2 0.45566756E+03</rscale>
<asrwt>0</asrwt>
<pdfrwt beam="1">  1       21 0.39605218E-01 0.45566756E+03</pdfrwt>
<pdfrwt beam="2">  1       21 0.28344317E-01 0.45566756E+03</pdfrwt>
<totfact> 0.67669303E+04</totfact>
</mgrwt>
</event>
<event>
 7    0  0.4707675E-002  0.4514518E+03  0.7546771E-02  0.1027290E+00
         21   -1    0    0  502  501  0.00000000000E+00  0.00000000000E+00  0.97210679974E+02  0.97210679974E+02  0.00000000000E+00 0.  1.
         21   -1    0    0  501  502 -0.00000000000E+00 -0.00000000000E+00 -0.52414171440E+03  0.52414171440E+03  0.00000000000E+00 0.  1.
      99926    2    1    2    0    0 -0.14210854715E-13  0.00000000000E+00 -0.42693103443E+03  0.62135239437E+03  0.45145175804E+03 0.  0.
      99925    2    3    3    0    0 -0.82251501620E+02  0.36477172226E+02 -0.35624954664E+03  0.45182577573E+03  0.26293896350E+03 0.  0.
         25    1    3    3    0    0  0.82251501620E+02 -0.36477172226E+02 -0.70681487788E+02  0.16952661864E+03  0.12509000000E+03 0.  0.
         25    1    4    4    0    0 -0.51245216890E+02  0.23318122962E+02 -0.24624456560E+03  0.28187532935E+03  0.12509000000E+03 0.  0.
         25    1    4    4    0    0 -0.31006284729E+02  0.13159049264E+02 -0.11000498104E+03  0.16995044638E+03  0.12509000000E+03 0.  0.
<mgrwt>
<rscale>  2 0.45145176E+03</rscale>
<asrwt>0</asrwt>
<pdfrwt beam="1">  1       21 0.14295688E-01 0.45145176E+03</pdfrwt>
<pdfrwt beam="2">  1       21 0.77079664E-01 0.45145176E+03</pdfrwt>
<totfact> 0.59019088E+04</totfact>
</mgrwt>
</event>
<event>
 7    0  0.4707675E-002  0.4609307E+03  0.7546771E-02  0.1024512E+00
         21   -1    0    0  502  501  0.00000000000E+00  0.00000000000E+00  0.28412593527E+03  0.28412593527E+03  0.00000000000E+00 0. -1.
         21   -1    0    0  501  502 -0.00000000000E+00 -0.00000000000E+00 -0.18693917244E+03  0.18693917244E+03  0.00000000000E+00 0. -1.
      99926    2    1    2    0    0  0.00000000000E+00  0.00000000000E+00  0.97186762839E+02  0.47106510771E+03  0.46093065512E+03 0.  0.
      99925    2    3    3    0    0  0.23268843506E+02  0.11608439088E+03  0.52453914975E+02  0.29311691114E+03  0.26296213704E+03 0.  0.
         25    1    4    4    0    0 -0.77714050973E+01  0.21863848112E+02  0.38177381827E+02  0.13282862333E+03  0.12509000000E+03 0.  0.
         25    1    3    3    0    0 -0.23268843506E+02 -0.11608439088E+03  0.44732847864E+02  0.17794819657E+03  0.12509000000E+03 0.  0.
         25    1    4    4    0    0  0.31040248603E+02  0.94220542765E+02  0.14276533148E+02  0.16028828782E+03  0.12509000000E+03 0.  0.
<mgrwt>
<rscale>  2 0.46093066E+03</rscale>
<asrwt>0</asrwt>
<pdfrwt beam="1">  1       21 0.41783226E-01 0.46093066E+03</pdfrwt>
<pdfrwt beam="2">  1       21 0.27491055E-01 0.46093066E+03</pdfrwt>
<totfact> 0.64278292E+04</totfact>
</mgrwt>
</event>
<event>
 7    0  0.4707675E-002  0.4588221E+03  0.7546771E-02  0.1025123E+00
         21   -1    0    0  502  501  0.00000000000E+00  0.00000000000E+00  0.23633107134E+03  0.23633107134E+03  0.00000000000E+00 0.  1.
         21   -1    0    0  501  502 -0.00000000000E+00 -0.00000000000E+00 -0.22269367160E+03  0.22269367160E+03  0.00000000000E+00 0.  1.
      99926    2    1    2    0    0  0.00000000000E+00  0.00000000000E+00  0.13637399748E+02  0.45902474294E+03  0.45882211799E+03 0.  0.
      99925    2    3    3    0    0  0.39043692859E+02 -0.58463795372E+02 -0.84689359420E+02  0.28507623047E+03  0.26297099509E+03 0.  0.
         25    1    4    4    0    0  0.57334459830E+02 -0.24418777912E+02 -0.58786913673E+02  0.15161440010E+03  0.12509000000E+03 0.  0.
         25    1    3    3    0    0 -0.39043692859E+02  0.58463795372E+02  0.98326759168E+02  0.17394851247E+03  0.12509000000E+03 0.  0.
         25    1    4    4    0    0 -0.18290766971E+02 -0.34045017460E+02 -0.25902445747E+02  0.13346183037E+03  0.12509000000E+03 0.  0.
<mgrwt>
<rscale>  2 0.45882212E+03</rscale>
<asrwt>0</asrwt>
<pdfrwt beam="1">  1       21 0.34754570E-01 0.45882212E+03</pdfrwt>
<pdfrwt beam="2">  1       21 0.32749069E-01 0.45882212E+03</pdfrwt>
<totfact> 0.66209643E+04</totfact>
</mgrwt>
</event>
<event>
 7    0  0.4707675E-002  0.4578525E+03  0.7546771E-02  0.1025406E+00
         21   -1    0    0  502  501  0.00000000000E+00  0.00000000000E+00  0.10746948129E+03  0.10746948129E+03  0.00000000000E+00 0.  1.
         21   -1    0    0  501  502 -0.00000000000E+00 -0.00000000000E+00 -0.48764750847E+03  0.48764750847E+03  0.00000000000E+00 0.  1.
      99926    2    1    2    0    0  0.14210854715E-13  0.00000000000E+00 -0.38017802718E+03  0.59511698976E+03  0.45785248623E+03 0.  0.
      99925    2    3    3    0    0  0.84923468762E+02 -0.78677198124E+02 -0.23991241335E+03  0.37438174660E+03  0.26306202511E+03 0.  0.
         25    1    4    4    0    0  0.24446403427E+02 -0.35089146837E+02 -0.66638826903E+02  0.14804430491E+03  0.12509000000E+03 0.  0.
         25    1    4    4    0    0  0.60477065335E+02 -0.43588051288E+02 -0.17327358645E+03  0.22633744168E+03  0.12509000000E+03 0.  0.
         25    1    3    3    0    0 -0.84923468762E+02  0.78677198124E+02 -0.14026561383E+03  0.22073524316E+03  0.12509000000E+03 0.  0.
<mgrwt>
<rscale>  2 0.45785249E+03</rscale>
<asrwt>0</asrwt>
<pdfrwt beam="1">  1       21 0.15804336E-01 0.45785249E+03</pdfrwt>
<pdfrwt beam="2">  1       21 0.71712867E-01 0.45785249E+03</pdfrwt>
<totfact> 0.57668851E+04</totfact>
</mgrwt>
</event>
<event>
 7    0  0.4707675E-002  0.4427826E+03  0.7546771E-02  0.1029896E+00
         21   -1    0    0  502  501  0.00000000000E+00  0.00000000000E+00  0.51018512130E+02  0.51018512130E+02  0.00000000000E+00 0. -1.
         21   -1    0    0  501  502 -0.00000000000E+00 -0.00000000000E+00 -0.96071223529E+03  0.96071223529E+03  0.00000000000E+00 0. -1.
      99926    2    1    2    0    0  0.00000000000E+00  0.00000000000E+00 -0.90969372316E+03  0.10117307474E+04  0.44278260503E+03 0.  0.
      99925    2    3    3    0    0 -0.30666143733E+02 -0.73838632579E+02 -0.43204592331E+03  0.51154329772E+03  0.26195478534E+03 0.  0.
         25    1    4    4    0    0 -0.26979390955E+02 -0.74790949935E+02 -0.21853210004E+03  0.26405560130E+03  0.12509000000E+03 0.  0.
         25    1    3    3    0    0  0.30666143733E+02  0.73838632579E+02 -0.47764779985E+03  0.50018744970E+03  0.12509000000E+03 0.  0.
         25    1    4    4    0    0 -0.36867527777E+01  0.95231735598E+00 -0.21351382327E+03  0.24748769642E+03  0.12509000000E+03 0.  0.
<mgrwt>
<rscale>  2 0.44278261E+03</rscale>
<asrwt>0</asrwt>
<pdfrwt beam="1">  1       21 0.75027223E-02 0.44278261E+03</pdfrwt>
<pdfrwt beam="2">  1       21 0.14128121E+00 0.44278261E+03</pdfrwt>
<totfact> 0.42638335E+04</totfact>
</mgrwt>
</event>
<event>
 7    0  0.4707675E-002  0.4572735E+03  0.7546771E-02  0.1025575E+00
         21   -1    0    0  502  501  0.00000000000E+00  0.00000000000E+00  0.16052933832E+04  0.16052933832E+04  0.00000000000E+00 0. -1.
         21   -1    0    0  501  502 -0.00000000000E+00 -0.00000000000E+00 -0.32563999526E+02  0.32563999526E+02  0.00000000000E+00 0. -1.
      99926    2    1    2    0    0  0.00000000000E+00  0.00000000000E+00  0.15727293837E+04  0.16378573827E+04  0.45727354163E+03 0.  0.
      99925    2    3    3    0    0 -0.27036206495E+02  0.63956305368E+02  0.13171132157E+04  0.13449265054E+04  0.26309450111E+03 0.  0.
         25    1    4    4    0    0 -0.24972285784E+02 -0.50084244675E+01  0.54950198870E+03  0.56413530563E+03  0.12509000000E+03 0.  0.
         25    1    3    3    0    0  0.27036206495E+02 -0.63956305368E+02  0.25561616797E+03  0.29293087732E+03  0.12509000000E+03 0.  0.
         25    1    4    4    0    0 -0.20639207107E+01  0.68964729836E+02  0.76761122701E+03  0.78079119978E+03  0.12509000000E+03 0.  0.
<mgrwt>
<rscale>  2 0.45727354E+03</rscale>
<asrwt>0</asrwt>
<pdfrwt beam="1">  1       21 0.23607250E+00 0.45727354E+03</pdfrwt>
<pdfrwt beam="2">  1       21 0.47888245E-02 0.45727354E+03</pdfrwt>
<totfact> 0.20228209E+04</totfact>
</mgrwt>
</event>
<event>
 7    0  0.4707675E-002  0.4540639E+03  0.7546771E-02  0.1026517E+00
         21   -1    0    0  502  501  0.00000000000E+00  0.00000000000E+00  0.16992271277E+03  0.16992271277E+03  0.00000000000E+00 0. -1.
         21   -1    0    0  501  502 -0.00000000000E+00 -0.00000000000E+00 -0.30333504664E+03  0.30333504664E+03  0.00000000000E+00 0. -1.
      99926    2    1    2    0    0  0.00000000000E+00  0.00000000000E+00 -0.13341233387E+03  0.47325775941E+03  0.45406393384E+03 0.  0.
      99925    2    3    3    0    0 -0.57212212594E+02 -0.35403806716E+02  0.96755752529E+01  0.27164346271E+03  0.26300168683E+03 0.  0.
         25    1    4    4    0    0  0.90045312572E+01 -0.24408552720E+02  0.19930848574E+02  0.12931204837E+03  0.12509000000E+03 0.  0.
         25    1    4    4    0    0 -0.66216743851E+02 -0.10995253995E+02 -0.10255273322E+02  0.14233141434E+03  0.12509000000E+03 0.  0.
         25    1    3    3    0    0  0.57212212594E+02  0.35403806716E+02 -0.14308790912E+03  0.20161429671E+03  0.12509000000E+03 0.  0.
<mgrwt>
<rscale>  2 0.45406393E+03</rscale>
<asrwt>0</asrwt>
<pdfrwt beam="1">  1       21 0.24988635E-01 0.45406393E+03</pdfrwt>
<pdfrwt beam="2">  1       21 0.44608094E-01 0.45406393E+03</pdfrwt>
<totfact> 0.67695727E+04</totfact>
</mgrwt>
</event>
<event>
 7    0  0.4707675E-002  0.4554001E+03  0.7546771E-02  0.1026124E+00
         21   -1    0    0  502  501  0.00000000000E+00  0.00000000000E+00  0.38072821711E+03  0.38072821711E+03  0.00000000000E+00 0.  1.
         21   -1    0    0  501  502 -0.00000000000E+00 -0.00000000000E+00 -0.13617931087E+03  0.13617931087E+03  0.00000000000E+00 0.  1.
      99926    2    1    2    0    0 -0.14210854715E-13  0.00000000000E+00  0.24454890625E+03  0.51690752798E+03  0.45540007130E+03 0.  0.
      99925    2    3    3    0    0 -0.81285660454E+02 -0.77694000953E+02  0.13661447827E+03  0.31705491924E+03  0.26309045927E+03 0.  0.
         25    1    4    4    0    0 -0.78441752636E+02 -0.55559266479E+02  0.60653335852E+02  0.16901560845E+03  0.12509000000E+03 0.  0.
         25    1    4    4    0    0 -0.28439078175E+01 -0.22134734474E+02  0.75961142423E+02  0.14803931079E+03  0.12509000000E+03 0.  0.
         25    1    3    3    0    0  0.81285660454E+02  0.77694000953E+02  0.10793442797E+03  0.19985260874E+03  0.12509000000E+03 0.  0.
<mgrwt>
<rscale>  2 0.45540007E+03</rscale>
<asrwt>0</asrwt>
<pdfrwt beam="1">  1       21 0.55989444E-01 0.45540007E+03</pdfrwt>
<pdfrwt beam="2">  1       21 0.20026369E-01 0.45540007E+03</pdfrwt>
<totfact> 0.63895384E+04</totfact>
</mgrwt>
</event>
<event>
 7    0  0.4707675E-002  0.4561913E+03  0.7546771E-02  0.1025892E+00
         21   -1    0    0  502  501  0.00000000000E+00  0.00000000000E+00  0.47220404833E+03  0.47220404833E+03  0.00000000000E+00 0. -1.
         21   -1    0    0  501  502 -0.00000000000E+00 -0.00000000000E+00 -0.11018037809E+03  0.11018037809E+03  0.00000000000E+00 0. -1.
      99926    2    1    2    0    0  0.00000000000E+00  0.00000000000E+00  0.36202367024E+03  0.58238442642E+03  0.45619127822E+03 0.  0.
      99925    2    3    3    0    0 -0.37356623441E+02 -0.10774275364E+03  0.21572468387E+03  0.35865485799E+03  0.26285385608E+03 0.  0.
         25    1    3    3    0    0  0.37356623441E+02  0.10774275364E+03  0.14629898637E+03  0.22372956843E+03  0.12509000000E+03 0.  0.
         25    1    4    4    0    0 -0.21234547697E+02 -0.60002693056E+02  0.59961786667E+02  0.15262422203E+03  0.12509000000E+03 0.  0.
         25    1    4    4    0    0 -0.16122075744E+02 -0.47740060586E+02  0.15576289720E+03  0.20603063596E+03  0.12509000000E+03 0.  0.
<mgrwt>
<rscale>  2 0.45619128E+03</rscale>
<asrwt>0</asrwt>
<pdfrwt beam="1">  1       21 0.69441771E-01 0.45619128E+03</pdfrwt>
<pdfrwt beam="2">  1       21 0.16202997E-01 0.45619128E+03</pdfrwt>
<totfact> 0.59216235E+04</totfact>
</mgrwt>
</event>
<event>
 7    0  0.4707675E-002  0.4543731E+03  0.7546771E-02  0.1026426E+00
         21   -1    0    0  502  501  0.00000000000E+00  0.00000000000E+00  0.29797021471E+03  0.29797021471E+03  0.00000000000E+00 0.  1.
         21   -1    0    0  501  502 -0.00000000000E+00 -0.00000000000E+00 -0.17321773466E+03  0.17321773466E+03  0.00000000000E+00 0.  1.
      99926    2    1    2    0    0  0.00000000000E+00  0.00000000000E+00  0.12475248004E+03  0.47118794937E+03  0.45437308718E+03 0.  0.
      99925    2    3    3    0    0  0.46077157845E+02 -0.80416478100E+02  0.14459051633E+03  0.31424537959E+03  0.26316121818E+03 0.  0.
         25    1    3    3    0    0 -0.46077157845E+02  0.80416478100E+02 -0.19838036288E+02  0.15694256978E+03  0.12509000000E+03 0.  0.
         25    1    4    4    0    0  0.33986850531E+02 -0.62178084086E+02  0.38657965987E+02  0.14887298809E+03  0.12509000000E+03 0.  0.
         25    1    4    4    0    0  0.12090307315E+02 -0.18238394014E+02  0.10593255034E+03  0.16537239150E+03  0.12509000000E+03 0.  0.
<mgrwt>
<rscale>  2 0.45437309E+03</rscale>
<asrwt>0</asrwt>
<pdfrwt beam="1">  1       21 0.43819149E-01 0.45437309E+03</pdfrwt>
<pdfrwt beam="2">  1       21 0.25473196E-01 0.45437309E+03</pdfrwt>
<totfact> 0.67683486E+04</totfact>
</mgrwt>
</event>
<event>
 7    0  0.4707675E-002  0.4539436E+03  0.7546771E-02  0.1026553E+00
         21   -1    0    0  502  501  0.00000000000E+00  0.00000000000E+00  0.44370799431E+03  0.44370799431E+03  0.00000000000E+00 0. -1.
         21   -1    0    0  501  502 -0.00000000000E+00 -0.00000000000E+00 -0.11610384553E+03  0.11610384553E+03  0.00000000000E+00 0. -1.
      99926    2    1    2    0    0  0.00000000000E+00  0.00000000000E+00  0.32760414878E+03  0.55981183984E+03  0.45394362836E+03 0.  0.
      99925    2    3    3    0    0 -0.33385094805E+02  0.10694619828E+03  0.20474276133E+03  0.35173857748E+03  0.26315085919E+03 0.  0.
         25    1    4    4    0    0  0.26849409636E+01  0.59859387751E+02  0.59009952279E+02  0.15073167477E+03  0.12509000000E+03 0.  0.
         25    1    4    4    0    0 -0.36070035769E+02  0.47086810525E+02  0.14573280905E+03  0.20100690272E+03  0.12509000000E+03 0.  0.
         25    1    3    3    0    0  0.33385094805E+02 -0.10694619828E+03  0.12286138745E+03  0.20807326236E+03  0.12509000000E+03 0.  0.
<mgrwt>
<rscale>  2 0.45394363E+03</rscale>
<asrwt>0</asrwt>
<pdfrwt beam="1">  1       21 0.65251175E-01 0.45394363E+03</pdfrwt>
<pdfrwt beam="2">  1       21 0.17074095E-01 0.45394363E+03</pdfrwt>
<totfact> 0.61737004E+04</totfact>
</mgrwt>
</event>
<event>
 7    0  0.4707675E-002  0.4108437E+03  0.7546771E-02  0.1040088E+00
         21   -1    0    0  502  501  0.00000000000E+00  0.00000000000E+00  0.17846479001E+02  0.17846479001E+02  0.00000000000E+00 0.  1.
         21   -1    0    0  501  502 -0.00000000000E+00 -0.00000000000E+00 -0.23645080056E+04  0.23645080056E+04  0.00000000000E+00 0.  1.
      99926    2    1    2    0    0 -0.17763568394E-14  0.00000000000E+00 -0.23466615266E+04  0.23823544846E+04  0.41084372927E+03 0.  0.
      99925    2    3    3    0    0  0.83966420913E+01  0.55911213944E+02 -0.13790821203E+04  0.14050858506E+04  0.26306308280E+03 0.  0.
         25    1    4    4    0    0  0.41843042314E+02  0.17971547467E+02 -0.74606011712E+03  0.75784366670E+03  0.12509000000E+03 0.  0.
         25    1    4    4    0    0 -0.33446400222E+02  0.37939666476E+02 -0.63302200316E+03  0.64724218386E+03  0.12509000000E+03 0.  0.
         25    1    3    3    0    0 -0.83966420913E+01 -0.55911213944E+02 -0.96757940634E+03  0.97726863406E+03  0.12509000000E+03 0.  0.
<mgrwt>
<rscale>  2 0.41084373E+03</rscale>
<asrwt>0</asrwt>
<pdfrwt beam="1">  1       21 0.26244811E-02 0.41084373E+03</pdfrwt>
<pdfrwt beam="2">  1       21 0.34772191E+00 0.41084373E+03</pdfrwt>
<totfact> 0.12044113E+04</totfact>
</mgrwt>
</event>
<event>
 7    0  0.4707675E-002  0.4425204E+03  0.7546771E-02  0.1029976E+00
         21   -1    0    0  502  501  0.00000000000E+00  0.00000000000E+00  0.15545035355E+03  0.15545035355E+03  0.00000000000E+00 0.  1.
         21   -1    0    0  501  502 -0.00000000000E+00 -0.00000000000E+00 -0.31493060288E+03  0.31493060288E+03  0.00000000000E+00 0.  1.
      99926    2    1    2    0    0  0.00000000000E+00  0.00000000000E+00 -0.15948024934E+03  0.47038095643E+03  0.44252038850E+03 0.  0.
      99925    2    3    3    0    0  0.89038812850E+02  0.36064843980E+02 -0.13477107626E+03  0.31073561669E+03  0.26299200999E+03 0.  0.
         25    1    4    4    0    0  0.17597073035E+02  0.45635585098E+02 -0.79948358743E+02  0.15630582770E+03  0.12509000000E+03 0.  0.
         25    1    3    3    0    0 -0.89038812850E+02 -0.36064843980E+02 -0.24709173080E+02  0.15964533974E+03  0.12509000000E+03 0.  0.
         25    1    4    4    0    0  0.71441739815E+02 -0.95707411180E+01 -0.54822717512E+02  0.15442978899E+03  0.12509000000E+03 0.  0.
<mgrwt>
<rscale>  2 0.44252039E+03</rscale>
<asrwt>0</asrwt>
<pdfrwt beam="1">  1       21 0.22860346E-01 0.44252039E+03</pdfrwt>
<pdfrwt beam="2">  1       21 0.46313323E-01 0.44252039E+03</pdfrwt>
<totfact> 0.74519060E+04</totfact>
</mgrwt>
</event>
<event>
 7    0  0.4707675E-002  0.4496649E+03  0.7546771E-02  0.1027822E+00
         21   -1    0    0  502  501  0.00000000000E+00  0.00000000000E+00  0.18361815380E+03  0.18361815380E+03  0.00000000000E+00 0.  1.
         21   -1    0    0  501  502 -0.00000000000E+00 -0.00000000000E+00 -0.27529752393E+03  0.27529752393E+03  0.00000000000E+00 0.  1.
      99926    2    1    2    0    0  0.00000000000E+00  0.00000000000E+00 -0.91679370124E+02  0.45891567773E+03  0.44966486671E+03 0.  0.
      99925    2    3    3    0    0 -0.80337148867E+02  0.31994613847E+02 -0.12414180342E+03  0.30341959907E+03  0.26301055670E+03 0.  0.
         25    1    4    4    0    0 -0.14706299952E+02 -0.16209606368E+02 -0.67130867207E+02  0.14364222231E+03  0.12509000000E+03 0.  0.
         25    1    4    4    0    0 -0.65630848915E+02  0.48204220216E+02 -0.57010936216E+02  0.15977737676E+03  0.12509000000E+03 0.  0.
         25    1    3    3    0    0  0.80337148867E+02 -0.31994613847E+02  0.32462433299E+02  0.15549607866E+03  0.12509000000E+03 0.  0.
<mgrwt>
<rscale>  2 0.44966487E+03</rscale>
<asrwt>0</asrwt>
<pdfrwt beam="1">  1       21 0.27002670E-01 0.44966487E+03</pdfrwt>
<pdfrwt beam="2">  1       21 0.40484930E-01 0.44966487E+03</pdfrwt>
<totfact> 0.71237080E+04</totfact>
</mgrwt>
</event>
<event>
 7    0  0.4707675E-002  0.4600716E+03  0.7546771E-02  0.1024760E+00
         21   -1    0    0  502  501  0.00000000000E+00  0.00000000000E+00  0.16019660569E+03  0.16019660569E+03  0.00000000000E+00 0. -1.
         21   -1    0    0  501  502 -0.00000000000E+00 -0.00000000000E+00 -0.33032198427E+03  0.33032198427E+03  0.00000000000E+00 0. -1.
      99926    2    1    2    0    0  0.00000000000E+00  0.00000000000E+00 -0.17012537857E+03  0.49051858996E+03  0.46007156254E+03 0.  0.
      99925    2    3    3    0    0  0.55391242430E+02  0.44388910877E+02 -0.61209787139E+01  0.27238212712E+03  0.26289920435E+03 0.  0.
         25    1    3    3    0    0 -0.55391242430E+02 -0.44388910877E+02 -0.16400439986E+03  0.21813646284E+03  0.12509000000E+03 0.  0.
         25    1    4    4    0    0  0.36611350371E+02  0.63647907367E+01 -0.39135733553E+02  0.13623514700E+03  0.12509000000E+03 0.  0.
         25    1    4    4    0    0  0.18779892059E+02  0.38024120141E+02  0.33014754839E+02  0.13614698012E+03  0.12509000000E+03 0.  0.
<mgrwt>
<rscale>  2 0.46007156E+03</rscale>
<asrwt>0</asrwt>
<pdfrwt beam="1">  1       21 0.23558325E-01 0.46007156E+03</pdfrwt>
<pdfrwt beam="2">  1       21 0.48576762E-01 0.46007156E+03</pdfrwt>
<totfact> 0.63352712E+04</totfact>
</mgrwt>
</event>
<event>
 6    0  0.4707675E-002  0.4595183E+03  0.7546771E-02  0.1024921E+00
         21   -1    0    0  502  501  0.00000000000E+00  0.00000000000E+00  0.30958821721E+03  0.30958821721E+03  0.00000000000E+00 0.  1.
         21   -1    0    0  501  502 -0.00000000000E+00 -0.00000000000E+00 -0.17051444779E+03  0.17051444779E+03  0.00000000000E+00 0.  1.
      99926    2    1    2    0    0  0.00000000000E+00  0.71054273576E-14  0.13907376943E+03  0.48010266500E+03  0.45951828647E+03 0.  0.
         25    1    3    3    0    0  0.27371239945E+01 -0.22721632008E+02  0.45486137517E+02  0.13505651119E+03  0.12509000000E+03 0.  0.
         25    1    3    3    0    0  0.93019171328E+02  0.63314105744E+02  0.62107442454E+02  0.17934905834E+03  0.12509000000E+03 0.  0.
         25    1    3    3    0    0 -0.95756295322E+02 -0.40592473736E+02  0.31480189456E+02  0.16569709547E+03  0.12509000000E+03 0.  0.
<mgrwt>
<rscale>  2 0.45951829E+03</rscale>
<asrwt>0</asrwt>
<pdfrwt beam="1">  1       21 0.45527679E-01 0.45951829E+03</pdfrwt>
<pdfrwt beam="2">  1       21 0.25075654E-01 0.45951829E+03</pdfrwt>
<totfact> 0.64353732E+04</totfact>
</mgrwt>
</event>
<event>
 7    0  0.4707675E-002  0.4524771E+03  0.7546771E-02  0.1026986E+00
         21   -1    0    0  502  501  0.00000000000E+00  0.00000000000E+00  0.75351282823E+02  0.75351282823E+02  0.00000000000E+00 0.  1.
         21   -1    0    0  501  502 -0.00000000000E+00 -0.00000000000E+00 -0.67927021350E+03  0.67927021350E+03  0.00000000000E+00 0.  1.
      99926    2    1    2    0    0  0.71054273576E-14  0.00000000000E+00 -0.60391893068E+03  0.75462149633E+03  0.45247710206E+03 0.  0.
      99925    2    3    3    0    0  0.51171204525E+02 -0.96537719492E+02 -0.41160316612E+03  0.50051347824E+03  0.26298013629E+03 0.  0.
         25    1    4    4    0    0  0.40693690378E+02 -0.76928966781E+02 -0.17573156606E+03  0.23260080347E+03  0.12509000000E+03 0.  0.
         25    1    3    3    0    0 -0.51171204525E+02  0.96537719492E+02 -0.19231576456E+03  0.25410801808E+03  0.12509000000E+03 0.  0.
         25    1    4    4    0    0  0.10477514147E+02 -0.19608752711E+02 -0.23587160007E+03  0.26791267477E+03  0.12509000000E+03 0.  0.
<mgrwt>
<rscale>  2 0.45247710E+03</rscale>
<asrwt>0</asrwt>
<pdfrwt beam="1">  1       21 0.11081072E-01 0.45247710E+03</pdfrwt>
<pdfrwt beam="2">  1       21 0.99892674E-01 0.45247710E+03</pdfrwt>
<totfact> 0.51040139E+04</totfact>
</mgrwt>
</event>
<event>
 7    0  0.4707675E-002  0.4612600E+03  0.7546771E-02  0.1024416E+00
         21   -1    0    0  502  501  0.00000000000E+00  0.00000000000E+00  0.10847215724E+04  0.10847215724E+04  0.00000000000E+00 0.  1.
         21   -1    0    0  501  502 -0.00000000000E+00 -0.00000000000E+00 -0.49035813022E+02  0.49035813022E+02  0.00000000000E+00 0.  1.
      99926    2    1    2    0    0  0.00000000000E+00  0.00000000000E+00  0.10356857594E+04  0.11337573855E+04  0.46126003168E+03 0.  0.
      99925    2    3    3    0    0 -0.36081588218E+02  0.10835282971E+03  0.56568210362E+03  0.63416438983E+03  0.26291826537E+03 0.  0.
         25    1    3    3    0    0  0.36081588218E+02 -0.10835282971E+03  0.47000365581E+03  0.49959299564E+03  0.12509000000E+03 0.  0.
         25    1    4    4    0    0 -0.46265611645E+02  0.87147916653E+02  0.30870211206E+03  0.34738993694E+03  0.12509000000E+03 0.  0.
         25    1    4    4    0    0  0.10184023427E+02  0.21204913057E+02  0.25697999156E+03  0.28677445290E+03  0.12509000000E+03 0.  0.
<mgrwt>
<rscale>  2 0.46126003E+03</rscale>
<asrwt>0</asrwt>
<pdfrwt beam="1">  1       21 0.15951786E+00 0.46126003E+03</pdfrwt>
<pdfrwt beam="2">  1       21 0.72111496E-02 0.46126003E+03</pdfrwt>
<totfact> 0.32704086E+04</totfact>
</mgrwt>
</event>
<event>
 7    0  0.4707675E-002  0.4661296E+03  0.7546771E-02  0.1023018E+00
         21   -1    0    0  502  501  0.00000000000E+00  0.00000000000E+00  0.13749315901E+03  0.13749315901E+03  0.00000000000E+00 0.  1.
         21   -1    0    0  501  502 -0.00000000000E+00 -0.00000000000E+00 -0.39506843132E+03  0.39506843132E+03  0.00000000000E+00 0.  1.
      99926    2    1    2    0    0 -0.35527136788E-14 -0.71054273576E-14 -0.25757527231E+03  0.53256159033E+03  0.46612962424E+03 0.  0.
      99925    2    3    3    0    0  0.24062983714E+02 -0.59823877513E+02 -0.28061621341E+03  0.38995613261E+03  0.26298745716E+03 0.  0.
         25    1    4    4    0    0  0.49722446541E+00 -0.65995946614E+02 -0.17056162510E+03  0.22157276064E+03  0.12509000000E+03 0.  0.
         25    1    3    3    0    0 -0.24062983714E+02  0.59823877513E+02  0.23040941104E+02  0.14260545772E+03  0.12509000000E+03 0.  0.
         25    1    4    4    0    0  0.23565759249E+02  0.61720691005E+01 -0.11005458832E+03  0.16838337197E+03  0.12509000000E+03 0.  0.
<mgrwt>
<rscale>  2 0.46612962E+03</rscale>
<asrwt>0</asrwt>
<pdfrwt beam="1">  1       21 0.20219582E-01 0.46612962E+03</pdfrwt>
<pdfrwt beam="2">  1       21 0.58098298E-01 0.46612962E+03</pdfrwt>
<totfact> 0.57766340E+04</totfact>
</mgrwt>
</event>
<event>
 7    0  0.4707675E-002  0.4530104E+03  0.7546771E-02  0.1026828E+00
         21   -1    0    0  502  501  0.00000000000E+00  0.00000000000E+00  0.17602540129E+03  0.17602540129E+03  0.00000000000E+00 0. -1.
         21   -1    0    0  501  502 -0.00000000000E+00 -0.00000000000E+00 -0.29146142626E+03  0.29146142626E+03  0.00000000000E+00 0. -1.
      99926    2    1    2    0    0  0.88817841970E-15  0.00000000000E+00 -0.11543602497E+03  0.46748682755E+03  0.45301043925E+03 0.  0.
      99925    2    3    3    0    0  0.27046381599E+01  0.10973727171E+03 -0.54751579543E+02  0.29034368236E+03  0.26315800302E+03 0.  0.
         25    1    4    4    0    0 -0.35724562394E+02  0.60789270752E+02 -0.11342830943E+02  0.14404078489E+03  0.12509000000E+03 0.  0.
         25    1    4    4    0    0  0.38429200554E+02  0.48948000960E+02 -0.43408748601E+02  0.14630289747E+03  0.12509000000E+03 0.  0.
         25    1    3    3    0    0 -0.27046381599E+01 -0.10973727171E+03 -0.60684445431E+02  0.17714314519E+03  0.12509000000E+03 0.  0.
<mgrwt>
<rscale>  2 0.45301044E+03</rscale>
<asrwt>0</asrwt>
<pdfrwt beam="1">  1       21 0.25886089E-01 0.45301044E+03</pdfrwt>
<pdfrwt beam="2">  1       21 0.42861974E-01 0.45301044E+03</pdfrwt>
<totfact> 0.68701016E+04</totfact>
</mgrwt>
</event>
<event>
 7    0  0.4707675E-002  0.4650271E+03  0.7546771E-02  0.1023333E+00
         21   -1    0    0  502  501  0.00000000000E+00  0.00000000000E+00  0.48400185628E+03  0.48400185628E+03  0.00000000000E+00 0. -1.
         21   -1    0    0  501  502 -0.00000000000E+00 -0.00000000000E+00 -0.11169907712E+03  0.11169907712E+03  0.00000000000E+00 0. -1.
      99926    2    1    2    0    0  0.00000000000E+00  0.00000000000E+00  0.37230277916E+03  0.59570093339E+03  0.46502714187E+03 0.  0.
      99925    2    3    3    0    0 -0.70649999992E+02 -0.92713398620E+02  0.27988682927E+03  0.40134195450E+03  0.26296678585E+03 0.  0.
         25    1    3    3    0    0  0.70649999992E+02  0.92713398620E+02  0.92415949897E+02  0.19435897890E+03  0.12509000000E+03 0.  0.
         25    1    4    4    0    0  0.62583965622E+01 -0.40862056165E+02  0.12135665640E+03  0.17911957267E+03  0.12509000000E+03 0.  0.
         25    1    4    4    0    0 -0.76908396554E+02 -0.51851342454E+02  0.15853017287E+03  0.22222238183E+03  0.12509000000E+03 0.  0.
<mgrwt>
<rscale>  2 0.46502714E+03</rscale>
<asrwt>0</asrwt>
<pdfrwt beam="1">  1       21 0.71176743E-01 0.46502714E+03</pdfrwt>
<pdfrwt beam="2">  1       21 0.16426335E-01 0.46502714E+03</pdfrwt>
<totfact> 0.54495337E+04</totfact>
</mgrwt>
</event>
<event>
 7    0  0.4707675E-002  0.4445441E+03  0.7546771E-02  0.1029362E+00
         21   -1    0    0  502  501  0.00000000000E+00  0.00000000000E+00  0.99527989857E+02  0.99527989857E+02  0.00000000000E+00 0.  1.
         21   -1    0    0  501  502 -0.00000000000E+00 -0.00000000000E+00 -0.49639161146E+03  0.49639161146E+03  0.00000000000E+00 0.  1.
      99926    2    1    2    0    0  0.00000000000E+00  0.00000000000E+00 -0.39686362161E+03  0.59591960132E+03  0.44454407777E+03 0.  0.
      99925    2    3    3    0    0 -0.95629140059E+02  0.19701747178E+02 -0.29655187974E+03  0.40818829086E+03  0.26294785063E+03 0.  0.
         25    1    4    4    0    0 -0.73469869433E+02 -0.19501820045E+02 -0.17391204175E+03  0.22731266807E+03  0.12509000000E+03 0.  0.
         25    1    4    4    0    0 -0.22159270626E+02  0.39203567223E+02 -0.12263983799E+03  0.18087562279E+03  0.12509000000E+03 0.  0.
         25    1    3    3    0    0  0.95629140059E+02 -0.19701747178E+02 -0.10031174186E+03  0.18773131046E+03  0.12509000000E+03 0.  0.
<mgrwt>
<rscale>  2 0.44454408E+03</rscale>
<asrwt>0</asrwt>
<pdfrwt beam="1">  1       21 0.14636469E-01 0.44454408E+03</pdfrwt>
<pdfrwt beam="2">  1       21 0.72998765E-01 0.44454408E+03</pdfrwt>
<totfact> 0.64061108E+04</totfact>
</mgrwt>
</event>
<event>
 7    0  0.4707675E-002  0.4599183E+03  0.7546771E-02  0.1024805E+00
         21   -1    0    0  502  501  0.00000000000E+00  0.00000000000E+00  0.35390465863E+02  0.35390465863E+02  0.00000000000E+00 0.  1.
         21   -1    0    0  501  502 -0.00000000000E+00 -0.00000000000E+00 -0.14942217252E+04  0.14942217252E+04  0.00000000000E+00 0.  1.
      99926    2    1    2    0    0  0.00000000000E+00  0.00000000000E+00 -0.14588312593E+04  0.15296121910E+04  0.45991826646E+03 0.  0.
      99925    2    3    3    0    0 -0.40184069940E+02 -0.10710719005E+03 -0.82246459253E+03  0.87105562374E+03  0.26306498066E+03 0.  0.
         25    1    4    4    0    0 -0.17361687591E+02 -0.49110880319E+02 -0.28277667955E+03  0.31356572733E+03  0.12509000000E+03 0.  0.
         25    1    4    4    0    0 -0.22822382349E+02 -0.57996309731E+02 -0.53968791298E+03  0.55748989641E+03  0.12509000000E+03 0.  0.
         25    1    3    3    0    0  0.40184069940E+02  0.10710719005E+03 -0.63636666677E+03  0.65855656728E+03  0.12509000000E+03 0.  0.
<mgrwt>
<rscale>  2 0.45991827E+03</rscale>
<asrwt>0</asrwt>
<pdfrwt beam="1">  1       21 0.52044813E-02 0.45991827E+03</pdfrwt>
<pdfrwt beam="2">  1       21 0.21973845E+00 0.45991827E+03</pdfrwt>
<totfact> 0.22202346E+04</totfact>
</mgrwt>
</event>
<event>
 7    0  0.4707675E-002  0.4705009E+03  0.7546771E-02  0.1021779E+00
         21   -1    0    0  502  501  0.00000000000E+00  0.00000000000E+00  0.13287875084E+03  0.13287875084E+03  0.00000000000E+00 0. -1.
         21   -1    0    0  501  502 -0.00000000000E+00 -0.00000000000E+00 -0.41649080315E+03  0.41649080315E+03  0.00000000000E+00 0. -1.
      99926    2    1    2    0    0  0.00000000000E+00  0.00000000000E+00 -0.28361205231E+03  0.54936955399E+03  0.47050091460E+03 0.  0.
      99925    2    3    3    0    0 -0.52427807259E+02 -0.42154872388E+02 -0.50251741383E+02  0.27618417544E+03  0.26310977369E+03 0.  0.
         25    1    4    4    0    0 -0.16565406773E+02 -0.55304515631E+02 -0.52602484467E+01  0.13787015799E+03  0.12509000000E+03 0.  0.
         25    1    4    4    0    0 -0.35862400487E+02  0.13149643243E+02 -0.44991492936E+02  0.13831401745E+03  0.12509000000E+03 0.  0.
         25    1    3    3    0    0  0.52427807259E+02  0.42154872388E+02 -0.23336031093E+03  0.27318537855E+03  0.12509000000E+03 0.  0.
<mgrwt>
<rscale>  2 0.47050091E+03</rscale>
<asrwt>0</asrwt>
<pdfrwt beam="1">  1       21 0.19540993E-01 0.47050091E+03</pdfrwt>
<pdfrwt beam="2">  1       21 0.61248647E-01 0.47050091E+03</pdfrwt>
<totfact> 0.54859564E+04</totfact>
</mgrwt>
</event>
<event>
 7    0  0.4707675E-002  0.4458252E+03  0.7546771E-02  0.1028974E+00
         21   -1    0    0  502  501  0.00000000000E+00  0.00000000000E+00  0.35920491295E+03  0.35920491295E+03  0.00000000000E+00 0. -1.
         21   -1    0    0  501  502 -0.00000000000E+00 -0.00000000000E+00 -0.13833335710E+03  0.13833335710E+03  0.00000000000E+00 0. -1.
      99926    2    1    2    0    0  0.14210854715E-13 -0.71054273576E-14  0.22087155585E+03  0.49753827004E+03  0.44582517423E+03 0.  0.
      99925    2    3    3    0    0 -0.90152739841E+02  0.44671783542E+02  0.17085163481E+03  0.32939373297E+03  0.26303396256E+03 0.  0.
         25    1    4    4    0    0 -0.77798761180E+02  0.47141764950E+02  0.10945262865E+03  0.18947923174E+03  0.12509000000E+03 0.  0.
         25    1    4    4    0    0 -0.12353978661E+02 -0.24699814079E+01  0.61399006157E+02  0.13991450123E+03  0.12509000000E+03 0.  0.
         25    1    3    3    0    0  0.90152739841E+02 -0.44671783542E+02  0.50019921041E+02  0.16814453707E+03  0.12509000000E+03 0.  0.
<mgrwt>
<rscale>  2 0.44582517E+03</rscale>
<asrwt>0</asrwt>
<pdfrwt beam="1">  1       21 0.52824252E-01 0.44582517E+03</pdfrwt>
<pdfrwt beam="2">  1       21 0.20343141E-01 0.44582517E+03</pdfrwt>
<totfact> 0.70435427E+04</totfact>
</mgrwt>
</event>
<event>
 7    0  0.4707675E-002  0.4626351E+03  0.7546771E-02  0.1024020E+00
         21   -1    0    0  502  501  0.00000000000E+00  0.00000000000E+00  0.28589023441E+03  0.28589023441E+03  0.00000000000E+00 0. -1.
         21   -1    0    0  501  502 -0.00000000000E+00 -0.00000000000E+00 -0.18716205454E+03  0.18716205454E+03  0.00000000000E+00 0. -1.
      99926    2    1    2    0    0 -0.14210854715E-13  0.00000000000E+00  0.98728179872E+02  0.47305228895E+03  0.46263507712E+03 0.  0.
      99925    2    3    3    0    0  0.12009379295E+03 -0.34786274532E+01  0.68098687096E+02  0.29692649902E+03  0.26285603413E+03 0.  0.
         25    1    4    4    0    0  0.24882261235E+02  0.46811426827E+01  0.61930641864E+01  0.12777676692E+03  0.12509000000E+03 0.  0.
         25    1    4    4    0    0  0.95211531713E+02 -0.81597701359E+01  0.61905622910E+02  0.16914973209E+03  0.12509000000E+03 0.  0.
         25    1    3    3    0    0 -0.12009379295E+03  0.34786274532E+01  0.30629492776E+02  0.17612578994E+03  0.12509000000E+03 0.  0.
<mgrwt>
<rscale>  2 0.46263508E+03</rscale>
<asrwt>0</asrwt>
<pdfrwt beam="1">  1       21 0.42042682E-01 0.46263508E+03</pdfrwt>
<pdfrwt beam="2">  1       21 0.27523831E-01 0.46263508E+03</pdfrwt>
<totfact> 0.63287616E+04</totfact>
</mgrwt>
</event>
<event>
 7    0  0.4707675E-002  0.4557210E+03  0.7546771E-02  0.1026030E+00
         21   -1    0    0  502  501  0.00000000000E+00  0.00000000000E+00  0.52144879816E+02  0.52144879816E+02  0.00000000000E+00 0.  1.
         21   -1    0    0  501  502 -0.00000000000E+00 -0.00000000000E+00 -0.99569537722E+03  0.99569537722E+03  0.00000000000E+00 0.  1.
      99926    2    1    2    0    0  0.14210854715E-13 -0.71054273576E-14 -0.94355049740E+03  0.10478402570E+04  0.45572103651E+03 0.  0.
      99925    2    3    3    0    0  0.98721876182E+02 -0.35971340677E+02 -0.69361520822E+03  0.74925173906E+03  0.26312765956E+03 0.  0.
         25    1    3    3    0    0 -0.98721876182E+02  0.35971340677E+02 -0.24993528918E+03  0.29858851797E+03  0.12509000000E+03 0.  0.
         25    1    4    4    0    0  0.61401158042E+02  0.12620421840E+02 -0.41124807769E+03  0.43439828125E+03  0.12509000000E+03 0.  0.
         25    1    4    4    0    0  0.37320718140E+02 -0.48591762517E+02 -0.28236713054E+03  0.31485345781E+03  0.12509000000E+03 0.  0.
<mgrwt>
<rscale>  2 0.45572104E+03</rscale>
<asrwt>0</asrwt>
<pdfrwt beam="1">  1       21 0.76683653E-02 0.45572104E+03</pdfrwt>
<pdfrwt beam="2">  1       21 0.14642578E+00 0.45572104E+03</pdfrwt>
<totfact> 0.37147231E+04</totfact>
</mgrwt>
</event>
<event>
 7    0  0.4707675E-002  0.4574753E+03  0.7546771E-02  0.1025516E+00
         21   -1    0    0  502  501  0.00000000000E+00  0.00000000000E+00  0.13694360230E+03  0.13694360230E+03  0.00000000000E+00 0.  1.
         21   -1    0    0  501  502 -0.00000000000E+00 -0.00000000000E+00 -0.38206171977E+03  0.38206171977E+03  0.00000000000E+00 0.  1.
      99926    2    1    2    0    0  0.00000000000E+00 -0.14210854715E-13 -0.24511811747E+03  0.51900532207E+03  0.45747528111E+03 0.  0.
      99925    2    3    3    0    0 -0.76853157002E+02 -0.77888761638E+02 -0.11229654218E+03  0.30625630117E+03  0.26307668405E+03 0.  0.
         25    1    4    4    0    0 -0.19865733895E+02 -0.91565252919E+01 -0.24726851781E+02  0.12937316042E+03  0.12509000000E+03 0.  0.
         25    1    4    4    0    0 -0.56987423107E+02 -0.68732236346E+02 -0.87569690399E+02  0.17688314075E+03  0.12509000000E+03 0.  0.
         25    1    3    3    0    0  0.76853157002E+02  0.77888761638E+02 -0.13282157529E+03  0.21274902090E+03  0.12509000000E+03 0.  0.
<mgrwt>
<rscale>  2 0.45747528E+03</rscale>
<asrwt>0</asrwt>
<pdfrwt beam="1">  1       21 0.20138765E-01 0.45747528E+03</pdfrwt>
<pdfrwt beam="2">  1       21 0.56185547E-01 0.45747528E+03</pdfrwt>
<totfact> 0.62714306E+04</totfact>
</mgrwt>
</event>
<event>
 7    0  0.4707675E-002  0.4619030E+03  0.7546771E-02  0.1024231E+00
         21   -1    0    0  502  501  0.00000000000E+00  0.00000000000E+00  0.16437209877E+03  0.16437209877E+03  0.00000000000E+00 0.  1.
         21   -1    0    0  501  502 -0.00000000000E+00 -0.00000000000E+00 -0.32449914306E+03  0.32449914306E+03  0.00000000000E+00 0.  1.
      99926    2    1    2    0    0  0.00000000000E+00 -0.35527136788E-14 -0.16012704430E+03  0.48887124183E+03  0.46190304261E+03 0.  0.
      99925    2    3    3    0    0  0.76931204527E+02  0.26300803475E+02 -0.19294329922E+03  0.33611471274E+03  0.26293695235E+03 0.  0.
         25    1    4    4    0    0  0.18146472905E+02 -0.11157977353E+02 -0.12309727833E+03  0.17678869582E+03  0.12509000000E+03 0.  0.
         25    1    4    4    0    0  0.58784731621E+02  0.37458780828E+02 -0.69846020886E+02  0.15932601692E+03  0.12509000000E+03 0.  0.
         25    1    3    3    0    0 -0.76931204527E+02 -0.26300803475E+02  0.32816254921E+02  0.15275652909E+03  0.12509000000E+03 0.  0.
<mgrwt>
<rscale>  2 0.46190304E+03</rscale>
<asrwt>0</asrwt>
<pdfrwt beam="1">  1       21 0.24172368E-01 0.46190304E+03</pdfrwt>
<pdfrwt beam="2">  1       21 0.47720461E-01 0.46190304E+03</pdfrwt>
<totfact> 0.62560636E+04</totfact>
</mgrwt>
</event>
<event>
 7    0  0.4707675E-002  0.4243183E+03  0.7546771E-02  0.1035670E+00
         21   -1    0    0  502  501  0.00000000000E+00  0.00000000000E+00  0.46017768803E+03  0.46017768803E+03  0.00000000000E+00 0. -1.
         21   -1    0    0  501  502 -0.00000000000E+00 -0.00000000000E+00 -0.97813301392E+02  0.97813301392E+02  0.00000000000E+00 0. -1.
      99926    2    1    2    0    0  0.00000000000E+00  0.00000000000E+00  0.36236438664E+03  0.55799098943E+03  0.42431827155E+03 0.  0.
      99925    2    3    3    0    0  0.66768038737E+02 -0.45848600506E+02  0.24188417882E+03  0.36635838849E+03  0.26296472708E+03 0.  0.
         25    1    3    3    0    0 -0.66768038737E+02  0.45848600506E+02  0.12048020782E+03  0.19163260094E+03  0.12509000000E+03 0.  0.
         25    1    4    4    0    0  0.21100766469E+02  0.11751579790E+02  0.87856654277E+02  0.15475671802E+03  0.12509000000E+03 0.  0.
         25    1    4    4    0    0  0.45667272268E+02 -0.57600180296E+02  0.15402752454E+03  0.21160167046E+03  0.12509000000E+03 0.  0.
<mgrwt>
<rscale>  2 0.42431827E+03</rscale>
<asrwt>0</asrwt>
<pdfrwt beam="1">  1       21 0.67673189E-01 0.42431827E+03</pdfrwt>
<pdfrwt beam="2">  1       21 0.14384309E-01 0.42431827E+03</pdfrwt>
<totfact> 0.78792402E+04</totfact>
</mgrwt>
</event>
<event>
 7    0  0.4707675E-002  0.4612614E+03  0.7546771E-02  0.1024416E+00
         21   -1    0    0  502  501  0.00000000000E+00  0.00000000000E+00  0.29965922492E+03  0.29965922492E+03  0.00000000000E+00 0.  1.
         21   -1    0    0  501  502 -0.00000000000E+00 -0.00000000000E+00 -0.17750335021E+03  0.17750335021E+03  0.00000000000E+00 0.  1.
      99926    2    1    2    0    0  0.00000000000E+00  0.00000000000E+00  0.12215587471E+03  0.47716257513E+03  0.46126138510E+03 0.  0.
      99925    2    3    3    0    0 -0.70330408303E+02 -0.51996227957E+02 -0.69800936148E+01  0.27722863487E+03  0.26297722379E+03 0.  0.
         25    1    3    3    0    0  0.70330408303E+02  0.51996227957E+02  0.12913596833E+03  0.19993394026E+03  0.12509000000E+03 0.  0.
         25    1    4    4    0    0 -0.58981280515E+02  0.47020858481E+01  0.80007853907E+01  0.13860888041E+03  0.12509000000E+03 0.  0.
         25    1    4    4    0    0 -0.11349127788E+02 -0.56698313805E+02 -0.14980879005E+02  0.13861975446E+03  0.12509000000E+03 0.  0.
<mgrwt>
<rscale>  2 0.46126139E+03</rscale>
<asrwt>0</asrwt>
<pdfrwt beam="1">  1       21 0.44067533E-01 0.46126139E+03</pdfrwt>
<pdfrwt beam="2">  1       21 0.26103434E-01 0.46126139E+03</pdfrwt>
<totfact> 0.63683838E+04</totfact>
</mgrwt>
</event>
<event>
 7    0  0.4707675E-002  0.4529100E+03  0.7546771E-02  0.1026858E+00
         21   -1    0    0  502  501  0.00000000000E+00  0.00000000000E+00  0.91422844157E+03  0.91422844157E+03  0.00000000000E+00 0.  1.
         21   -1    0    0  501  502 -0.00000000000E+00 -0.00000000000E+00 -0.56093047582E+02  0.56093047582E+02  0.00000000000E+00 0.  1.
      99926    2    1    2    0    0  0.00000000000E+00  0.00000000000E+00  0.85813539399E+03  0.97032148915E+03  0.45290996665E+03 0.  0.
      99925    2    3    3    0    0 -0.24390424071E+02 -0.47218987354E+02  0.75037054944E+03  0.79687035663E+03  0.26291039967E+03 0.  0.
         25    1    3    3    0    0  0.24390424071E+02  0.47218987354E+02  0.10776484455E+03  0.17345113252E+03  0.12509000000E+03 0.  0.
         25    1    4    4    0    0  0.11570304608E+01 -0.26341738195E+02  0.26009479251E+03  0.28981379381E+03  0.12509000000E+03 0.  0.
         25    1    4    4    0    0 -0.25547454531E+02 -0.20877249160E+02  0.49027575693E+03  0.50705656282E+03  0.12509000000E+03 0.  0.
<mgrwt>
<rscale>  2 0.45290997E+03</rscale>
<asrwt>0</asrwt>
<pdfrwt beam="1">  1       21 0.13444535E+00 0.45290997E+03</pdfrwt>
<pdfrwt beam="2">  1       21 0.82489782E-02 0.45290997E+03</pdfrwt>
<totfact> 0.40994462E+04</totfact>
</mgrwt>
</event>
<event>
 7    0  0.4707675E-002  0.4589290E+03  0.7546771E-02  0.1025092E+00
         21   -1    0    0  502  501  0.00000000000E+00  0.00000000000E+00  0.32509156930E+02  0.32509156930E+02  0.00000000000E+00 0.  1.
         21   -1    0    0  501  502 -0.00000000000E+00 -0.00000000000E+00 -0.16196651081E+04  0.16196651081E+04  0.00000000000E+00 0.  1.
      99926    2    1    2    0    0  0.00000000000E+00  0.00000000000E+00 -0.15871559512E+04  0.16521742650E+04  0.45892895822E+03 0.  0.
      99925    2    3    3    0    0 -0.10756165398E+03  0.78183519483E+01 -0.11577715402E+04  0.11921208806E+04  0.26284333479E+03 0.  0.
         25    1    4    4    0    0 -0.86788467184E+02 -0.22040984978E+02 -0.62789407337E+03  0.64646463053E+03  0.12509000000E+03 0.  0.
         25    1    4    4    0    0 -0.20773186800E+02  0.29859336926E+02 -0.52987746683E+03  0.54565625008E+03  0.12509000000E+03 0.  0.
         25    1    3    3    0    0  0.10756165398E+03 -0.78183519483E+01 -0.42938441095E+03  0.46005338441E+03  0.12509000000E+03 0.  0.
<mgrwt>
<rscale>  2 0.45892896E+03</rscale>
<asrwt>0</asrwt>
<pdfrwt beam="1">  1       21 0.47807572E-02 0.45892896E+03</pdfrwt>
<pdfrwt beam="2">  1       21 0.23818610E+00 0.45892896E+03</pdfrwt>
<totfact> 0.19669134E+04</totfact>
</mgrwt>
</event>
<event>
 7    0  0.4707675E-002  0.4474650E+03  0.7546771E-02  0.1028481E+00
         21   -1    0    0  502  501  0.00000000000E+00  0.00000000000E+00  0.15261445292E+04  0.15261445292E+04  0.00000000000E+00 0. -1.
         21   -1    0    0  501  502 -0.00000000000E+00 -0.00000000000E+00 -0.32799148448E+02  0.32799148448E+02  0.00000000000E+00 0. -1.
      99926    2    1    2    0    0 -0.14210854715E-13 -0.71054273576E-14  0.14933453807E+04  0.15589436776E+04  0.44746504206E+03 0.  0.
      99925    2    3    3    0    0  0.75491605173E+02  0.53332397291E+02  0.76576687083E+03  0.81492665953E+03  0.26298903569E+03 0.  0.
         25    1    3    3    0    0 -0.75491605173E+02 -0.53332397291E+02  0.72757850991E+03  0.74401701811E+03  0.12509000000E+03 0.  0.
         25    1    4    4    0    0  0.29124234002E+02 -0.10214662500E+02  0.40746379841E+03  0.42734858775E+03  0.12509000000E+03 0.  0.
         25    1    4    4    0    0  0.46367371172E+02  0.63547059791E+02  0.35830307242E+03  0.38757807178E+03  0.12509000000E+03 0.  0.
<mgrwt>
<rscale>  2 0.44746504E+03</rscale>
<asrwt>0</asrwt>
<pdfrwt beam="1">  1       21 0.22443297E+00 0.44746504E+03</pdfrwt>
<pdfrwt beam="2">  1       21 0.48234052E-02 0.44746504E+03</pdfrwt>
<totfact> 0.23729352E+04</totfact>
</mgrwt>
</event>
<event>
 7    0  0.4707675E-002  0.4528975E+03  0.7546771E-02  0.1026861E+00
         21   -1    0    0  502  501  0.00000000000E+00  0.00000000000E+00  0.12842553772E+03  0.12842553772E+03  0.00000000000E+00 0.  1.
         21   -1    0    0  501  502 -0.00000000000E+00 -0.00000000000E+00 -0.39929001678E+03  0.39929001678E+03  0.00000000000E+00 0.  1.
      99926    2    1    2    0    0 -0.14210854715E-13  0.00000000000E+00 -0.27086447906E+03  0.52771555450E+03  0.45289749441E+03 0.  0.
      99925    2    3    3    0    0  0.10593047280E+03  0.11176997875E+02 -0.13351371870E+03  0.31356857269E+03  0.26296985825E+03 0.  0.
         25    1    4    4    0    0  0.92633683255E+02  0.10331718743E+02 -0.91961424660E+02  0.18108604422E+03  0.12509000000E+03 0.  0.
         25    1    3    3    0    0 -0.10593047280E+03 -0.11176997875E+02 -0.13735076036E+03  0.21414698182E+03  0.12509000000E+03 0.  0.
         25    1    4    4    0    0  0.13296789540E+02  0.84527913187E+00 -0.41552294039E+02  0.13248252847E+03  0.12509000000E+03 0.  0.
<mgrwt>
<rscale>  2 0.45289749E+03</rscale>
<asrwt>0</asrwt>
<pdfrwt beam="1">  1       21 0.18886109E-01 0.45289749E+03</pdfrwt>
<pdfrwt beam="2">  1       21 0.58719119E-01 0.45289749E+03</pdfrwt>
<totfact> 0.64428468E+04</totfact>
</mgrwt>
</event>
<event>
 7    0  0.4707675E-002  0.4516405E+03  0.7546771E-02  0.1027234E+00
         21   -1    0    0  502  501  0.00000000000E+00  0.00000000000E+00  0.33471475361E+03  0.33471475361E+03  0.00000000000E+00 0.  1.
         21   -1    0    0  501  502 -0.00000000000E+00 -0.00000000000E+00 -0.15235296558E+03  0.15235296558E+03  0.00000000000E+00 0.  1.
      99926    2    1    2    0    0  0.00000000000E+00  0.14210854715E-13  0.18236178803E+03  0.48706771919E+03  0.45164050011E+03 0.  0.
      99925    2    3    3    0    0 -0.36804359077E+02 -0.10321452949E+03  0.12042647136E+03  0.30960986082E+03  0.26333995323E+03 0.  0.
         25    1    4    4    0    0 -0.46067540504E+02 -0.36616166699E+02  0.30653427440E+02  0.14159838511E+03  0.12509000000E+03 0.  0.
         25    1    4    4    0    0  0.92631814267E+01 -0.66598362787E+02  0.89773043921E+02  0.16801147571E+03  0.12509000000E+03 0.  0.
         25    1    3    3    0    0  0.36804359077E+02  0.10321452949E+03  0.61935316674E+02  0.17745785837E+03  0.12509000000E+03 0.  0.
<mgrwt>
<rscale>  2 0.45164050E+03</rscale>
<asrwt>0</asrwt>
<pdfrwt beam="1">  1       21 0.49222758E-01 0.45164050E+03</pdfrwt>
<pdfrwt beam="2">  1       21 0.22404848E-01 0.45164050E+03</pdfrwt>
<totfact> 0.67984233E+04</totfact>
</mgrwt>
</event>
<event>
 7    0  0.4707675E-002  0.4538391E+03  0.7546771E-02  0.1026583E+00
         21   -1    0    0  502  501  0.00000000000E+00  0.00000000000E+00  0.69590175818E+02  0.69590175818E+02  0.00000000000E+00 0. -1.
         21   -1    0    0  501  502 -0.00000000000E+00 -0.00000000000E+00 -0.73993904019E+03  0.73993904019E+03  0.00000000000E+00 0. -1.
      99926    2    1    2    0    0 -0.14210854715E-13  0.00000000000E+00 -0.67034886437E+03  0.80952921601E+03  0.45383912525E+03 0.  0.
      99925    2    3    3    0    0 -0.65172229999E+02 -0.31387002816E+02 -0.57497628306E+03  0.63639342862E+03  0.26299487904E+03 0.  0.
         25    1    3    3    0    0  0.65172229999E+02  0.31387002816E+02 -0.95372581316E+02  0.17313578739E+03  0.12509000000E+03 0.  0.
         25    1    4    4    0    0 -0.22728690424E+02  0.12376601431E+02 -0.21012981129E+03  0.24591018548E+03  0.12509000000E+03 0.  0.
         25    1    4    4    0    0 -0.42443539575E+02 -0.43763604248E+02 -0.36484647177E+03  0.39048324313E+03  0.12509000000E+03 0.  0.
<mgrwt>
<rscale>  2 0.45383913E+03</rscale>
<asrwt>0</asrwt>
<pdfrwt beam="1">  1       21 0.10233850E-01 0.45383913E+03</pdfrwt>
<pdfrwt beam="2">  1       21 0.10881456E+00 0.45383913E+03</pdfrwt>
<totfact> 0.47740763E+04</totfact>
</mgrwt>
</event>
<event>
 7    0  0.4707675E-002  0.4584670E+03  0.7546771E-02  0.1025227E+00
         21   -1    0    0  502  501  0.00000000000E+00  0.00000000000E+00  0.15180642187E+03  0.15180642187E+03  0.00000000000E+00 0.  1.
         21   -1    0    0  501  502 -0.00000000000E+00 -0.00000000000E+00 -0.34615142147E+03  0.34615142147E+03  0.00000000000E+00 0.  1.
      99926    2    1    2    0    0  0.71054273576E-14  0.14210854715E-13 -0.19434499960E+03  0.49795784334E+03  0.45846704884E+03 0.  0.
      99925    2    3    3    0    0 -0.39437892694E+02 -0.77921280950E+02 -0.20551058540E+03  0.34498970348E+03  0.26297570495E+03 0.  0.
         25    1    4    4    0    0 -0.40984485500E+02 -0.55707275281E+01 -0.84689541114E+02  0.15662243623E+03  0.12509000000E+03 0.  0.
         25    1    4    4    0    0  0.15465928058E+01 -0.72350553422E+02 -0.12082104428E+03  0.18836726725E+03  0.12509000000E+03 0.  0.
         25    1    3    3    0    0  0.39437892694E+02  0.77921280950E+02  0.11165585796E+02  0.15296813986E+03  0.12509000000E+03 0.  0.
<mgrwt>
<rscale>  2 0.45846705E+03</rscale>
<asrwt>0</asrwt>
<pdfrwt beam="1">  1       21 0.22324474E-01 0.45846705E+03</pdfrwt>
<pdfrwt beam="2">  1       21 0.50904620E-01 0.45846705E+03</pdfrwt>
<totfact> 0.63644555E+04</totfact>
</mgrwt>
</event>
<event>
 7    0  0.4707675E-002  0.4746349E+03  0.7546771E-02  0.1020620E+00
         21   -1    0    0  502  501  0.00000000000E+00  0.00000000000E+00  0.12109964684E+03  0.12109964684E+03  0.00000000000E+00 0. -1.
         21   -1    0    0  501  502 -0.00000000000E+00 -0.00000000000E+00 -0.46506799763E+03  0.46506799763E+03  0.00000000000E+00 0. -1.
      99926    2    1    2    0    0  0.00000000000E+00  0.00000000000E+00 -0.34396835079E+03  0.58616764447E+03  0.47463489239E+03 0.  0.
      99925    2    3    3    0    0  0.92739176140E+02 -0.78292754394E+02 -0.27270927841E+03  0.39787087424E+03  0.26306001569E+03 0.  0.
         25    1    4    4    0    0  0.38125343542E+02 -0.71649688848E+02 -0.10946700858E+03  0.18498041464E+03  0.12509000000E+03 0.  0.
         25    1    4    4    0    0  0.54613832598E+02 -0.66430655457E+01 -0.16324226983E+03  0.21289045961E+03  0.12509000000E+03 0.  0.
         25    1    3    3    0    0 -0.92739176140E+02  0.78292754394E+02 -0.71259072378E+02  0.18829677023E+03  0.12509000000E+03 0.  0.
<mgrwt>
<rscale>  2 0.47463489E+03</rscale>
<asrwt>0</asrwt>
<pdfrwt beam="1">  1       21 0.17808771E-01 0.47463489E+03</pdfrwt>
<pdfrwt beam="2">  1       21 0.68392354E-01 0.47463489E+03</pdfrwt>
<totfact> 0.51127819E+04</totfact>
</mgrwt>
</event>
<event>
 7    0  0.4707675E-002  0.4532794E+03  0.7546771E-02  0.1026749E+00
         21   -1    0    0  502  501  0.00000000000E+00  0.00000000000E+00  0.60582122551E+02  0.60582122551E+02  0.00000000000E+00 0. -1.
         21   -1    0    0  501  502 -0.00000000000E+00 -0.00000000000E+00 -0.84786668725E+03  0.84786668725E+03  0.00000000000E+00 0. -1.
      99926    2    1    2    0    0  0.00000000000E+00  0.14210854715E-13 -0.78728456470E+03  0.90844880980E+03  0.45327944385E+03 0.  0.
      99925    2    3    3    0    0 -0.51537164229E+02 -0.66471874245E+02 -0.34952397454E+03  0.44546238262E+03  0.26304968387E+03 0.  0.
         25    1    3    3    0    0  0.51537164229E+02  0.66471874245E+02 -0.43776059016E+03  0.46298642719E+03  0.12509000000E+03 0.  0.
         25    1    4    4    0    0  0.75497131943E+01 -0.86634541977E+01 -0.14457600248E+03  0.19152488663E+03  0.12509000000E+03 0.  0.
         25    1    4    4    0    0 -0.59086877423E+02 -0.57808420047E+02 -0.20494797207E+03  0.25393749598E+03  0.12509000000E+03 0.  0.
<mgrwt>
<rscale>  2 0.45327944E+03</rscale>
<asrwt>0</asrwt>
<pdfrwt beam="1">  1       21 0.89091371E-02 0.45327944E+03</pdfrwt>
<pdfrwt beam="2">  1       21 0.12468626E+00 0.45327944E+03</pdfrwt>
<totfact> 0.43452786E+04</totfact>
</mgrwt>
</event>
<event>
 7    0  0.4707675E-002  0.4545398E+03  0.7546771E-02  0.1026377E+00
         21   -1    0    0  502  501  0.00000000000E+00  0.00000000000E+00  0.17099944036E+04  0.17099944036E+04  0.00000000000E+00 0.  1.
         21   -1    0    0  501  502 -0.00000000000E+00 -0.00000000000E+00 -0.30205717827E+02  0.30205717827E+02  0.00000000000E+00 0.  1.
      99926    2    1    2    0    0  0.00000000000E+00  0.00000000000E+00  0.16797886857E+04  0.17402001214E+04  0.45453980437E+03 0.  0.
      99925    2    3    3    0    0  0.14808797241E+02  0.10396176336E+03  0.90189033569E+03  0.94534120320E+03  0.26312822758E+03 0.  0.
         25    1    4    4    0    0  0.42511233172E+02  0.53732461011E+02  0.52820217115E+03  0.54711920458E+03  0.12509000000E+03 0.  0.
         25    1    3    3    0    0 -0.14808797241E+02 -0.10396176336E+03  0.77789835006E+03  0.79485891820E+03  0.12509000000E+03 0.  0.
         25    1    4    4    0    0 -0.27702435931E+02  0.50229302348E+02  0.37368816453E+03  0.39822199862E+03  0.12509000000E+03 0.  0.
<mgrwt>
<rscale>  2 0.45453980E+03</rscale>
<asrwt>0</asrwt>
<pdfrwt beam="1">  1       21 0.25146970E+00 0.45453980E+03</pdfrwt>
<pdfrwt beam="2">  1       21 0.44420185E-02 0.45453980E+03</pdfrwt>
<totfact> 0.18503352E+04</totfact>
</mgrwt>
</event>
<event>
 7    0  0.4707675E-002  0.4587117E+03  0.7546771E-02  0.1025156E+00
         21   -1    0    0  502  501  0.00000000000E+00  0.00000000000E+00  0.10210891038E+04  0.10210891038E+04  0.00000000000E+00 0.  1.
         21   -1    0    0  501  502 -0.00000000000E+00 -0.00000000000E+00 -0.51517655948E+02  0.51517655948E+02  0.00000000000E+00 0.  1.
      99926    2    1    2    0    0  0.00000000000E+00  0.00000000000E+00  0.96957144784E+03  0.10726067597E+04  0.45871174888E+03 0.  0.
      99925    2    3    3    0    0 -0.60404324324E+02  0.50282869835E+02  0.40663973869E+03  0.49061305989E+03  0.26299857044E+03 0.  0.
         25    1    4    4    0    0 -0.62631994214E+02  0.39552967503E+02  0.25699252993E+03  0.29526237905E+03  0.12509000000E+03 0.  0.
         25    1    3    3    0    0  0.60404324324E+02 -0.50282869835E+02  0.56293170915E+03  0.58199369985E+03  0.12509000000E+03 0.  0.
         25    1    4    4    0    0  0.22276698892E+01  0.10729902332E+02  0.14964720875E+03  0.19535068084E+03  0.12509000000E+03 0.  0.
<mgrwt>
<rscale>  2 0.45871175E+03</rscale>
<asrwt>0</asrwt>
<pdfrwt beam="1">  1       21 0.15016015E+00 0.45871175E+03</pdfrwt>
<pdfrwt beam="2">  1       21 0.75761265E-02 0.45871175E+03</pdfrwt>
<totfact> 0.35421530E+04</totfact>
</mgrwt>
</event>
<event>
 7    0  0.4707675E-002  0.4239847E+03  0.7546771E-02  0.1035777E+00
         21   -1    0    0  502  501  0.00000000000E+00  0.00000000000E+00  0.38062666022E+02  0.38062666022E+02  0.00000000000E+00 0.  1.
         21   -1    0    0  501  502 -0.00000000000E+00 -0.00000000000E+00 -0.11807045009E+04  0.11807045009E+04  0.00000000000E+00 0.  1.
      99926    2    1    2    0    0 -0.71054273576E-14  0.00000000000E+00 -0.11426418349E+04  0.12187671669E+04  0.42398472184E+03 0.  0.
      99925    2    3    3    0    0  0.60474505580E+02  0.27902949310E+02 -0.87218211712E+03  0.91342849031E+03  0.26308595758E+03 0.  0.
         25    1    3    3    0    0 -0.60474505580E+02 -0.27902949310E+02 -0.27045971774E+03  0.30533867659E+03  0.12509000000E+03 0.  0.
         25    1    4    4    0    0  0.56332692028E+02  0.36257911585E+02 -0.54059906383E+03  0.55891221516E+03  0.12509000000E+03 0.  0.
         25    1    4    4    0    0  0.41418135514E+01 -0.83549622758E+01 -0.33158305330E+03  0.35451627515E+03  0.12509000000E+03 0.  0.
<mgrwt>
<rscale>  2 0.42398472E+03</rscale>
<asrwt>0</asrwt>
<pdfrwt beam="1">  1       21 0.55974513E-02 0.42398472E+03</pdfrwt>
<pdfrwt beam="2">  1       21 0.17363300E+00 0.42398472E+03</pdfrwt>
<totfact> 0.40497349E+04</totfact>
</mgrwt>
</event>
<event>
 7    0  0.4707675E-002  0.4909066E+03  0.7546771E-02  0.1016180E+00
         21   -1    0    0  502  501  0.00000000000E+00  0.00000000000E+00  0.22203296961E+03  0.22203296961E+03  0.00000000000E+00 0. -1.
         21   -1    0    0  501  502 -0.00000000000E+00 -0.00000000000E+00 -0.27134403377E+03  0.27134403377E+03  0.00000000000E+00 0. -1.
      99926    2    1    2    0    0  0.00000000000E+00  0.17763568394E-14 -0.49311064159E+02  0.49337700338E+03  0.49090659642E+03 0.  0.
      99925    2    3    3    0    0 -0.14341903379E+03 -0.15363996028E+02 -0.27749781635E+02  0.30123781260E+03  0.26300018581E+03 0.  0.
         25    1    4    4    0    0 -0.53146806075E+02 -0.32062311113E+02 -0.40927151018E+02  0.14551671581E+03  0.12509000000E+03 0.  0.
         25    1    4    4    0    0 -0.90272227712E+02  0.16698315085E+02  0.13177369383E+02  0.15572109679E+03  0.12509000000E+03 0.  0.
         25    1    3    3    0    0  0.14341903379E+03  0.15363996028E+02 -0.21561282524E+02  0.19213919077E+03  0.12509000000E+03 0.  0.
<mgrwt>
<rscale>  2 0.49090660E+03</rscale>
<asrwt>0</asrwt>
<pdfrwt beam="1">  1       21 0.32651908E-01 0.49090660E+03</pdfrwt>
<pdfrwt beam="2">  1       21 0.39903534E-01 0.49090660E+03</pdfrwt>
<totfact> 0.49912865E+04</totfact>
</mgrwt>
</event>
<event>
 7    0  0.4707675E-002  0.4870244E+03  0.7546771E-02  0.1017222E+00
         21   -1    0    0  502  501  0.00000000000E+00  0.00000000000E+00  0.34624860067E+03  0.34624860067E+03  0.00000000000E+00 0. -1.
         21   -1    0    0  501  502 -0.00000000000E+00 -0.00000000000E+00 -0.17125903997E+03  0.17125903997E+03  0.00000000000E+00 0. -1.
      99926    2    1    2    0    0 -0.71054273576E-14  0.00000000000E+00  0.17498956070E+03  0.51750764064E+03  0.48702444679E+03 0.  0.
      99925    2    3    3    0    0  0.59466986697E+02  0.12415081937E+03  0.73995814290E+02  0.30585463837E+03  0.26291049964E+03 0.  0.
         25    1    4    4    0    0 -0.11381032742E+02  0.57681504159E+02  0.39618312280E+02  0.14378387460E+03  0.12509000000E+03 0.  0.
         25    1    4    4    0    0  0.70848019439E+02  0.66469315210E+02  0.34377502011E+02  0.16207076377E+03  0.12509000000E+03 0.  0.
         25    1    3    3    0    0 -0.59466986697E+02 -0.12415081937E+03  0.10099374641E+03  0.21165300227E+03  0.12509000000E+03 0.  0.
<mgrwt>
<rscale>  2 0.48702445E+03</rscale>
<asrwt>0</asrwt>
<pdfrwt beam="1">  1       21 0.50918912E-01 0.48702445E+03</pdfrwt>
<pdfrwt beam="2">  1       21 0.25185153E-01 0.48702445E+03</pdfrwt>
<totfact> 0.50067560E+04</totfact>
</mgrwt>
</event>
<event>
 7    0  0.4707675E-002  0.4610297E+03  0.7546771E-02  0.1024483E+00
         21   -1    0    0  502  501  0.00000000000E+00  0.00000000000E+00  0.44014747278E+03  0.44014747278E+03  0.00000000000E+00 0. -1.
         21   -1    0    0  501  502 -0.00000000000E+00 -0.00000000000E+00 -0.12072565404E+03  0.12072565404E+03  0.00000000000E+00 0. -1.
      99926    2    1    2    0    0  0.35527136788E-14  0.00000000000E+00  0.31942181873E+03  0.56087312682E+03  0.46102968029E+03 0.  0.
      99925    2    3    3    0    0 -0.24305951015E+02  0.79201838739E+02  0.30313814230E+03  0.40995468284E+03  0.26326108363E+03 0.  0.
         25    1    4    4    0    0  0.18133935463E+02  0.32068230273E+02  0.18635358238E+03  0.22744752532E+03  0.12509000000E+03 0.  0.
         25    1    4    4    0    0 -0.42439886478E+02  0.47133608467E+02  0.11678455992E+03  0.18250715752E+03  0.12509000000E+03 0.  0.
         25    1    3    3    0    0  0.24305951015E+02 -0.79201838739E+02  0.16283676431E+02  0.15091844398E+03  0.12509000000E+03 0.  0.
<mgrwt>
<rscale>  2 0.46102968E+03</rscale>
<asrwt>0</asrwt>
<pdfrwt beam="1">  1       21 0.64727569E-01 0.46102968E+03</pdfrwt>
<pdfrwt beam="2">  1       21 0.17753773E-01 0.46102968E+03</pdfrwt>
<totfact> 0.58321912E+04</totfact>
</mgrwt>
</event>
<event>
 7    0  0.4707675E-002  0.4550600E+03  0.7546771E-02  0.1026224E+00
         21   -1    0    0  502  501  0.00000000000E+00  0.00000000000E+00  0.35260599573E+03  0.35260599573E+03  0.00000000000E+00 0. -1.
         21   -1    0    0  501  502 -0.00000000000E+00 -0.00000000000E+00 -0.14682079286E+03  0.14682079286E+03  0.00000000000E+00 0. -1.
      99926    2    1    2    0    0  0.14210854715E-13  0.00000000000E+00  0.20578520287E+03  0.49942678859E+03  0.45505996027E+03 0.  0.
      99925    2    3    3    0    0  0.64229358370E+02 -0.61822095118E+02  0.20570149897E+03  0.34582048329E+03  0.26330840864E+03 0.  0.
         25    1    4    4    0    0  0.37038485738E+01 -0.59819304637E+02  0.11085827081E+03  0.17756444466E+03  0.12509000000E+03 0.  0.
         25    1    3    3    0    0 -0.64229358370E+02  0.61822095118E+02  0.83703899224E-01  0.15360630530E+03  0.12509000000E+03 0.  0.
         25    1    4    4    0    0  0.60525509797E+02 -0.20027904815E+01  0.94843228164E+02  0.16825603863E+03  0.12509000000E+03 0.  0.
<mgrwt>
<rscale>  2 0.45505996E+03</rscale>
<asrwt>0</asrwt>
<pdfrwt beam="1">  1       21 0.51853823E-01 0.45505996E+03</pdfrwt>
<pdfrwt beam="2">  1       21 0.21591293E-01 0.45505996E+03</pdfrwt>
<totfact> 0.65279872E+04</totfact>
</mgrwt>
</event>
<event>
 7    0  0.4707675E-002  0.4543516E+03  0.7546771E-02  0.1026432E+00
         21   -1    0    0  502  501  0.00000000000E+00  0.00000000000E+00  0.10402960845E+04  0.10402960845E+04  0.00000000000E+00 0.  1.
         21   -1    0    0  501  502 -0.00000000000E+00 -0.00000000000E+00 -0.49609772547E+02  0.49609772547E+02  0.00000000000E+00 0.  1.
      99926    2    1    2    0    0  0.00000000000E+00  0.00000000000E+00  0.99068631194E+03  0.10899058570E+04  0.45435163534E+03 0.  0.
      99925    2    3    3    0    0 -0.96807267035E+02 -0.45444029235E+02  0.53934542249E+03  0.60949674666E+03  0.26297527009E+03 0.  0.
         25    1    4    4    0    0 -0.50390299796E+02 -0.13682133633E+02  0.35291109022E+03  0.37804778639E+03  0.12509000000E+03 0.  0.
         25    1    3    3    0    0  0.96807267035E+02  0.45444029235E+02  0.45134088945E+03  0.48040911038E+03  0.12509000000E+03 0.  0.
         25    1    4    4    0    0 -0.46416967239E+02 -0.31761895602E+02  0.18643433227E+03  0.23144896027E+03  0.12509000000E+03 0.  0.
<mgrwt>
<rscale>  2 0.45435164E+03</rscale>
<asrwt>0</asrwt>
<pdfrwt beam="1">  1       21 0.15298470E+00 0.45435164E+03</pdfrwt>
<pdfrwt beam="2">  1       21 0.72955555E-02 0.45435164E+03</pdfrwt>
<totfact> 0.36028152E+04</totfact>
</mgrwt>
</event>
<event>
 7    0  0.4707675E-002  0.4519321E+03  0.7546771E-02  0.1027147E+00
         21   -1    0    0  502  501  0.00000000000E+00  0.00000000000E+00  0.15573175868E+03  0.15573175868E+03  0.00000000000E+00 0.  1.
         21   -1    0    0  501  502 -0.00000000000E+00 -0.00000000000E+00 -0.32787572796E+03  0.32787572796E+03  0.00000000000E+00 0.  1.
      99926    2    1    2    0    0  0.00000000000E+00  0.00000000000E+00 -0.17214396928E+03  0.48360748665E+03  0.45193213537E+03 0.  0.
      99925    2    3    3    0    0 -0.95512025661E+02 -0.18366142677E+02 -0.16421513288E+03  0.32495618098E+03  0.26300199134E+03 0.  0.
         25    1    4    4    0    0 -0.60328104920E+02 -0.41361545569E+02 -0.11156279401E+03  0.18287707019E+03  0.12509000000E+03 0.  0.
         25    1    3    3    0    0  0.95512025661E+02  0.18366142677E+02 -0.79288363946E+01  0.15865130567E+03  0.12509000000E+03 0.  0.
         25    1    4    4    0    0 -0.35183920742E+02  0.22995402892E+02 -0.52652338870E+02  0.14207911078E+03  0.12509000000E+03 0.  0.
<mgrwt>
<rscale>  2 0.45193214E+03</rscale>
<asrwt>0</asrwt>
<pdfrwt beam="1">  1       21 0.22901730E-01 0.45193214E+03</pdfrwt>
<pdfrwt beam="2">  1       21 0.48217018E-01 0.45193214E+03</pdfrwt>
<totfact> 0.68081433E+04</totfact>
</mgrwt>
</event>
<event>
 7    0  0.4707675E-002  0.4514771E+03  0.7546771E-02  0.1027282E+00
         21   -1    0    0  502  501  0.00000000000E+00  0.00000000000E+00  0.53317520430E+03  0.53317520430E+03  0.00000000000E+00 0. -1.
         21   -1    0    0  501  502 -0.00000000000E+00 -0.00000000000E+00 -0.95574391936E+02  0.95574391936E+02  0.00000000000E+00 0. -1.
      99926    2    1    2    0    0  0.00000000000E+00  0.00000000000E+00  0.43760081236E+03  0.62874959623E+03  0.45147711325E+03 0.  0.
      99925    2    3    3    0    0  0.83711764577E+02 -0.38686872422E+02  0.19338730409E+03  0.33928098076E+03  0.26307527609E+03 0.  0.
         25    1    3    3    0    0 -0.83711764577E+02  0.38686872422E+02  0.24421350827E+03  0.28946861548E+03  0.12509000000E+03 0.  0.
         25    1    4    4    0    0  0.38897671744E+02 -0.33668692032E+02  0.51241996439E+02  0.14463699385E+03  0.12509000000E+03 0.  0.
         25    1    4    4    0    0  0.44814092832E+02 -0.50181803898E+01  0.14214530766E+03  0.19464398691E+03  0.12509000000E+03 0.  0.
<mgrwt>
<rscale>  2 0.45147711E+03</rscale>
<asrwt>0</asrwt>
<pdfrwt beam="1">  1       21 0.78408117E-01 0.45147711E+03</pdfrwt>
<pdfrwt beam="2">  1       21 0.14055058E-01 0.45147711E+03</pdfrwt>
<totfact> 0.58554145E+04</totfact>
</mgrwt>
</event>
<event>
 7    0  0.4707675E-002  0.4537228E+03  0.7546771E-02  0.1026618E+00
         21   -1    0    0  502  501  0.00000000000E+00  0.00000000000E+00  0.80350005362E+03  0.80350005362E+03  0.00000000000E+00 0. -1.
         21   -1    0    0  501  502 -0.00000000000E+00 -0.00000000000E+00 -0.64052394177E+02  0.64052394177E+02  0.00000000000E+00 0. -1.
      99926    2    1    2    0    0 -0.71054273576E-14  0.00000000000E+00  0.73944765945E+03  0.86755244780E+03  0.45372283238E+03 0.  0.
      99925    2    3    3    0    0  0.37445375762E+02 -0.10461072821E+03  0.49605287061E+03  0.57219826727E+03  0.26267250714E+03 0.  0.
         25    1    3    3    0    0 -0.37445375762E+02  0.10461072821E+03  0.24339478884E+03  0.29535418053E+03  0.12509000000E+03 0.  0.
         25    1    4    4    0    0  0.59024735553E+02 -0.57297439406E+02  0.26403451043E+03  0.30352701159E+03  0.12509000000E+03 0.  0.
         25    1    4    4    0    0 -0.21579359792E+02 -0.47313288806E+02  0.23201836018E+03  0.26867125568E+03  0.12509000000E+03 0.  0.
<mgrwt>
<rscale>  2 0.45372283E+03</rscale>
<asrwt>0</asrwt>
<pdfrwt beam="1">  1       21 0.11816177E+00 0.45372283E+03</pdfrwt>
<pdfrwt beam="2">  1       21 0.94194702E-02 0.45372283E+03</pdfrwt>
<totfact> 0.45114172E+04</totfact>
</mgrwt>
</event>
<event>
 7    0  0.4707675E-002  0.4272622E+03  0.7546771E-02  0.1034728E+00
         21   -1    0    0  502  501  0.00000000000E+00  0.00000000000E+00  0.31577668673E+03  0.31577668673E+03  0.00000000000E+00 0.  1.
         21   -1    0    0  501  502 -0.00000000000E+00 -0.00000000000E+00 -0.14452696809E+03  0.14452696809E+03  0.00000000000E+00 0.  1.
      99926    2    1    2    0    0  0.00000000000E+00  0.00000000000E+00  0.17124971864E+03  0.46030365481E+03  0.42726220111E+03 0.  0.
      99925    2    3    3    0    0 -0.69445354769E+02  0.48199812952E+02  0.10750356493E+03  0.29642272401E+03  0.26298961114E+03 0.  0.
         25    1    4    4    0    0 -0.47445165110E+02  0.52450254186E+02  0.86192850151E+02  0.16756726522E+03  0.12509000000E+03 0.  0.
         25    1    4    4    0    0 -0.22000189660E+02 -0.42504412339E+01  0.21310714780E+02  0.12885545879E+03  0.12509000000E+03 0.  0.
         25    1    3    3    0    0  0.69445354769E+02 -0.48199812952E+02  0.63746153707E+02  0.16388093080E+03  0.12509000000E+03 0.  0.
<mgrwt>
<rscale>  2 0.42726220E+03</rscale>
<asrwt>0</asrwt>
<pdfrwt beam="1">  1       21 0.46437748E-01 0.42726220E+03</pdfrwt>
<pdfrwt beam="2">  1       21 0.21253966E-01 0.42726220E+03</pdfrwt>
<totfact> 0.85488447E+04</totfact>
</mgrwt>
</event>
<event>
 7    0  0.4707675E-002  0.4585879E+03  0.7546771E-02  0.1025192E+00
         21   -1    0    0  502  501  0.00000000000E+00  0.00000000000E+00  0.73302252095E+03  0.73302252095E+03  0.00000000000E+00 0. -1.
         21   -1    0    0  501  502 -0.00000000000E+00 -0.00000000000E+00 -0.71724544256E+02  0.71724544256E+02  0.00000000000E+00 0. -1.
      99926    2    1    2    0    0  0.00000000000E+00 -0.14210854715E-13  0.66129797669E+03  0.80474706520E+03  0.45858785961E+03 0.  0.
      99925    2    3    3    0    0  0.26967172755E+02 -0.10955871532E+03  0.36356609512E+03  0.46266210220E+03  0.26295546160E+03 0.  0.
         25    1    4    4    0    0  0.21252776750E+01 -0.92205629016E+02  0.17133562126E+03  0.23132184946E+03  0.12509000000E+03 0.  0.
         25    1    3    3    0    0 -0.26967172755E+02  0.10955871532E+03  0.29773188157E+03  0.34208496300E+03  0.12509000000E+03 0.  0.
         25    1    4    4    0    0  0.24841895080E+02 -0.17353086301E+02  0.19223047386E+03  0.23134025274E+03  0.12509000000E+03 0.  0.
<mgrwt>
<rscale>  2 0.45858786E+03</rscale>
<asrwt>0</asrwt>
<pdfrwt beam="1">  1       21 0.10779743E+00 0.45858786E+03</pdfrwt>
<pdfrwt beam="2">  1       21 0.10547728E-01 0.45858786E+03</pdfrwt>
<totfact> 0.46220865E+04</totfact>
</mgrwt>
</event>
<event>
 7    0  0.4707675E-002  0.4504930E+03  0.7546771E-02  0.1027575E+00
         21   -1    0    0  502  501  0.00000000000E+00  0.00000000000E+00  0.64327551705E+03  0.64327551705E+03  0.00000000000E+00 0. -1.
         21   -1    0    0  501  502 -0.00000000000E+00 -0.00000000000E+00 -0.78871318185E+02  0.78871318185E+02  0.00000000000E+00 0. -1.
      99926    2    1    2    0    0  0.00000000000E+00  0.00000000000E+00  0.56440419887E+03  0.72214683524E+03  0.45049300987E+03 0.  0.
      99925    2    3    3    0    0 -0.29184867420E+02 -0.81660285982E+02  0.46219312008E+03  0.53880351924E+03  0.26299542450E+03 0.  0.
         25    1    4    4    0    0 -0.20007874086E+02 -0.74517213273E+00  0.18975043636E+03  0.22815259478E+03  0.12509000000E+03 0.  0.
         25    1    3    3    0    0  0.29184867420E+02  0.81660285982E+02  0.10221107879E+03  0.18334331599E+03  0.12509000000E+03 0.  0.
         25    1    4    4    0    0 -0.91769933347E+01 -0.80915113849E+02  0.27244268372E+03  0.31065092446E+03  0.12509000000E+03 0.  0.
<mgrwt>
<rscale>  2 0.45049301E+03</rscale>
<asrwt>0</asrwt>
<pdfrwt beam="1">  1       21 0.94599338E-01 0.45049301E+03</pdfrwt>
<pdfrwt beam="2">  1       21 0.11598724E-01 0.45049301E+03</pdfrwt>
<totfact> 0.53591601E+04</totfact>
</mgrwt>
</event>
<event>
 7    0  0.4707675E-002  0.4561658E+03  0.7546771E-02  0.1025899E+00
         21   -1    0    0  502  501  0.00000000000E+00  0.00000000000E+00  0.33437626407E+03  0.33437626407E+03  0.00000000000E+00 0.  1.
         21   -1    0    0  501  502 -0.00000000000E+00 -0.00000000000E+00 -0.15557862469E+03  0.15557862469E+03  0.00000000000E+00 0.  1.
      99926    2    1    2    0    0 -0.14210854715E-13 -0.14210854715E-13  0.17879763938E+03  0.48995488876E+03  0.45616575624E+03 0.  0.
      99925    2    3    3    0    0 -0.70725867534E+02 -0.64334752254E+02  0.43080306750E+02  0.28209000196E+03  0.26187353378E+03 0.  0.
         25    1    3    3    0    0  0.70725867534E+02  0.64334752254E+02  0.13571733263E+03  0.20786488679E+03  0.12509000000E+03 0.  0.
         25    1    4    4    0    0 -0.73833436717E+02 -0.41890298481E+02  0.31646686806E+02  0.15445126859E+03  0.12509000000E+03 0.  0.
         25    1    4    4    0    0  0.31075691827E+01 -0.22444453774E+02  0.11433619944E+02  0.12763873337E+03  0.12509000000E+03 0.  0.
<mgrwt>
<rscale>  2 0.45616576E+03</rscale>
<asrwt>0</asrwt>
<pdfrwt beam="1">  1       21 0.49172980E-01 0.45616576E+03</pdfrwt>
<pdfrwt beam="2">  1       21 0.22879209E-01 0.45616576E+03</pdfrwt>
<totfact> 0.65375169E+04</totfact>
</mgrwt>
</event>
<event>
 7    0  0.4707675E-002  0.4660733E+03  0.7546771E-02  0.1023034E+00
         21   -1    0    0  502  501  0.00000000000E+00  0.00000000000E+00  0.48529713645E+02  0.48529713645E+02  0.00000000000E+00 0. -1.
         21   -1    0    0  501  502 -0.00000000000E+00 -0.00000000000E+00 -0.11190275302E+04  0.11190275302E+04  0.00000000000E+00 0. -1.
      99926    2    1    2    0    0  0.00000000000E+00  0.00000000000E+00 -0.10704978166E+04  0.11675572439E+04  0.46607332300E+03 0.  0.
      99925    2    3    3    0    0  0.47549100429E+02  0.71063454954E+02 -0.88954297509E+03  0.93154221397E+03  0.26300809931E+03 0.  0.
         25    1    4    4    0    0 -0.23779636309E+01  0.62487665562E+02 -0.40028224764E+03  0.42400913779E+03  0.12509000000E+03 0.  0.
         25    1    3    3    0    0 -0.47549100429E+02 -0.71063454954E+02 -0.18095484152E+03  0.23601502992E+03  0.12509000000E+03 0.  0.
         25    1    4    4    0    0  0.49927064060E+02  0.85757893912E+01 -0.48926072745E+03  0.50753307618E+03  0.12509000000E+03 0.  0.
<mgrwt>
<rscale>  2 0.46607332E+03</rscale>
<asrwt>0</asrwt>
<pdfrwt beam="1">  1       21 0.71367220E-02 0.46607332E+03</pdfrwt>
<pdfrwt beam="2">  1       21 0.16456288E+00 0.46607332E+03</pdfrwt>
<totfact> 0.30484892E+04</totfact>
</mgrwt>
</event>
<event>
 7    0  0.4707675E-002  0.4551739E+03  0.7546771E-02  0.1026190E+00
         21   -1    0    0  502  501  0.00000000000E+00  0.00000000000E+00  0.64697632605E+03  0.64697632605E+03  0.00000000000E+00 0. -1.
         21   -1    0    0  501  502 -0.00000000000E+00 -0.00000000000E+00 -0.80058308912E+02  0.80058308912E+02  0.00000000000E+00 0. -1.
      99926    2    1    2    0    0  0.35527136788E-14  0.00000000000E+00  0.56691801713E+03  0.72703463496E+03  0.45517394727E+03 0.  0.
      99925    2    3    3    0    0  0.29635158514E+02  0.10371934076E+03  0.41244509218E+03  0.50088128674E+03  0.26293566718E+03 0.  0.
         25    1    3    3    0    0 -0.29635158514E+02 -0.10371934076E+03  0.15447292495E+03  0.22615334822E+03  0.12509000000E+03 0.  0.
         25    1    4    4    0    0  0.92813021639E+01  0.83660059578E+02  0.17506857447E+03  0.23104471863E+03  0.12509000000E+03 0.  0.
         25    1    4    4    0    0  0.20353856350E+02  0.20059281180E+02  0.23737651771E+03  0.26983656811E+03  0.12509000000E+03 0.  0.
<mgrwt>
<rscale>  2 0.45517395E+03</rscale>
<asrwt>0</asrwt>
<pdfrwt beam="1">  1       21 0.95143575E-01 0.45517395E+03</pdfrwt>
<pdfrwt beam="2">  1       21 0.11773281E-01 0.45517395E+03</pdfrwt>
<totfact> 0.51389318E+04</totfact>
</mgrwt>
</event>
<event>
 7    0  0.4707675E-002  0.4288855E+03  0.7546771E-02  0.1034213E+00
         21   -1    0    0  502  501  0.00000000000E+00  0.00000000000E+00  0.47186992656E+03  0.47186992656E+03  0.00000000000E+00 0. -1.
         21   -1    0    0  501  502 -0.00000000000E+00 -0.00000000000E+00 -0.97454152985E+02  0.97454152985E+02  0.00000000000E+00 0. -1.
      99926    2    1    2    0    0  0.00000000000E+00  0.35527136788E-14  0.37441577357E+03  0.56932407954E+03  0.42888545796E+03 0.  0.
      99925    2    3    3    0    0  0.49000110692E+02 -0.18888826170E+02  0.15068808585E+03  0.30767663554E+03  0.26305933596E+03 0.  0.
         25    1    4    4    0    0  0.53350915684E+02 -0.38065128580E+02  0.70999861636E+02  0.15806252772E+03  0.12509000000E+03 0.  0.
         25    1    3    3    0    0 -0.49000110692E+02  0.18888826170E+02  0.22372768772E+03  0.26164744400E+03  0.12509000000E+03 0.  0.
         25    1    4    4    0    0 -0.43508049918E+01  0.19176302410E+02  0.79688224217E+02  0.14961410781E+03  0.12509000000E+03 0.  0.
<mgrwt>
<rscale>  2 0.42888546E+03</rscale>
<asrwt>0</asrwt>
<pdfrwt beam="1">  1       21 0.69392635E-01 0.42888546E+03</pdfrwt>
<pdfrwt beam="2">  1       21 0.14331493E-01 0.42888546E+03</pdfrwt>
<totfact> 0.74920884E+04</totfact>
</mgrwt>
</event>
<event>
 7    0  0.4707675E-002  0.4579843E+03  0.7546771E-02  0.1025367E+00
         21   -1    0    0  502  501  0.00000000000E+00  0.00000000000E+00  0.77879019982E+03  0.77879019982E+03  0.00000000000E+00 0.  1.
         21   -1    0    0  501  502 -0.00000000000E+00 -0.00000000000E+00 -0.67331870485E+02  0.67331870485E+02  0.00000000000E+00 0.  1.
      99926    2    1    2    0    0  0.00000000000E+00  0.35527136788E-14  0.71145832934E+03  0.84612207031E+03  0.45798428300E+03 0.  0.
      99925    2    3    3    0    0  0.87048532534E+02  0.21141488196E+02  0.31050855141E+03  0.41666585361E+03  0.26300278236E+03 0.  0.
         25    1    3    3    0    0 -0.87048532534E+02 -0.21141488196E+02  0.40094977793E+03  0.42945621670E+03  0.12509000000E+03 0.  0.
         25    1    4    4    0    0  0.45713013004E+02 -0.17670612934E+02  0.19720955631E+03  0.23862323299E+03  0.12509000000E+03 0.  0.
         25    1    4    4    0    0  0.41335519529E+02  0.38812101129E+02  0.11329899510E+03  0.17804262062E+03  0.12509000000E+03 0.  0.
<mgrwt>
<rscale>  2 0.45798428E+03</rscale>
<asrwt>0</asrwt>
<pdfrwt beam="1">  1       21 0.11452797E+00 0.45798428E+03</pdfrwt>
<pdfrwt beam="2">  1       21 0.99017461E-02 0.45798428E+03</pdfrwt>
<totfact> 0.44560918E+04</totfact>
</mgrwt>
</event>
<event>
 7    0  0.4707675E-002  0.4495308E+03  0.7546771E-02  0.1027862E+00
         21   -1    0    0  502  501  0.00000000000E+00  0.00000000000E+00  0.32585551175E+03  0.32585551175E+03  0.00000000000E+00 0. -1.
         21   -1    0    0  501  502 -0.00000000000E+00 -0.00000000000E+00 -0.15503645303E+03  0.15503645303E+03  0.00000000000E+00 0. -1.
      99926    2    1    2    0    0  0.17763568394E-14  0.00000000000E+00  0.17081905872E+03  0.48089196479E+03  0.44953078980E+03 0.  0.
      99925    2    3    3    0    0  0.10614122192E+02  0.10491786825E+03  0.85267976595E+02  0.29626554625E+03  0.26340506334E+03 0.  0.
         25    1    3    3    0    0 -0.10614122192E+02 -0.10491786825E+03  0.85551082125E+02  0.18462641854E+03  0.12509000000E+03 0.  0.
         25    1    4    4    0    0 -0.27611247288E+02  0.31081972403E+02  0.56096026205E+02  0.14325760797E+03  0.12509000000E+03 0.  0.
         25    1    4    4    0    0  0.38225369480E+02  0.73835895849E+02  0.29171950390E+02  0.15300793828E+03  0.12509000000E+03 0.  0.
<mgrwt>
<rscale>  2 0.44953079E+03</rscale>
<asrwt>0</asrwt>
<pdfrwt beam="1">  1       21 0.47919928E-01 0.44953079E+03</pdfrwt>
<pdfrwt beam="2">  1       21 0.22799478E-01 0.44953079E+03</pdfrwt>
<totfact> 0.69608606E+04</totfact>
</mgrwt>
</event>
<event>
 7    0  0.4707675E-002  0.4528162E+03  0.7546771E-02  0.1026886E+00
         21   -1    0    0  502  501  0.00000000000E+00  0.00000000000E+00  0.11341631480E+04  0.11341631480E+04  0.00000000000E+00 0.  1.
         21   -1    0    0  501  502 -0.00000000000E+00 -0.00000000000E+00 -0.45196873145E+02  0.45196873145E+02  0.00000000000E+00 0.  1.
      99926    2    1    2    0    0  0.00000000000E+00  0.00000000000E+00  0.10889662749E+04  0.11793600212E+04  0.45281620081E+03 0.  0.
      99925    2    3    3    0    0  0.10911611004E+03 -0.17198863545E+02  0.65573119184E+03  0.71509471808E+03  0.26301128017E+03 0.  0.
         25    1    4    4    0    0  0.22585600634E+02  0.18864356358E+02  0.27612467920E+03  0.30456250567E+03  0.12509000000E+03 0.  0.
         25    1    4    4    0    0  0.86530509406E+02 -0.36063219903E+02  0.37960651264E+03  0.41053221241E+03  0.12509000000E+03 0.  0.
         25    1    3    3    0    0 -0.10911611004E+03  0.17198863545E+02  0.43323508306E+03  0.46426530311E+03  0.12509000000E+03 0.  0.
<mgrwt>
<rscale>  2 0.45281620E+03</rscale>
<asrwt>0</asrwt>
<pdfrwt beam="1">  1       21 0.16678868E+00 0.45281620E+03</pdfrwt>
<pdfrwt beam="2">  1       21 0.66465997E-02 0.45281620E+03</pdfrwt>
<totfact> 0.33381451E+04</totfact>
</mgrwt>
</event>
<event>
 7    0  0.4707675E-002  0.4501694E+03  0.7546771E-02  0.1027672E+00
         21   -1    0    0  502  501  0.00000000000E+00  0.00000000000E+00  0.10718911246E+04  0.10718911246E+04  0.00000000000E+00 0.  1.
         21   -1    0    0  501  502 -0.00000000000E+00 -0.00000000000E+00 -0.47265165249E+02  0.47265165249E+02  0.00000000000E+00 0.  1.
      99926    2    1    2    0    0  0.00000000000E+00  0.00000000000E+00  0.10246259593E+04  0.11191562898E+04  0.45016935094E+03 0.  0.
      99925    2    3    3    0    0 -0.75020920332E+02 -0.69665621157E+02  0.73395801197E+03  0.78656524819E+03  0.26364576435E+03 0.  0.
         25    1    4    4    0    0 -0.28896612498E+02  0.20816805809E+01  0.28029929310E+03  0.30830917829E+03  0.12509000000E+03 0.  0.
         25    1    3    3    0    0  0.75020920332E+02  0.69665621157E+02  0.29066794736E+03  0.33259104164E+03  0.12509000000E+03 0.  0.
         25    1    4    4    0    0 -0.46124307834E+02 -0.71747301738E+02  0.45365871887E+03  0.47825606989E+03  0.12509000000E+03 0.  0.
<mgrwt>
<rscale>  2 0.45016935E+03</rscale>
<asrwt>0</asrwt>
<pdfrwt beam="1">  1       21 0.15763103E+00 0.45016935E+03</pdfrwt>
<pdfrwt beam="2">  1       21 0.69507603E-02 0.45016935E+03</pdfrwt>
<totfact> 0.36172197E+04</totfact>
</mgrwt>
</event>
<event>
 7    0  0.4707675E-002  0.4517800E+03  0.7546771E-02  0.1027193E+00
         21   -1    0    0  502  501  0.00000000000E+00  0.00000000000E+00  0.13460117197E+04  0.13460117197E+04  0.00000000000E+00 0.  1.
         21   -1    0    0  501  502 -0.00000000000E+00 -0.00000000000E+00 -0.37909249218E+02  0.37909249218E+02  0.00000000000E+00 0.  1.
      99926    2    1    2    0    0  0.00000000000E+00  0.00000000000E+00  0.13081024704E+04  0.13839209689E+04  0.45178000722E+03 0.  0.
      99925    2    3    3    0    0  0.93121222679E+02  0.23454934895E+02  0.99264821134E+03  0.10312446388E+04  0.26247540375E+03 0.  0.
         25    1    4    4    0    0  0.73557202059E+02 -0.82314464071E+01  0.60501017503E+03  0.62222442790E+03  0.12509000000E+03 0.  0.
         25    1    4    4    0    0  0.19564020620E+02  0.31686381302E+02  0.38763803631E+03  0.40902021094E+03  0.12509000000E+03 0.  0.
         25    1    3    3    0    0 -0.93121222679E+02 -0.23454934895E+02  0.31545425910E+03  0.35267633003E+03  0.12509000000E+03 0.  0.
<mgrwt>
<rscale>  2 0.45178001E+03</rscale>
<asrwt>0</asrwt>
<pdfrwt beam="1">  1       21 0.19794287E+00 0.45178001E+03</pdfrwt>
<pdfrwt beam="2">  1       21 0.55748905E-02 0.45178001E+03</pdfrwt>
<totfact> 0.27444049E+04</totfact>
</mgrwt>
</event>
<event>
 7    0  0.4707675E-002  0.4477070E+03  0.7546771E-02  0.1028408E+00
         21   -1    0    0  502  501  0.00000000000E+00  0.00000000000E+00  0.16261534704E+03  0.16261534704E+03  0.00000000000E+00 0.  1.
         21   -1    0    0  501  502 -0.00000000000E+00 -0.00000000000E+00 -0.30815285223E+03  0.30815285223E+03  0.00000000000E+00 0.  1.
      99926    2    1    2    0    0  0.00000000000E+00  0.44408920985E-15 -0.14553750520E+03  0.47076819927E+03  0.44770697116E+03 0.  0.
      99925    2    3    3    0    0  0.61422968511E+02 -0.26483079475E+01 -0.18311598875E+03  0.32640946167E+03  0.26311951037E+03 0.  0.
         25    1    4    4    0    0  0.55269813415E+02 -0.34037600178E+02 -0.89888944782E+02  0.16715514050E+03  0.12509000000E+03 0.  0.
         25    1    3    3    0    0 -0.61422968511E+02  0.26483079475E+01  0.37578483553E+02  0.14435873760E+03  0.12509000000E+03 0.  0.
         25    1    4    4    0    0  0.61531550957E+01  0.31389292231E+02 -0.93227043969E+02  0.15925432117E+03  0.12509000000E+03 0.  0.
<mgrwt>
<rscale>  2 0.44770697E+03</rscale>
<asrwt>0</asrwt>
<pdfrwt beam="1">  1       21 0.23914022E-01 0.44770697E+03</pdfrwt>
<pdfrwt beam="2">  1       21 0.45316596E-01 0.44770697E+03</pdfrwt>
<totfact> 0.71423575E+04</totfact>
</mgrwt>
</event>
<event>
 7    0  0.4707675E-002  0.4511402E+03  0.7546771E-02  0.1027383E+00
         21   -1    0    0  502  501  0.00000000000E+00  0.00000000000E+00  0.12018914069E+03  0.12018914069E+03  0.00000000000E+00 0. -1.
         21   -1    0    0  501  502 -0.00000000000E+00 -0.00000000000E+00 -0.42334835130E+03  0.42334835130E+03  0.00000000000E+00 0. -1.
      99926    2    1    2    0    0 -0.14210854715E-13  0.35527136788E-14 -0.30315921061E+03  0.54353749198E+03  0.45114022012E+03 0.  0.
      99925    2    3    3    0    0 -0.10039176053E+03  0.20096498984E+02 -0.14426051267E+03  0.31686883698E+03  0.26289235340E+03 0.  0.
         25    1    4    4    0    0 -0.52064820173E+02 -0.14055605403E+02 -0.35246622816E+02  0.14070585653E+03  0.12509000000E+03 0.  0.
         25    1    3    3    0    0  0.10039176053E+03 -0.20096498984E+02 -0.15889869794E+03  0.22666865500E+03  0.12509000000E+03 0.  0.
         25    1    4    4    0    0 -0.48326940360E+02  0.34152104387E+02 -0.10901388985E+03  0.17616298044E+03  0.12509000000E+03 0.  0.
<mgrwt>
<rscale>  2 0.45114022E+03</rscale>
<asrwt>0</asrwt>
<pdfrwt beam="1">  1       21 0.17674873E-01 0.45114022E+03</pdfrwt>
<pdfrwt beam="2">  1       21 0.62257111E-01 0.45114022E+03</pdfrwt>
<totfact> 0.64235158E+04</totfact>
</mgrwt>
</event>
<event>
 7    0  0.4707675E-002  0.4572607E+03  0.7546771E-02  0.1025579E+00
         21   -1    0    0  502  501  0.00000000000E+00  0.00000000000E+00  0.47634299642E+03  0.47634299642E+03  0.00000000000E+00 0. -1.
         21   -1    0    0  501  502 -0.00000000000E+00 -0.00000000000E+00 -0.10973570903E+03  0.10973570903E+03  0.00000000000E+00 0. -1.
      99926    2    1    2    0    0  0.00000000000E+00 -0.14210854715E-13  0.36660728740E+03  0.58607870545E+03  0.45726069786E+03 0.  0.
      99925    2    3    3    0    0  0.51888435518E+02 -0.84713134185E+02  0.15527039154E+03  0.32116453728E+03  0.26300007733E+03 0.  0.
         25    1    3    3    0    0 -0.51888435518E+02  0.84713134185E+02  0.21133689586E+03  0.26491416816E+03  0.12509000000E+03 0.  0.
         25    1    4    4    0    0  0.14934031813E+02 -0.15610218006E+01  0.78894844502E+02  0.14865183041E+03  0.12509000000E+03 0.  0.
         25    1    4    4    0    0  0.36954403704E+02 -0.83152112384E+02  0.76375547037E+02  0.17251270687E+03  0.12509000000E+03 0.  0.
<mgrwt>
<rscale>  2 0.45726070E+03</rscale>
<asrwt>0</asrwt>
<pdfrwt beam="1">  1       21 0.70050440E-01 0.45726070E+03</pdfrwt>
<pdfrwt beam="2">  1       21 0.16137604E-01 0.45726070E+03</pdfrwt>
<totfact> 0.58491204E+04</totfact>
</mgrwt>
</event>
<event>
 6    0  0.4707675E-002  0.6574534E+03  0.7546771E-02  0.9792893E-01
         21   -1    0    0  502  501  0.00000000000E+00  0.00000000000E+00  0.38305283258E+03  0.38305283258E+03  0.00000000000E+00 0.  1.
         21   -1    0    0  501  502 -0.00000000000E+00 -0.00000000000E+00 -0.28210535293E+03  0.28210535293E+03  0.00000000000E+00 0.  1.
      99925    2    1    2    0    0  0.13443341119E+03 -0.17517219038E+03 -0.81059614428E+02  0.35285748310E+03  0.26302110934E+03 0.  0.
         25    1    3    3    0    0  0.65174678151E+02 -0.10025191969E+03 -0.81858287221E+02  0.19143268624E+03  0.12509000000E+03 0.  0.
         25    1    1    2    0    0 -0.13443341119E+03  0.17517219038E+03  0.18200709408E+03  0.31230070241E+03  0.12509000000E+03 0.  0.
         25    1    3    3    0    0  0.69258733039E+02 -0.74920270694E+02  0.79867279341E+00  0.16142479686E+03  0.12509000000E+03 0.  0.
<mgrwt>
<rscale>  2 0.65745343E+03</rscale>
<asrwt>0</asrwt>
<pdfrwt beam="1">  1       21 0.56331299E-01 0.65745343E+03</pdfrwt>
<pdfrwt beam="2">  1       21 0.41486081E-01 0.65745343E+03</pdfrwt>
<totfact> 0.14245097E+04</totfact>
</mgrwt>
</event>
<event>
 7    0  0.4707675E-002  0.4673819E+03  0.7546771E-02  0.1022662E+00
         21   -1    0    0  502  501  0.00000000000E+00  0.00000000000E+00  0.12503630844E+03  0.12503630844E+03  0.00000000000E+00 0. -1.
         21   -1    0    0  501  502 -0.00000000000E+00 -0.00000000000E+00 -0.43676483816E+03  0.43676483816E+03  0.00000000000E+00 0. -1.
      99926    2    1    2    0    0  0.14210854715E-13  0.00000000000E+00 -0.31172852972E+03  0.56180114660E+03  0.46738191244E+03 0.  0.
      99925    2    3    3    0    0  0.11208755063E+03  0.50199757933E+02 -0.21696298841E+03  0.36252332389E+03  0.26318546183E+03 0.  0.
         25    1    4    4    0    0  0.91597304376E+02  0.51931540789E+02 -0.12807812993E+03  0.20769801772E+03  0.12509000000E+03 0.  0.
         25    1    4    4    0    0  0.20490246257E+02 -0.17317828559E+01 -0.88884858484E+02  0.15482530617E+03  0.12509000000E+03 0.  0.
         25    1    3    3    0    0 -0.11208755063E+03 -0.50199757933E+02 -0.94765541311E+02  0.19927782271E+03  0.12509000000E+03 0.  0.
<mgrwt>
<rscale>  2 0.46738191E+03</rscale>
<asrwt>0</asrwt>
<pdfrwt beam="1">  1       21 0.18387693E-01 0.46738191E+03</pdfrwt>
<pdfrwt beam="2">  1       21 0.64230123E-01 0.46738191E+03</pdfrwt>
<totfact> 0.55458905E+04</totfact>
</mgrwt>
</event>
<event>
 7    0  0.4707675E-002  0.4545423E+03  0.7546771E-02  0.1026376E+00
         21   -1    0    0  502  501  0.00000000000E+00  0.00000000000E+00  0.10649028578E+04  0.10649028578E+04  0.00000000000E+00 0.  1.
         21   -1    0    0  501  502 -0.00000000000E+00 -0.00000000000E+00 -0.48504117752E+02  0.48504117752E+02  0.00000000000E+00 0.  1.
      99926    2    1    2    0    0 -0.71054273576E-14  0.14210854715E-13  0.10163987400E+04  0.11134069755E+04  0.45454229113E+03 0.  0.
      99925    2    3    3    0    0 -0.35424670245E+02  0.92294041090E+02  0.77247624029E+03  0.82199868590E+03  0.26303840126E+03 0.  0.
         25    1    4    4    0    0 -0.18235060043E+02  0.44268307964E+01  0.37724839949E+03  0.39788940330E+03  0.12509000000E+03 0.  0.
         25    1    4    4    0    0 -0.17189610202E+02  0.87867210294E+02  0.39522784080E+03  0.42410928260E+03  0.12509000000E+03 0.  0.
         25    1    3    3    0    0  0.35424670245E+02 -0.92294041090E+02  0.24392249972E+03  0.29140828961E+03  0.12509000000E+03 0.  0.
<mgrwt>
<rscale>  2 0.45454229E+03</rscale>
<asrwt>0</asrwt>
<pdfrwt beam="1">  1       21 0.15660335E+00 0.45454229E+03</pdfrwt>
<pdfrwt beam="2">  1       21 0.71329592E-02 0.45454229E+03</pdfrwt>
<totfact> 0.35153109E+04</totfact>
</mgrwt>
</event>
<event>
 7    0  0.4707675E-002  0.4498795E+03  0.7546771E-02  0.1027758E+00
         21   -1    0    0  502  501  0.00000000000E+00  0.00000000000E+00  0.43399182420E+03  0.43399182420E+03  0.00000000000E+00 0.  1.
         21   -1    0    0  501  502 -0.00000000000E+00 -0.00000000000E+00 -0.11658722120E+03  0.11658722120E+03  0.00000000000E+00 0.  1.
      99926    2    1    2    0    0 -0.14210854715E-13  0.00000000000E+00  0.31740460301E+03  0.55057904540E+03  0.44987954302E+03 0.  0.
      99925    2    3    3    0    0 -0.78288737597E+02  0.66895685077E+02  0.16048593286E+03  0.32502387198E+03  0.26321212661E+03 0.  0.
         25    1    4    4    0    0 -0.80705009804E+02  0.45655788901E+02  0.86200343424E+02  0.17797684393E+03  0.12509000000E+03 0.  0.
         25    1    3    3    0    0  0.78288737597E+02 -0.66895685077E+02  0.15691867015E+03  0.22555517342E+03  0.12509000000E+03 0.  0.
         25    1    4    4    0    0  0.24162722075E+01  0.21239896175E+02  0.74285589432E+02  0.14704702805E+03  0.12509000000E+03 0.  0.
<mgrwt>
<rscale>  2 0.44987954E+03</rscale>
<asrwt>0</asrwt>
<pdfrwt beam="1">  1       21 0.63822327E-01 0.44987954E+03</pdfrwt>
<pdfrwt beam="2">  1       21 0.17145180E-01 0.44987954E+03</pdfrwt>
<totfact> 0.64397736E+04</totfact>
</mgrwt>
</event>
<event>
 7    0  0.4707675E-002  0.4239181E+03  0.7546771E-02  0.1035799E+00
         21   -1    0    0  502  501  0.00000000000E+00  0.00000000000E+00  0.40157639671E+02  0.40157639671E+02  0.00000000000E+00 0. -1.
         21   -1    0    0  501  502 -0.00000000000E+00 -0.00000000000E+00 -0.11187568390E+04  0.11187568390E+04  0.00000000000E+00 0. -1.
      99926    2    1    2    0    0  0.00000000000E+00  0.35527136788E-14 -0.10785991993E+04  0.11589144787E+04  0.42391807708E+03 0.  0.
      99925    2    3    3    0    0 -0.74162061678E+02 -0.16500865114E+02 -0.62493093300E+03  0.68222307543E+03  0.26290181380E+03 0.  0.
         25    1    4    4    0    0 -0.83012837172E+01  0.20424866931E+02 -0.26954176198E+03  0.29797039459E+03  0.12509000000E+03 0.  0.
         25    1    4    4    0    0 -0.65860777961E+02 -0.36925732045E+02 -0.35538917101E+03  0.38425268084E+03  0.12509000000E+03 0.  0.
         25    1    3    3    0    0  0.74162061678E+02  0.16500865114E+02 -0.45366826632E+03  0.47669140322E+03  0.12509000000E+03 0.  0.
<mgrwt>
<rscale>  2 0.42391808E+03</rscale>
<asrwt>0</asrwt>
<pdfrwt beam="1">  1       21 0.59055349E-02 0.42391808E+03</pdfrwt>
<pdfrwt beam="2">  1       21 0.16452307E+00 0.42391808E+03</pdfrwt>
<totfact> 0.42992276E+04</totfact>
</mgrwt>
</event>
<event>
 7    0  0.4707675E-002  0.4433274E+03  0.7546771E-02  0.1029731E+00
         21   -1    0    0  502  501  0.00000000000E+00  0.00000000000E+00  0.38278764375E+03  0.38278764375E+03  0.00000000000E+00 0.  1.
         21   -1    0    0  501  502 -0.00000000000E+00 -0.00000000000E+00 -0.12836047004E+03  0.12836047004E+03  0.00000000000E+00 0.  1.
      99926    2    1    2    0    0  0.00000000000E+00  0.00000000000E+00  0.25442717371E+03  0.51114811379E+03  0.44332742698E+03 0.  0.
      99925    2    3    3    0    0  0.43310033662E+02  0.77168726991E+02  0.21995871098E+03  0.35409285452E+03  0.26300027309E+03 0.  0.
         25    1    3    3    0    0 -0.43310033662E+02 -0.77168726991E+02  0.34468462723E+02  0.15705525927E+03  0.12509000000E+03 0.  0.
         25    1    4    4    0    0  0.55544703219E+02  0.16289006163E+02  0.10940615458E+03  0.17597659088E+03  0.12509000000E+03 0.  0.
         25    1    4    4    0    0 -0.12234669557E+02  0.60879720829E+02  0.11055255641E+03  0.17811626365E+03  0.12509000000E+03 0.  0.
<mgrwt>
<rscale>  2 0.44332743E+03</rscale>
<asrwt>0</asrwt>
<pdfrwt beam="1">  1       21 0.56292300E-01 0.44332743E+03</pdfrwt>
<pdfrwt beam="2">  1       21 0.18876540E-01 0.44332743E+03</pdfrwt>
<totfact> 0.70830361E+04</totfact>
</mgrwt>
</event>
<event>
 7    0  0.4707675E-002  0.4584507E+03  0.7546771E-02  0.1025232E+00
         21   -1    0    0  502  501  0.00000000000E+00  0.00000000000E+00  0.88445982895E+03  0.88445982895E+03  0.00000000000E+00 0. -1.
         21   -1    0    0  501  502 -0.00000000000E+00 -0.00000000000E+00 -0.59408305730E+02  0.59408305730E+02  0.00000000000E+00 0. -1.
      99926    2    1    2    0    0  0.35527136788E-14  0.00000000000E+00  0.82505152322E+03  0.94386813468E+03  0.45845069495E+03 0.  0.
      99925    2    3    3    0    0  0.23258900591E+02  0.23304440675E+02  0.28753441659E+03  0.39100628807E+03  0.26291786394E+03 0.  0.
         25    1    4    4    0    0  0.27585096719E+02  0.11023911398E+02  0.20006059170E+03  0.23781129627E+03  0.12509000000E+03 0.  0.
         25    1    3    3    0    0 -0.23258900591E+02 -0.23304440675E+02  0.53751710664E+03  0.55286184661E+03  0.12509000000E+03 0.  0.
         25    1    4    4    0    0 -0.43261961286E+01  0.12280529277E+02  0.87473824890E+02  0.15319499180E+03  0.12509000000E+03 0.  0.
<mgrwt>
<rscale>  2 0.45845069E+03</rscale>
<asrwt>0</asrwt>
<pdfrwt beam="1">  1       21 0.13006761E+00 0.45845069E+03</pdfrwt>
<pdfrwt beam="2">  1       21 0.87365161E-02 0.45845069E+03</pdfrwt>
<totfact> 0.40291758E+04</totfact>
</mgrwt>
</event>
<event>
 7    0  0.4707675E-002  0.4548139E+03  0.7546771E-02  0.1026296E+00
         21   -1    0    0  502  501  0.00000000000E+00  0.00000000000E+00  0.33512634717E+03  0.33512634717E+03  0.00000000000E+00 0.  1.
         21   -1    0    0  501  502 -0.00000000000E+00 -0.00000000000E+00 -0.15431174639E+03  0.15431174639E+03  0.00000000000E+00 0.  1.
      99926    2    1    2    0    0  0.14210854715E-13  0.00000000000E+00  0.18081460078E+03  0.48943809356E+03  0.45481394831E+03 0.  0.
      99925    2    3    3    0    0  0.75763761524E+02 -0.73192844742E+02  0.72747642504E+02  0.29341943207E+03  0.26401780915E+03 0.  0.
         25    1    4    4    0    0  0.73060973340E+02 -0.14677085197E+02  0.46253323330E+02  0.15277500016E+03  0.12509000000E+03 0.  0.
         25    1    4    4    0    0  0.27027881843E+01 -0.58515759545E+02  0.26494319174E+02  0.14064443191E+03  0.12509000000E+03 0.  0.
         25    1    3    3    0    0 -0.75763761524E+02  0.73192844742E+02  0.10806695828E+03  0.19601866149E+03  0.12509000000E+03 0.  0.
<mgrwt>
<rscale>  2 0.45481395E+03</rscale>
<asrwt>0</asrwt>
<pdfrwt beam="1">  1       21 0.49283286E-01 0.45481395E+03</pdfrwt>
<pdfrwt beam="2">  1       21 0.22692904E-01 0.45481395E+03</pdfrwt>
<totfact> 0.66116828E+04</totfact>
</mgrwt>
</event>
<event>
 7    0  0.4707675E-002  0.4547249E+03  0.7546771E-02  0.1026322E+00
         21   -1    0    0  502  501  0.00000000000E+00  0.00000000000E+00  0.74573542602E+03  0.74573542602E+03  0.00000000000E+00 0.  1.
         21   -1    0    0  501  502 -0.00000000000E+00 -0.00000000000E+00 -0.69319062784E+02  0.69319062784E+02  0.00000000000E+00 0.  1.
      99926    2    1    2    0    0  0.00000000000E+00  0.00000000000E+00  0.67641636324E+03  0.81505448881E+03  0.45472488745E+03 0.  0.
      99925    2    3    3    0    0  0.10306909595E+03 -0.87188798976E+01  0.50690379524E+03  0.58036048331E+03  0.26299729191E+03 0.  0.
         25    1    4    4    0    0  0.32423375971E+02 -0.15879512035E+02  0.31243471959E+03  0.33847658163E+03  0.12509000000E+03 0.  0.
         25    1    4    4    0    0  0.70645719980E+02  0.71606321378E+01  0.19446907565E+03  0.24188390167E+03  0.12509000000E+03 0.  0.
         25    1    3    3    0    0 -0.10306909595E+03  0.87188798976E+01  0.16951256800E+03  0.23469400550E+03  0.12509000000E+03 0.  0.
<mgrwt>
<rscale>  2 0.45472489E+03</rscale>
<asrwt>0</asrwt>
<pdfrwt beam="1">  1       21 0.10966697E+00 0.45472489E+03</pdfrwt>
<pdfrwt beam="2">  1       21 0.10193980E-01 0.45472489E+03</pdfrwt>
<totfact> 0.47146950E+04</totfact>
</mgrwt>
</event>
<event>
 7    0  0.4707675E-002  0.4582798E+03  0.7546771E-02  0.1025281E+00
         21   -1    0    0  502  501  0.00000000000E+00  0.00000000000E+00  0.24088579702E+03  0.24088579702E+03  0.00000000000E+00 0. -1.
         21   -1    0    0  501  502 -0.00000000000E+00 -0.00000000000E+00 -0.21796678035E+03  0.21796678035E+03  0.00000000000E+00 0. -1.
      99926    2    1    2    0    0  0.13322676296E-14  0.14210854715E-13  0.22919016665E+02  0.45885257737E+03  0.45827983420E+03 0.  0.
      99925    2    3    3    0    0  0.12577958376E+01 -0.11637349806E+03  0.11718003728E+02  0.28762949513E+03  0.26277184354E+03 0.  0.
         25    1    4    4    0    0  0.26943414093E+02 -0.86182679383E+02 -0.10109214476E+02  0.15460629388E+03  0.12509000000E+03 0.  0.
         25    1    4    4    0    0 -0.25685618255E+02 -0.30190818676E+02  0.21827218203E+02  0.13302320125E+03  0.12509000000E+03 0.  0.
         25    1    3    3    0    0 -0.12577958376E+01  0.11637349806E+03  0.11201012938E+02  0.17122308224E+03  0.12509000000E+03 0.  0.
<mgrwt>
<rscale>  2 0.45827983E+03</rscale>
<asrwt>0</asrwt>
<pdfrwt beam="1">  1       21 0.35424382E-01 0.45827983E+03</pdfrwt>
<pdfrwt beam="2">  1       21 0.32053938E-01 0.45827983E+03</pdfrwt>
<totfact> 0.66506943E+04</totfact>
</mgrwt>
</event>
<event>
 7    0  0.4707675E-002  0.4558590E+03  0.7546771E-02  0.1025989E+00
         21   -1    0    0  502  501  0.00000000000E+00  0.00000000000E+00  0.38487134813E+03  0.38487134813E+03  0.00000000000E+00 0. -1.
         21   -1    0    0  501  502 -0.00000000000E+00 -0.00000000000E+00 -0.13498499399E+03  0.13498499399E+03  0.00000000000E+00 0. -1.
      99926    2    1    2    0    0  0.14210854715E-13  0.00000000000E+00  0.24988635414E+03  0.51985634212E+03  0.45585899844E+03 0.  0.
      99925    2    3    3    0    0 -0.80463877755E+02 -0.34779815387E+02  0.74081481980E+02  0.28696380819E+03  0.26301347886E+03 0.  0.
         25    1    3    3    0    0  0.80463877755E+02  0.34779815387E+02  0.17580487216E+03  0.23289253393E+03  0.12509000000E+03 0.  0.
         25    1    4    4    0    0 -0.70119609638E+02 -0.31496995425E+01  0.64191283747E+02  0.15714550351E+03  0.12509000000E+03 0.  0.
         25    1    4    4    0    0 -0.10344268117E+02 -0.31630115844E+02  0.98901982324E+01  0.12981830469E+03  0.12509000000E+03 0.  0.
<mgrwt>
<rscale>  2 0.45585900E+03</rscale>
<asrwt>0</asrwt>
<pdfrwt beam="1">  1       21 0.56598727E-01 0.45585900E+03</pdfrwt>
<pdfrwt beam="2">  1       21 0.19850735E-01 0.45585900E+03</pdfrwt>
<totfact> 0.63463434E+04</totfact>
</mgrwt>
</event>
<event>
 6    0  0.4707675E-002  0.4521338E+03  0.7546771E-02  0.1027088E+00
         21   -1    0    0  502  501  0.00000000000E+00  0.00000000000E+00  0.33832086073E+02  0.33832086073E+02  0.00000000000E+00 0. -1.
         21   -1    0    0  501  502 -0.00000000000E+00 -0.00000000000E+00 -0.15105852532E+04  0.15105852532E+04  0.00000000000E+00 0. -1.
      99926    2    1    2    0    0  0.14210854715E-13  0.00000000000E+00 -0.14767531671E+04  0.15444173393E+04  0.45213383111E+03 0.  0.
         25    1    3    3    0    0  0.85252716776E+02 -0.20823142121E+02 -0.35211006821E+03  0.38383673248E+03  0.12509000000E+03 0.  0.
         25    1    3    3    0    0 -0.25517078074E+01  0.47522918570E+02 -0.49467785270E+03  0.51246329142E+03  0.12509000000E+03 0.  0.
         25    1    3    3    0    0 -0.82701008968E+02 -0.26699776449E+02 -0.62996524624E+03  0.64811731539E+03  0.12509000000E+03 0.  0.
<mgrwt>
<rscale>  2 0.45213383E+03</rscale>
<asrwt>0</asrwt>
<pdfrwt beam="1">  1       21 0.49753068E-02 0.45213383E+03</pdfrwt>
<pdfrwt beam="2">  1       21 0.22214489E+00 0.45213383E+03</pdfrwt>
<totfact> 0.23223920E+04</totfact>
</mgrwt>
</event>
<event>
 7    0  0.4707675E-002  0.4373280E+03  0.7546771E-02  0.1031570E+00
         21   -1    0    0  502  501  0.00000000000E+00  0.00000000000E+00  0.49334364788E+03  0.49334364788E+03  0.00000000000E+00 0.  1.
         21   -1    0    0  501  502 -0.00000000000E+00 -0.00000000000E+00 -0.96918148503E+02  0.96918148503E+02  0.00000000000E+00 0.  1.
      99926    2    1    2    0    0  0.35527136788E-14  0.88817841970E-15  0.39642549938E+03  0.59026179639E+03  0.43732803674E+03 0.  0.
      99925    2    3    3    0    0  0.21251789933E+02  0.12072628887E+01  0.12764877934E+03  0.29303876667E+03  0.26291521798E+03 0.  0.
         25    1    4    4    0    0 -0.80365669683E+01  0.94897853900E+01  0.10173633079E+03  0.16171713433E+03  0.12509000000E+03 0.  0.
         25    1    4    4    0    0  0.29288356902E+02 -0.82825225013E+01  0.25912448553E+02  0.13132163233E+03  0.12509000000E+03 0.  0.
         25    1    3    3    0    0 -0.21251789933E+02 -0.12072628887E+01  0.26877672004E+03  0.29722302972E+03  0.12509000000E+03 0.  0.
<mgrwt>
<rscale>  2 0.43732804E+03</rscale>
<asrwt>0</asrwt>
<pdfrwt beam="1">  1       21 0.72550536E-01 0.43732804E+03</pdfrwt>
<pdfrwt beam="2">  1       21 0.14252669E-01 0.43732804E+03</pdfrwt>
<totfact> 0.68337197E+04</totfact>
</mgrwt>
</event>
<event>
 7    0  0.4707675E-002  0.4487446E+03  0.7546771E-02  0.1028097E+00
         21   -1    0    0  502  501  0.00000000000E+00  0.00000000000E+00  0.25179052238E+03  0.25179052238E+03  0.00000000000E+00 0.  1.
         21   -1    0    0  501  502 -0.00000000000E+00 -0.00000000000E+00 -0.19993971311E+03  0.19993971311E+03  0.00000000000E+00 0.  1.
      99926    2    1    2    0    0 -0.14210854715E-13  0.00000000000E+00  0.51850809274E+02  0.45173023549E+03  0.44874458128E+03 0.  0.
      99925    2    3    3    0    0  0.75245256656E+02  0.64130605006E+02 -0.88284166261E+01  0.28113111561E+03  0.26302505598E+03 0.  0.
         25    1    3    3    0    0 -0.75245256656E+02 -0.64130605006E+02  0.60679225900E+02  0.17059911988E+03  0.12509000000E+03 0.  0.
         25    1    4    4    0    0  0.18159491663E+02  0.15107329637E+01 -0.26045042203E+02  0.12906549413E+03  0.12509000000E+03 0.  0.
         25    1    4    4    0    0  0.57085764993E+02  0.62619872043E+02  0.17216625577E+02  0.15206562148E+03  0.12509000000E+03 0.  0.
<mgrwt>
<rscale>  2 0.44874458E+03</rscale>
<asrwt>0</asrwt>
<pdfrwt beam="1">  1       21 0.37028018E-01 0.44874458E+03</pdfrwt>
<pdfrwt beam="2">  1       21 0.29402899E-01 0.44874458E+03</pdfrwt>
<totfact> 0.72328883E+04</totfact>
</mgrwt>
</event>
<event>
 7    0  0.4707675E-002  0.4590189E+03  0.7546771E-02  0.1025066E+00
         21   -1    0    0  502  501  0.00000000000E+00  0.00000000000E+00  0.28501898345E+03  0.28501898345E+03  0.00000000000E+00 0. -1.
         21   -1    0    0  501  502 -0.00000000000E+00 -0.00000000000E+00 -0.18481083433E+03  0.18481083433E+03  0.00000000000E+00 0. -1.
      99926    2    1    2    0    0 -0.17763568394E-14  0.14210854715E-13  0.10020814912E+03  0.46982981778E+03  0.45901893700E+03 0.  0.
      99925    2    3    3    0    0  0.11890701383E+02  0.10730121130E+03  0.16876436641E+02  0.28477139152E+03  0.26297336859E+03 0.  0.
         25    1    4    4    0    0 -0.27238391057E+02  0.64407435629E+02  0.29406277166E+02  0.14629588152E+03  0.12509000000E+03 0.  0.
         25    1    3    3    0    0 -0.11890701383E+02 -0.10730121130E+03  0.83331712484E+02  0.18505842626E+03  0.12509000000E+03 0.  0.
         25    1    4    4    0    0  0.39129092439E+02  0.42893775671E+02 -0.12529840525E+02  0.13847551000E+03  0.12509000000E+03 0.  0.
<mgrwt>
<rscale>  2 0.45901894E+03</rscale>
<asrwt>0</asrwt>
<pdfrwt beam="1">  1       21 0.41914556E-01 0.45901894E+03</pdfrwt>
<pdfrwt beam="2">  1       21 0.27178064E-01 0.45901894E+03</pdfrwt>
<totfact> 0.65340811E+04</totfact>
</mgrwt>
</event>
<event>
 7    0  0.4707675E-002  0.4555718E+03  0.7546771E-02  0.1026073E+00
         21   -1    0    0  502  501  0.00000000000E+00  0.00000000000E+00  0.23293600068E+03  0.23293600068E+03  0.00000000000E+00 0. -1.
         21   -1    0    0  501  502 -0.00000000000E+00 -0.00000000000E+00 -0.22274964799E+03  0.22274964799E+03  0.00000000000E+00 0. -1.
      99926    2    1    2    0    0  0.00000000000E+00  0.00000000000E+00  0.10186352697E+02  0.45568564867E+03  0.45557178207E+03 0.  0.
      99925    2    3    3    0    0 -0.45635190577E+02  0.19419587793E+02  0.10873308806E+03  0.28889638595E+03  0.26301814836E+03 0.  0.
         25    1    4    4    0    0 -0.30096801674E+02  0.49850966452E+02  0.55748709571E+02  0.14881654157E+03  0.12509000000E+03 0.  0.
         25    1    4    4    0    0 -0.15538388903E+02 -0.30431378659E+02  0.52984378484E+02  0.14007984438E+03  0.12509000000E+03 0.  0.
         25    1    3    3    0    0  0.45635190577E+02 -0.19419587793E+02 -0.98546735358E+02  0.16678926272E+03  0.12509000000E+03 0.  0.
<mgrwt>
<rscale>  2 0.45557178E+03</rscale>
<asrwt>0</asrwt>
<pdfrwt beam="1">  1       21 0.34255295E-01 0.45557178E+03</pdfrwt>
<pdfrwt beam="2">  1       21 0.32757301E-01 0.45557178E+03</pdfrwt>
<totfact> 0.68183995E+04</totfact>
</mgrwt>
</event>
<event>
 7    0  0.4707675E-002  0.4508037E+03  0.7546771E-02  0.1027483E+00
         21   -1    0    0  502  501  0.00000000000E+00  0.00000000000E+00  0.18745710154E+03  0.18745710154E+03  0.00000000000E+00 0.  1.
         21   -1    0    0  501  502 -0.00000000000E+00 -0.00000000000E+00 -0.27102730684E+03  0.27102730684E+03  0.00000000000E+00 0.  1.
      99926    2    1    2    0    0  0.00000000000E+00  0.00000000000E+00 -0.83570205306E+02  0.45848440838E+03  0.45080369731E+03 0.  0.
      99925    2    3    3    0    0 -0.33154332573E+02  0.92704528101E+02 -0.55502046789E+01  0.28120505849E+03  0.26334794635E+03 0.  0.
         25    1    3    3    0    0  0.33154332573E+02 -0.92704528101E+02 -0.78020000627E+02  0.17727934989E+03  0.12509000000E+03 0.  0.
         25    1    4    4    0    0  0.19430905574E+02  0.36554351296E+02 -0.21442090738E+02  0.13349551320E+03  0.12509000000E+03 0.  0.
         25    1    4    4    0    0 -0.52585238147E+02  0.56150176804E+02  0.15891886059E+02  0.14770954529E+03  0.12509000000E+03 0.  0.
<mgrwt>
<rscale>  2 0.45080370E+03</rscale>
<asrwt>0</asrwt>
<pdfrwt beam="1">  1       21 0.27567221E-01 0.45080370E+03</pdfrwt>
<pdfrwt beam="2">  1       21 0.39856957E-01 0.45080370E+03</pdfrwt>
<totfact> 0.70623157E+04</totfact>
</mgrwt>
</event>
<event>
 7    0  0.4707675E-002  0.4365303E+03  0.7546771E-02  0.1031817E+00
         21   -1    0    0  502  501  0.00000000000E+00  0.00000000000E+00  0.51756520302E+03  0.51756520302E+03  0.00000000000E+00 0. -1.
         21   -1    0    0  501  502 -0.00000000000E+00 -0.00000000000E+00 -0.92045751705E+02  0.92045751705E+02  0.00000000000E+00 0. -1.
      99926    2    1    2    0    0  0.88817841970E-15  0.00000000000E+00  0.42551945131E+03  0.60961095472E+03  0.43653031129E+03 0.  0.
      99925    2    3    3    0    0  0.71317506719E+01  0.75441467026E+02  0.19315152162E+03  0.33504832132E+03  0.26307335573E+03 0.  0.
         25    1    4    4    0    0  0.55924987244E+01  0.79611439799E+02  0.98062165335E+02  0.17785655388E+03  0.12509000000E+03 0.  0.
         25    1    3    3    0    0 -0.71317506719E+01 -0.75441467026E+02  0.23236792969E+03  0.27456263340E+03  0.12509000000E+03 0.  0.
         25    1    4    4    0    0  0.15392519475E+01 -0.41699727737E+01  0.95089356288E+02  0.15719176743E+03  0.12509000000E+03 0.  0.
<mgrwt>
<rscale>  2 0.43653031E+03</rscale>
<asrwt>0</asrwt>
<pdfrwt beam="1">  1       21 0.76112529E-01 0.43653031E+03</pdfrwt>
<pdfrwt beam="2">  1       21 0.13536140E-01 0.43653031E+03</pdfrwt>
<totfact> 0.67397206E+04</totfact>
</mgrwt>
</event>
<event>
 7    0  0.4707675E-002  0.4648348E+03  0.7546771E-02  0.1023388E+00
         21   -1    0    0  502  501  0.00000000000E+00  0.00000000000E+00  0.13882200190E+03  0.13882200190E+03  0.00000000000E+00 0.  1.
         21   -1    0    0  501  502 -0.00000000000E+00 -0.00000000000E+00 -0.38911591493E+03  0.38911591493E+03  0.00000000000E+00 0.  1.
      99926    2    1    2    0    0  0.00000000000E+00 -0.35527136788E-14 -0.25029391303E+03  0.52793791683E+03  0.46483481058E+03 0.  0.
      99925    2    3    3    0    0  0.11821250202E+03 -0.29917657011E+02 -0.15683406151E+03  0.32981796887E+03  0.26327496635E+03 0.  0.
         25    1    4    4    0    0  0.53584606925E+02 -0.47117549196E+02 -0.50748531164E+02  0.15269019306E+03  0.12509000000E+03 0.  0.
         25    1    4    4    0    0  0.64627895091E+02  0.17199892185E+02 -0.10608553035E+03  0.17712777581E+03  0.12509000000E+03 0.  0.
         25    1    3    3    0    0 -0.11821250202E+03  0.29917657011E+02 -0.93459851510E+02  0.19811994796E+03  0.12509000000E+03 0.  0.
<mgrwt>
<rscale>  2 0.46483481E+03</rscale>
<asrwt>0</asrwt>
<pdfrwt beam="1">  1       21 0.20415001E-01 0.46483481E+03</pdfrwt>
<pdfrwt beam="2">  1       21 0.57222928E-01 0.46483481E+03</pdfrwt>
<totfact> 0.58639109E+04</totfact>
</mgrwt>
</event>
<event>
 7    0  0.4707675E-002  0.4511532E+03  0.7546771E-02  0.1027379E+00
         21   -1    0    0  502  501  0.00000000000E+00  0.00000000000E+00  0.31920149009E+02  0.31920149009E+02  0.00000000000E+00 0. -1.
         21   -1    0    0  501  502 -0.00000000000E+00 -0.00000000000E+00 -0.15941278458E+04  0.15941278458E+04  0.00000000000E+00 0. -1.
      99926    2    1    2    0    0  0.00000000000E+00  0.00000000000E+00 -0.15622076968E+04  0.16260479948E+04  0.45115318186E+03 0.  0.
      99925    2    3    3    0    0  0.10285137680E+03 -0.20958530159E+02 -0.10992882237E+04  0.11351716231E+04  0.26298735575E+03 0.  0.
         25    1    4    4    0    0  0.72700633372E+02  0.10071291768E+02 -0.45987908827E+03  0.48220648786E+03  0.12509000000E+03 0.  0.
         25    1    4    4    0    0  0.30150743429E+02 -0.31029821927E+02 -0.63940913545E+03  0.65296513519E+03  0.12509000000E+03 0.  0.
         25    1    3    3    0    0 -0.10285137680E+03  0.20958530159E+02 -0.46291947305E+03  0.49087637173E+03  0.12509000000E+03 0.  0.
<mgrwt>
<rscale>  2 0.45115318E+03</rscale>
<asrwt>0</asrwt>
<pdfrwt beam="1">  1       21 0.46941398E-02 0.45115318E+03</pdfrwt>
<pdfrwt beam="2">  1       21 0.23443055E+00 0.45115318E+03</pdfrwt>
<totfact> 0.21482029E+04</totfact>
</mgrwt>
</event>
<event>
 7    0  0.4707675E-002  0.4208395E+03  0.7546771E-02  0.1036793E+00
         21   -1    0    0  502  501  0.00000000000E+00  0.00000000000E+00  0.56766342655E+03  0.56766342655E+03  0.00000000000E+00 0. -1.
         21   -1    0    0  501  502 -0.00000000000E+00 -0.00000000000E+00 -0.77997746087E+02  0.77997746087E+02  0.00000000000E+00 0. -1.
      99926    2    1    2    0    0  0.00000000000E+00  0.00000000000E+00  0.48966568046E+03  0.64566117264E+03  0.42083948392E+03 0.  0.
      99925    2    3    3    0    0 -0.57526043616E+02 -0.43552803937E+02  0.35937406702E+03  0.45116308767E+03  0.26304432934E+03 0.  0.
         25    1    4    4    0    0 -0.59511089893E+02 -0.38666404708E+02  0.15464488741E+03  0.21118525037E+03  0.12509000000E+03 0.  0.
         25    1    3    3    0    0  0.57526043616E+02  0.43552803937E+02  0.13029161344E+03  0.19449808497E+03  0.12509000000E+03 0.  0.
         25    1    4    4    0    0  0.19850462766E+01 -0.48863992290E+01  0.20472917962E+03  0.23997783730E+03  0.12509000000E+03 0.  0.
<mgrwt>
<rscale>  2 0.42083948E+03</rscale>
<asrwt>0</asrwt>
<pdfrwt beam="1">  1       21 0.83479913E-01 0.42083948E+03</pdfrwt>
<pdfrwt beam="2">  1       21 0.11470257E-01 0.42083948E+03</pdfrwt>
<totfact> 0.73944864E+04</totfact>
</mgrwt>
</event>
<event>
 7    0  0.4707675E-002  0.4592891E+03  0.7546771E-02  0.1024988E+00
         21   -1    0    0  502  501  0.00000000000E+00  0.00000000000E+00  0.34967777530E+03  0.34967777530E+03  0.00000000000E+00 0. -1.
         21   -1    0    0  501  502 -0.00000000000E+00 -0.00000000000E+00 -0.15081489697E+03  0.15081489697E+03  0.00000000000E+00 0. -1.
      99926    2    1    2    0    0  0.00000000000E+00  0.00000000000E+00  0.19886287833E+03  0.50049267227E+03  0.45928909264E+03 0.  0.
      99925    2    3    3    0    0 -0.45030708548E+02 -0.92483308138E+02  0.18576869312E+03  0.33801223411E+03  0.26298542939E+03 0.  0.
         25    1    4    4    0    0 -0.57105548051E+02 -0.70245248860E+02  0.93295261885E+02  0.18040773984E+03  0.12509000000E+03 0.  0.
         25    1    4    4    0    0  0.12074839503E+02 -0.22238059278E+02  0.92473431234E+02  0.15760449427E+03  0.12509000000E+03 0.  0.
         25    1    3    3    0    0  0.45030708548E+02  0.92483308138E+02  0.13094185213E+02  0.16248043815E+03  0.12509000000E+03 0.  0.
<mgrwt>
<rscale>  2 0.45928909E+03</rscale>
<asrwt>0</asrwt>
<pdfrwt beam="1">  1       21 0.51423202E-01 0.45928909E+03</pdfrwt>
<pdfrwt beam="2">  1       21 0.22178661E-01 0.45928909E+03</pdfrwt>
<totfact> 0.63061443E+04</totfact>
</mgrwt>
</event>
<event>
 7    0  0.4707675E-002  0.4534815E+03  0.7546771E-02  0.1026689E+00
         21   -1    0    0  502  501  0.00000000000E+00  0.00000000000E+00  0.16856851768E+03  0.16856851768E+03  0.00000000000E+00 0. -1.
         21   -1    0    0  501  502 -0.00000000000E+00 -0.00000000000E+00 -0.30498797598E+03  0.30498797598E+03  0.00000000000E+00 0. -1.
      99926    2    1    2    0    0  0.00000000000E+00 -0.14210854715E-13 -0.13641945830E+03  0.47355649366E+03  0.45348151460E+03 0.  0.
      99925    2    3    3    0    0  0.58884434718E+02  0.65429171578E+02 -0.14072890080E+02  0.27768780295E+03  0.26299071567E+03 0.  0.
         25    1    4    4    0    0  0.57444872682E+02  0.44601175437E+02  0.20745245950E+02  0.14617472961E+03  0.12509000000E+03 0.  0.
         25    1    3    3    0    0 -0.58884434718E+02 -0.65429171578E+02 -0.12234656822E+03  0.19586869071E+03  0.12509000000E+03 0.  0.
         25    1    4    4    0    0  0.14395620355E+01  0.20827996141E+02 -0.34818136030E+02  0.13151307334E+03  0.12509000000E+03 0.  0.
<mgrwt>
<rscale>  2 0.45348151E+03</rscale>
<asrwt>0</asrwt>
<pdfrwt beam="1">  1       21 0.24789488E-01 0.45348151E+03</pdfrwt>
<pdfrwt beam="2">  1       21 0.44851172E-01 0.45348151E+03</pdfrwt>
<totfact> 0.67987801E+04</totfact>
</mgrwt>
</event>
<event>
 7    0  0.4707675E-002  0.4541945E+03  0.7546771E-02  0.1026479E+00
         21   -1    0    0  502  501  0.00000000000E+00  0.00000000000E+00  0.22870089453E+03  0.22870089453E+03  0.00000000000E+00 0. -1.
         21   -1    0    0  501  502 -0.00000000000E+00 -0.00000000000E+00 -0.22550485853E+03  0.22550485853E+03  0.00000000000E+00 0. -1.
      99926    2    1    2    0    0  0.00000000000E+00  0.00000000000E+00  0.31960359932E+01  0.45420575306E+03  0.45419450841E+03 0.  0.
      99925    2    3    3    0    0  0.31033171842E+02 -0.10767230264E+03 -0.73188435200E+01  0.28593676215E+03  0.26296365522E+03 0.  0.
         25    1    3    3    0    0 -0.31033171842E+02  0.10767230264E+03  0.10514879513E+02  0.16826899091E+03  0.12509000000E+03 0.  0.
         25    1    4    4    0    0  0.86422367361E+01 -0.51159240918E+02 -0.43485043969E+02  0.14223365754E+03  0.12509000000E+03 0.  0.
         25    1    4    4    0    0  0.22390935106E+02 -0.56513061725E+02  0.36166200449E+02  0.14370310461E+03  0.12509000000E+03 0.  0.
<mgrwt>
<rscale>  2 0.45419451E+03</rscale>
<asrwt>0</asrwt>
<pdfrwt beam="1">  1       21 0.33632484E-01 0.45419451E+03</pdfrwt>
<pdfrwt beam="2">  1       21 0.33162479E-01 0.45419451E+03</pdfrwt>
<totfact> 0.69046711E+04</totfact>
</mgrwt>
</event>
<event>
 7    0  0.4707675E-002  0.4635488E+03  0.7546771E-02  0.1023757E+00
         21   -1    0    0  502  501  0.00000000000E+00  0.00000000000E+00  0.44031451404E+03  0.44031451404E+03  0.00000000000E+00 0.  1.
         21   -1    0    0  501  502 -0.00000000000E+00 -0.00000000000E+00 -0.12200228838E+03  0.12200228838E+03  0.00000000000E+00 0.  1.
      99926    2    1    2    0    0  0.00000000000E+00  0.00000000000E+00  0.31831222566E+03  0.56231680242E+03  0.46354882512E+03 0.  0.
      99925    2    3    3    0    0 -0.27669491776E+02 -0.92472737786E+02  0.11022052187E+03  0.30103826656E+03  0.26298035380E+03 0.  0.
         25    1    4    4    0    0 -0.18813511425E+02 -0.18655667946E+02  0.84508085727E+02  0.15326808804E+03  0.12509000000E+03 0.  0.
         25    1    3    3    0    0  0.27669491776E+02  0.92472737786E+02  0.20809170380E+03  0.26127853585E+03  0.12509000000E+03 0.  0.
         25    1    4    4    0    0 -0.88559803509E+01 -0.73817069841E+02  0.25712436140E+02  0.14777017852E+03  0.12509000000E+03 0.  0.
<mgrwt>
<rscale>  2 0.46354883E+03</rscale>
<asrwt>0</asrwt>
<pdfrwt beam="1">  1       21 0.64752134E-01 0.46354883E+03</pdfrwt>
<pdfrwt beam="2">  1       21 0.17941513E-01 0.46354883E+03</pdfrwt>
<totfact> 0.57099844E+04</totfact>
</mgrwt>
</event>
<event>
 7    0  0.4707675E-002  0.4535023E+03  0.7546771E-02  0.1026683E+00
         21   -1    0    0  502  501  0.00000000000E+00  0.00000000000E+00  0.58840984161E+02  0.58840984161E+02  0.00000000000E+00 0.  1.
         21   -1    0    0  501  502 -0.00000000000E+00 -0.00000000000E+00 -0.87381403367E+03  0.87381403367E+03  0.00000000000E+00 0.  1.
      99926    2    1    2    0    0  0.17763568394E-14  0.00000000000E+00 -0.81497304951E+03  0.93265501783E+03  0.45350227217E+03 0.  0.
      99925    2    3    3    0    0 -0.15911389399E+02 -0.94487645553E+02 -0.39562689359E+03  0.48468203421E+03  0.26308733887E+03 0.  0.
         25    1    4    4    0    0 -0.45889961274E+02 -0.62986089071E+02 -0.19968040155E+03  0.24817918290E+03  0.12509000000E+03 0.  0.
         25    1    4    4    0    0  0.29978571875E+02 -0.31501556483E+02 -0.19594649204E+03  0.23650285130E+03  0.12509000000E+03 0.  0.
         25    1    3    3    0    0  0.15911389399E+02  0.94487645553E+02 -0.41934615592E+03  0.44797298362E+03  0.12509000000E+03 0.  0.
<mgrwt>
<rscale>  2 0.45350227E+03</rscale>
<asrwt>0</asrwt>
<pdfrwt beam="1">  1       21 0.86530859E-02 0.45350227E+03</pdfrwt>
<pdfrwt beam="2">  1       21 0.12850206E+00 0.45350227E+03</pdfrwt>
<totfact> 0.42345130E+04</totfact>
</mgrwt>
</event>
<event>
 7    0  0.4707675E-002  0.4546999E+03  0.7546771E-02  0.1026330E+00
         21   -1    0    0  502  501  0.00000000000E+00  0.00000000000E+00  0.14085495483E+04  0.14085495483E+04  0.00000000000E+00 0.  1.
         21   -1    0    0  501  502 -0.00000000000E+00 -0.00000000000E+00 -0.36695897278E+02  0.36695897278E+02  0.00000000000E+00 0.  1.
      99926    2    1    2    0    0  0.00000000000E+00  0.00000000000E+00  0.13718536510E+04  0.14452454456E+04  0.45469985501E+03 0.  0.
      99925    2    3    3    0    0  0.10468376874E+03 -0.13025121366E+02  0.99128828990E+03  0.10309920842E+04  0.26299022563E+03 0.  0.
         25    1    4    4    0    0  0.26862337222E+02  0.15101985095E+02  0.55095039901E+03  0.56581225277E+03  0.12509000000E+03 0.  0.
         25    1    3    3    0    0 -0.10468376874E+03  0.13025121366E+02  0.38056536115E+03  0.41425336140E+03  0.12509000000E+03 0.  0.
         25    1    4    4    0    0  0.77821431517E+02 -0.28127106460E+02  0.44033789089E+03  0.46517983143E+03  0.12509000000E+03 0.  0.
<mgrwt>
<rscale>  2 0.45469986E+03</rscale>
<asrwt>0</asrwt>
<pdfrwt beam="1">  1       21 0.20713960E+00 0.45469986E+03</pdfrwt>
<pdfrwt beam="2">  1       21 0.53964564E-02 0.45469986E+03</pdfrwt>
<totfact> 0.25209585E+04</totfact>
</mgrwt>
</event>
<event>
 7    0  0.4707675E-002  0.4477782E+03  0.7546771E-02  0.1028387E+00
         21   -1    0    0  502  501  0.00000000000E+00  0.00000000000E+00  0.46956164892E+03  0.46956164892E+03  0.00000000000E+00 0. -1.
         21   -1    0    0  501  502 -0.00000000000E+00 -0.00000000000E+00 -0.10675132541E+03  0.10675132541E+03  0.00000000000E+00 0. -1.
      99926    2    1    2    0    0 -0.88817841970E-15 -0.14210854715E-13  0.36281032351E+03  0.57631297433E+03  0.44777819681E+03 0.  0.
      99925    2    3    3    0    0 -0.44309641572E+01  0.76122940905E+02  0.13452809103E+03  0.30506655253E+03  0.26297045199E+03 0.  0.
         25    1    4    4    0    0  0.25775083339E+02  0.55044663446E+02  0.42362753705E+02  0.14538356474E+03  0.12509000000E+03 0.  0.
         25    1    3    3    0    0  0.44309641572E+01 -0.76122940905E+02  0.22828223248E+03  0.27124642180E+03  0.12509000000E+03 0.  0.
         25    1    4    4    0    0 -0.30206047496E+02  0.21078277459E+02  0.92165337326E+02  0.15968298779E+03  0.12509000000E+03 0.  0.
<mgrwt>
<rscale>  2 0.44777820E+03</rscale>
<asrwt>0</asrwt>
<pdfrwt beam="1">  1       21 0.69053183E-01 0.44777820E+03</pdfrwt>
<pdfrwt beam="2">  1       21 0.15698725E-01 0.44777820E+03</pdfrwt>
<totfact> 0.63721658E+04</totfact>
</mgrwt>
</event>
<event>
 7    0  0.4707675E-002  0.4683017E+03  0.7546771E-02  0.1022401E+00
         21   -1    0    0  502  501  0.00000000000E+00  0.00000000000E+00  0.25857543977E+03  0.25857543977E+03  0.00000000000E+00 0.  1.
         21   -1    0    0  501  502 -0.00000000000E+00 -0.00000000000E+00 -0.21203340776E+03  0.21203340776E+03  0.00000000000E+00 0.  1.
      99926    2    1    2    0    0  0.00000000000E+00  0.00000000000E+00  0.46542032015E+02  0.47060884753E+03  0.46830174741E+03 0.  0.
      99925    2    3    3    0    0 -0.17669729957E+02  0.29973982854E+02 -0.92598502016E+02  0.28029790376E+03  0.26226279430E+03 0.  0.
         25    1    4    4    0    0  0.53413188774E+01  0.38181860436E+02 -0.16700817910E+02  0.13195760521E+03  0.12509000000E+03 0.  0.
         25    1    3    3    0    0  0.17669729957E+02 -0.29973982854E+02  0.13914053403E+03  0.19031094376E+03  0.12509000000E+03 0.  0.
         25    1    4    4    0    0 -0.23011048834E+02 -0.82078775821E+01 -0.75897684106E+02  0.14834029856E+03  0.12509000000E+03 0.  0.
<mgrwt>
<rscale>  2 0.46830175E+03</rscale>
<asrwt>0</asrwt>
<pdfrwt beam="1">  1       21 0.38025800E-01 0.46830175E+03</pdfrwt>
<pdfrwt beam="2">  1       21 0.31181383E-01 0.46830175E+03</pdfrwt>
<totfact> 0.60713239E+04</totfact>
</mgrwt>
</event>
<event>
 7    0  0.4707675E-002  0.4586482E+03  0.7546771E-02  0.1025174E+00
         21   -1    0    0  502  501  0.00000000000E+00  0.00000000000E+00  0.11463438880E+04  0.11463438880E+04  0.00000000000E+00 0.  1.
         21   -1    0    0  501  502 -0.00000000000E+00 -0.00000000000E+00 -0.45875889433E+02  0.45875889433E+02  0.00000000000E+00 0.  1.
      99926    2    1    2    0    0  0.00000000000E+00  0.00000000000E+00  0.11004679985E+04  0.11922197774E+04  0.45864821141E+03 0.  0.
      99925    2    3    3    0    0 -0.87170641915E+02  0.39657033157E+02  0.51700678997E+03  0.58786401207E+03  0.26290050346E+03 0.  0.
         25    1    4    4    0    0 -0.27084896825E+02 -0.16205633187E+02  0.26663371043E+03  0.29620475658E+03  0.12509000000E+03 0.  0.
         25    1    4    4    0    0 -0.60085745090E+02  0.55862666344E+02  0.25037307954E+03  0.29165925549E+03  0.12509000000E+03 0.  0.
         25    1    3    3    0    0  0.87170641915E+02 -0.39657033157E+02  0.58346120857E+03  0.60435576533E+03  0.12509000000E+03 0.  0.
<mgrwt>
<rscale>  2 0.45864821E+03</rscale>
<asrwt>0</asrwt>
<pdfrwt beam="1">  1       21 0.16857996E+00 0.45864821E+03</pdfrwt>
<pdfrwt beam="2">  1       21 0.67464551E-02 0.45864821E+03</pdfrwt>
<totfact> 0.31498702E+04</totfact>
</mgrwt>
</event>
<event>
 7    0  0.4707675E-002  0.4574469E+03  0.7546771E-02  0.1025524E+00
         21   -1    0    0  502  501  0.00000000000E+00  0.00000000000E+00  0.98000341479E+03  0.98000341479E+03  0.00000000000E+00 0. -1.
         21   -1    0    0  501  502 -0.00000000000E+00 -0.00000000000E+00 -0.53381879741E+02  0.53381879741E+02  0.00000000000E+00 0. -1.
      99926    2    1    2    0    0  0.35527136788E-14  0.00000000000E+00  0.92662153505E+03  0.10333852945E+04  0.45744693434E+03 0.  0.
      99925    2    3    3    0    0 -0.16484797222E+02 -0.94198039022E+02  0.43610347481E+03  0.51821493958E+03  0.26308831934E+03 0.  0.
         25    1    3    3    0    0  0.16484797222E+02  0.94198039022E+02  0.49051806024E+03  0.51517035495E+03  0.12509000000E+03 0.  0.
         25    1    4    4    0    0 -0.99342528854E+01 -0.87367577123E+02  0.26666750561E+03  0.30739363943E+03  0.12509000000E+03 0.  0.
         25    1    4    4    0    0 -0.65505443362E+01 -0.68304618998E+01  0.16943596919E+03  0.21082130015E+03  0.12509000000E+03 0.  0.
<mgrwt>
<rscale>  2 0.45744693E+03</rscale>
<asrwt>0</asrwt>
<pdfrwt beam="1">  1       21 0.14411814E+00 0.45744693E+03</pdfrwt>
<pdfrwt beam="2">  1       21 0.78502771E-02 0.45744693E+03</pdfrwt>
<totfact> 0.37177735E+04</totfact>
</mgrwt>
</event>
<event>
 7    0  0.4707675E-002  0.4530805E+03  0.7546771E-02  0.1026807E+00
         21   -1    0    0  502  501  0.00000000000E+00  0.00000000000E+00  0.30630591135E+03  0.30630591135E+03  0.00000000000E+00 0.  1.
         21   -1    0    0  501  502 -0.00000000000E+00 -0.00000000000E+00 -0.16754650655E+03  0.16754650655E+03  0.00000000000E+00 0.  1.
      99926    2    1    2    0    0  0.00000000000E+00  0.00000000000E+00  0.13875940480E+03  0.47385241790E+03  0.45308050226E+03 0.  0.
      99925    2    3    3    0    0  0.71047125194E+02  0.48459625311E+02  0.13582473539E+02  0.27709672801E+03  0.26306288945E+03 0.  0.
         25    1    4    4    0    0  0.71051641445E+02  0.33424447413E+02  0.27869713567E+02  0.15029889711E+03  0.12509000000E+03 0.  0.
         25    1    4    4    0    0 -0.45162506859E-02  0.15035177898E+02 -0.14287240028E+02  0.12679783091E+03  0.12509000000E+03 0.  0.
         25    1    3    3    0    0 -0.71047125194E+02 -0.48459625311E+02  0.12517693126E+03  0.19675568989E+03  0.12509000000E+03 0.  0.
<mgrwt>
<rscale>  2 0.45308050E+03</rscale>
<asrwt>0</asrwt>
<pdfrwt beam="1">  1       21 0.45044987E-01 0.45308050E+03</pdfrwt>
<pdfrwt beam="2">  1       21 0.24639192E-01 0.45308050E+03</pdfrwt>
<totfact> 0.68183115E+04</totfact>
</mgrwt>
</event>
<event>
 7    0  0.4707675E-002  0.4545679E+03  0.7546771E-02  0.1026369E+00
         21   -1    0    0  502  501  0.00000000000E+00  0.00000000000E+00  0.26446196797E+02  0.26446196797E+02  0.00000000000E+00 0. -1.
         21   -1    0    0  501  502 -0.00000000000E+00 -0.00000000000E+00 -0.19533237460E+04  0.19533237460E+04  0.00000000000E+00 0. -1.
      99926    2    1    2    0    0  0.00000000000E+00 -0.17763568394E-14 -0.19268775492E+04  0.19797699428E+04  0.45456785718E+03 0.  0.
      99925    2    3    3    0    0  0.82222660484E+02  0.10971331956E+02 -0.88029652530E+03  0.92248082258E+03  0.26299802198E+03 0.  0.
         25    1    4    4    0    0  0.81689895089E+02 -0.28068730462E+01 -0.50521986730E+03  0.52685457188E+03  0.12509000000E+03 0.  0.
         25    1    4    4    0    0  0.53276539491E+00  0.13778205002E+02 -0.37507665800E+03  0.39562625071E+03  0.12509000000E+03 0.  0.
         25    1    3    3    0    0 -0.82222660484E+02 -0.10971331956E+02 -0.10465810239E+04  0.10572891202E+04  0.12509000000E+03 0.  0.
<mgrwt>
<rscale>  2 0.45456786E+03</rscale>
<asrwt>0</asrwt>
<pdfrwt beam="1">  1       21 0.38891472E-02 0.45456786E+03</pdfrwt>
<pdfrwt beam="2">  1       21 0.28725345E+00 0.45456786E+03</pdfrwt>
<totfact> 0.14090095E+04</totfact>
</mgrwt>
</event>
<event>
 7    0  0.4707675E-002  0.4573351E+03  0.7546771E-02  0.1025557E+00
         21   -1    0    0  502  501  0.00000000000E+00  0.00000000000E+00  0.22604351614E+03  0.22604351614E+03  0.00000000000E+00 0.  1.
         21   -1    0    0  501  502 -0.00000000000E+00 -0.00000000000E+00 -0.23132204910E+03  0.23132204910E+03  0.00000000000E+00 0.  1.
      99926    2    1    2    0    0  0.35527136788E-14  0.00000000000E+00 -0.52785329663E+01  0.45736556524E+03  0.45733510401E+03 0.  0.
      99925    2    3    3    0    0 -0.29501062387E+02 -0.99978347063E+02  0.46177171677E+02  0.28659911595E+03  0.26294626735E+03 0.  0.
         25    1    4    4    0    0  0.11253161687E+01 -0.10139275001E+02  0.27346396372E+02  0.12845000867E+03  0.12509000000E+03 0.  0.
         25    1    3    3    0    0  0.29501062387E+02  0.99978347063E+02 -0.51455704643E+02  0.17076644929E+03  0.12509000000E+03 0.  0.
         25    1    4    4    0    0 -0.30626378555E+02 -0.89839072062E+02  0.18830775305E+02  0.15814910727E+03  0.12509000000E+03 0.  0.
<mgrwt>
<rscale>  2 0.45733510E+03</rscale>
<asrwt>0</asrwt>
<pdfrwt beam="1">  1       21 0.33241694E-01 0.45733510E+03</pdfrwt>
<pdfrwt beam="2">  1       21 0.34017948E-01 0.45733510E+03</pdfrwt>
<totfact> 0.67113654E+04</totfact>
</mgrwt>
</event>
<event>
 7    0  0.4707675E-002  0.4479825E+03  0.7546771E-02  0.1028325E+00
         21   -1    0    0  502  501  0.00000000000E+00  0.00000000000E+00  0.89511746813E+02  0.89511746813E+02  0.00000000000E+00 0. -1.
         21   -1    0    0  501  502 -0.00000000000E+00 -0.00000000000E+00 -0.56050835178E+03  0.56050835178E+03  0.00000000000E+00 0. -1.
      99926    2    1    2    0    0  0.00000000000E+00  0.14210854715E-13 -0.47099660497E+03  0.65002009859E+03  0.44798250712E+03 0.  0.
      99925    2    3    3    0    0  0.43260672016E+02  0.77196653795E+02 -0.38414804697E+03  0.47389233466E+03  0.26300839105E+03 0.  0.
         25    1    4    4    0    0  0.59782593766E+02  0.39009671679E+02 -0.22618639781E+03  0.26814829415E+03  0.12509000000E+03 0.  0.
         25    1    3    3    0    0 -0.43260672016E+02 -0.77196653795E+02 -0.86848557999E+02  0.17612776393E+03  0.12509000000E+03 0.  0.
         25    1    4    4    0    0 -0.16521921750E+02  0.38186982116E+02 -0.15796164916E+03  0.20574404052E+03  0.12509000000E+03 0.  0.
<mgrwt>
<rscale>  2 0.44798251E+03</rscale>
<asrwt>0</asrwt>
<pdfrwt beam="1">  1       21 0.13163493E-01 0.44798251E+03</pdfrwt>
<pdfrwt beam="2">  1       21 0.82427695E-01 0.44798251E+03</pdfrwt>
<totfact> 0.58893429E+04</totfact>
</mgrwt>
</event>
<event>
 7    0  0.4707675E-002  0.4525787E+03  0.7546771E-02  0.1026956E+00
         21   -1    0    0  502  501  0.00000000000E+00  0.00000000000E+00  0.25837732491E+03  0.25837732491E+03  0.00000000000E+00 0. -1.
         21   -1    0    0  501  502 -0.00000000000E+00 -0.00000000000E+00 -0.19818639998E+03  0.19818639998E+03  0.00000000000E+00 0. -1.
      99926    2    1    2    0    0  0.00000000000E+00  0.00000000000E+00  0.60190924924E+02  0.45656372489E+03  0.45257870856E+03 0.  0.
      99925    2    3    3    0    0 -0.97546480900E+02 -0.17203473243E+02 -0.12414625243E+02  0.28126298490E+03  0.26295145622E+03 0.  0.
         25    1    4    4    0    0 -0.90872985154E+02 -0.18162532611E+02 -0.92509626193E+01  0.15595148422E+03  0.12509000000E+03 0.  0.
         25    1    3    3    0    0  0.97546480900E+02  0.17203473243E+02  0.72605550168E+02  0.17530073999E+03  0.12509000000E+03 0.  0.
         25    1    4    4    0    0 -0.66734957464E+01  0.95905936769E+00 -0.31636626241E+01  0.12531150068E+03  0.12509000000E+03 0.  0.
<mgrwt>
<rscale>  2 0.45257871E+03</rscale>
<asrwt>0</asrwt>
<pdfrwt beam="1">  1       21 0.37996665E-01 0.45257871E+03</pdfrwt>
<pdfrwt beam="2">  1       21 0.29145059E-01 0.45257871E+03</pdfrwt>
<totfact> 0.69769214E+04</totfact>
</mgrwt>
</event>
<event>
 7    0  0.4707675E-002  0.4141105E+03  0.7546771E-02  0.1039000E+00
         21   -1    0    0  502  501  0.00000000000E+00  0.00000000000E+00  0.43955350080E+03  0.43955350080E+03  0.00000000000E+00 0. -1.
         21   -1    0    0  501  502 -0.00000000000E+00 -0.00000000000E+00 -0.97535061664E+02  0.97535061664E+02  0.00000000000E+00 0. -1.
      99926    2    1    2    0    0  0.00000000000E+00  0.00000000000E+00  0.34201843914E+03  0.53708856247E+03  0.41411050605E+03 0.  0.
      99925    2    3    3    0    0  0.57190605030E+02 -0.37107468733E+02  0.22034423142E+03  0.34973902160E+03  0.26290316348E+03 0.  0.
         25    1    4    4    0    0  0.18357481704E+02  0.11815018678E+02  0.13775276366E+03  0.18734973658E+03  0.12509000000E+03 0.  0.
         25    1    3    3    0    0 -0.57190605030E+02  0.37107468733E+02  0.12167420772E+03  0.18734954087E+03  0.12509000000E+03 0.  0.
         25    1    4    4    0    0  0.38833123327E+02 -0.48922487411E+02  0.82591467756E+02  0.16238928502E+03  0.12509000000E+03 0.  0.
<mgrwt>
<rscale>  2 0.41411051E+03</rscale>
<asrwt>0</asrwt>
<pdfrwt beam="1">  1       21 0.64640220E-01 0.41411051E+03</pdfrwt>
<pdfrwt beam="2">  1       21 0.14343392E-01 0.41411051E+03</pdfrwt>
<totfact> 0.87905349E+04</totfact>
</mgrwt>
</event>
<event>
 6    0  0.4707675E-002  0.4516041E+03  0.7546771E-02  0.1027245E+00
         21   -1    0    0  502  501  0.00000000000E+00  0.00000000000E+00  0.36856119021E+03  0.36856119021E+03  0.00000000000E+00 0. -1.
         21   -1    0    0  501  502 -0.00000000000E+00 -0.00000000000E+00 -0.13833948706E+03  0.13833948706E+03  0.00000000000E+00 0. -1.
      99926    2    1    2    0    0  0.00000000000E+00  0.00000000000E+00  0.23022170315E+03  0.50690067726E+03  0.45160410097E+03 0.  0.
         25    1    3    3    0    0 -0.41085507159E+02  0.17695867791E+01  0.11019628133E+02  0.13213663625E+03  0.12509000000E+03 0.  0.
         25    1    3    3    0    0 -0.48879322233E+02 -0.48204817567E+02  0.94000095870E+02  0.17086959560E+03  0.12509000000E+03 0.  0.
         25    1    3    3    0    0  0.89964829392E+02  0.46435230788E+02  0.12520197915E+03  0.20389444541E+03  0.12509000000E+03 0.  0.
<mgrwt>
<rscale>  2 0.45160410E+03</rscale>
<asrwt>0</asrwt>
<pdfrwt beam="1">  1       21 0.54200175E-01 0.45160410E+03</pdfrwt>
<pdfrwt beam="2">  1       21 0.20344042E-01 0.45160410E+03</pdfrwt>
<totfact> 0.66564552E+04</totfact>
</mgrwt>
</event>
<event>
 7    0  0.4707675E-002  0.4539767E+03  0.7546771E-02  0.1026543E+00
         21   -1    0    0  502  501  0.00000000000E+00  0.00000000000E+00  0.52141592065E+02  0.52141592065E+02  0.00000000000E+00 0. -1.
         21   -1    0    0  501  502 -0.00000000000E+00 -0.00000000000E+00 -0.98815002366E+03  0.98815002366E+03  0.00000000000E+00 0. -1.
      99926    2    1    2    0    0  0.00000000000E+00  0.00000000000E+00 -0.93600843159E+03  0.10402916157E+04  0.45397671937E+03 0.  0.
      99925    2    3    3    0    0  0.33260729676E+02  0.49304634844E+02 -0.37150176113E+03  0.45904079873E+03  0.26299747760E+03 0.  0.
         25    1    4    4    0    0  0.62248758429E+01  0.63699372758E+02 -0.20533605284E+03  0.24881069484E+03  0.12509000000E+03 0.  0.
         25    1    4    4    0    0  0.27035853833E+02 -0.14394737915E+02 -0.16616570829E+03  0.21023010389E+03  0.12509000000E+03 0.  0.
         25    1    3    3    0    0 -0.33260729676E+02 -0.49304634844E+02 -0.56450667046E+03  0.58125081699E+03  0.12509000000E+03 0.  0.
<mgrwt>
<rscale>  2 0.45397672E+03</rscale>
<asrwt>0</asrwt>
<pdfrwt beam="1">  1       21 0.76678814E-02 0.45397672E+03</pdfrwt>
<pdfrwt beam="2">  1       21 0.14531618E+00 0.45397672E+03</pdfrwt>
<totfact> 0.37937785E+04</totfact>
</mgrwt>
</event>
<event>
 7    0  0.4707675E-002  0.4486407E+03  0.7546771E-02  0.1028128E+00
         21   -1    0    0  502  501  0.00000000000E+00  0.00000000000E+00  0.52651000977E+02  0.52651000977E+02  0.00000000000E+00 0.  1.
         21   -1    0    0  501  502 -0.00000000000E+00 -0.00000000000E+00 -0.95572021270E+03  0.95572021270E+03  0.00000000000E+00 0.  1.
      99926    2    1    2    0    0  0.17763568394E-14  0.00000000000E+00 -0.90306921172E+03  0.10083712137E+04  0.44864072866E+03 0.  0.
      99925    2    3    3    0    0 -0.88776618804E+01 -0.68562448263E+02 -0.38740720035E+03  0.47326894283E+03  0.26290593598E+03 0.  0.
         25    1    4    4    0    0  0.34417113693E+02 -0.26375595043E+02 -0.20369613055E+03  0.24293997495E+03  0.12509000000E+03 0.  0.
         25    1    4    4    0    0 -0.43294775573E+02 -0.42186853220E+02 -0.18371106980E+03  0.23032896788E+03  0.12509000000E+03 0.  0.
         25    1    3    3    0    0  0.88776618804E+01  0.68562448263E+02 -0.51566201137E+03  0.53510227084E+03  0.12509000000E+03 0.  0.
<mgrwt>
<rscale>  2 0.44864073E+03</rscale>
<asrwt>0</asrwt>
<pdfrwt beam="1">  1       21 0.77427944E-02 0.44864073E+03</pdfrwt>
<pdfrwt beam="2">  1       21 0.14054709E+00 0.44864073E+03</pdfrwt>
<totfact> 0.40833098E+04</totfact>
</mgrwt>
</event>
<event>
 7    0  0.4707675E-002  0.4455241E+03  0.7546771E-02  0.1029065E+00
         21   -1    0    0  502  501  0.00000000000E+00  0.00000000000E+00  0.22116572728E+03  0.22116572728E+03  0.00000000000E+00 0. -1.
         21   -1    0    0  501  502 -0.00000000000E+00 -0.00000000000E+00 -0.22436993672E+03  0.22436993672E+03  0.00000000000E+00 0. -1.
      99926    2    1    2    0    0 -0.17763568394E-14  0.00000000000E+00 -0.32042094477E+01  0.44553566400E+03  0.44552414181E+03 0.  0.
      99925    2    3    3    0    0  0.15143489901E+02  0.28021989068E+02  0.97250242409E+02  0.28197172496E+03  0.26274681134E+03 0.  0.
         25    1    3    3    0    0 -0.15143489901E+02 -0.28021989068E+02 -0.10045445186E+03  0.16356393904E+03  0.12509000000E+03 0.  0.
         25    1    4    4    0    0 -0.21050023727E+02 -0.16590510390E+01  0.22257175359E+02  0.12879730550E+03  0.12509000000E+03 0.  0.
         25    1    4    4    0    0  0.36193513628E+02  0.29681040107E+02  0.74993067050E+02  0.15317441946E+03  0.12509000000E+03 0.  0.
<mgrwt>
<rscale>  2 0.44552414E+03</rscale>
<asrwt>0</asrwt>
<pdfrwt beam="1">  1       21 0.32524372E-01 0.44552414E+03</pdfrwt>
<pdfrwt beam="2">  1       21 0.32995579E-01 0.44552414E+03</pdfrwt>
<totfact> 0.74737668E+04</totfact>
</mgrwt>
</event>
<event>
 7    0  0.4707675E-002  0.4489890E+03  0.7546771E-02  0.1028024E+00
         21   -1    0    0  502  501  0.00000000000E+00  0.00000000000E+00  0.12257439974E+04  0.12257439974E+04  0.00000000000E+00 0.  1.
         21   -1    0    0  501  502 -0.00000000000E+00 -0.00000000000E+00 -0.41116079750E+02  0.41116079750E+02  0.00000000000E+00 0.  1.
      99926    2    1    2    0    0 -0.88817841970E-15  0.00000000000E+00  0.11846279176E+04  0.12668600771E+04  0.44898903305E+03 0.  0.
      99925    2    3    3    0    0 -0.71121334407E+01 -0.10511534186E+03  0.69013657848E+03  0.74602516074E+03  0.26299282493E+03 0.  0.
         25    1    4    4    0    0  0.31078881979E+02 -0.56008582128E+02  0.29130809226E+03  0.32343588374E+03  0.12509000000E+03 0.  0.
         25    1    3    3    0    0  0.71121334407E+01  0.10511534186E+03  0.49449133915E+03  0.52083491639E+03  0.12509000000E+03 0.  0.
         25    1    4    4    0    0 -0.38191015420E+02 -0.49106759736E+02  0.39882848622E+03  0.42258927699E+03  0.12509000000E+03 0.  0.
<mgrwt>
<rscale>  2 0.44898903E+03</rscale>
<asrwt>0</asrwt>
<pdfrwt beam="1">  1       21 0.18025645E+00 0.44898903E+03</pdfrwt>
<pdfrwt beam="2">  1       21 0.60464832E-02 0.44898903E+03</pdfrwt>
<totfact> 0.31542199E+04</totfact>
</mgrwt>
</event>
<event>
 7    0  0.4707675E-002  0.4515552E+03  0.7546771E-02  0.1027259E+00
         21   -1    0    0  502  501  0.00000000000E+00  0.00000000000E+00  0.34015757354E+03  0.34015757354E+03  0.00000000000E+00 0. -1.
         21   -1    0    0  501  502 -0.00000000000E+00 -0.00000000000E+00 -0.14985859263E+03  0.14985859263E+03  0.00000000000E+00 0. -1.
      99926    2    1    2    0    0  0.00000000000E+00  0.00000000000E+00  0.19029898090E+03  0.49001616617E+03  0.45155524687E+03 0.  0.
      99925    2    3    3    0    0 -0.10458645791E+02 -0.95078107145E+02  0.17866684780E+03  0.33211732402E+03  0.26311754917E+03 0.  0.
         25    1    4    4    0    0 -0.93443543122E+01 -0.45050020541E+02  0.13689706302E+03  0.19106317089E+03  0.12509000000E+03 0.  0.
         25    1    3    3    0    0  0.10458645791E+02  0.95078107145E+02  0.11632133100E+02  0.15789884214E+03  0.12509000000E+03 0.  0.
         25    1    4    4    0    0 -0.11142914789E+01 -0.50028086604E+02  0.41769784787E+02  0.14105415313E+03  0.12509000000E+03 0.  0.
<mgrwt>
<rscale>  2 0.45155525E+03</rscale>
<asrwt>0</asrwt>
<pdfrwt beam="1">  1       21 0.50023173E-01 0.45155525E+03</pdfrwt>
<pdfrwt beam="2">  1       21 0.22038028E-01 0.45155525E+03</pdfrwt>
<totfact> 0.67813497E+04</totfact>
</mgrwt>
</event>
<event>
 7    0  0.4707675E-002  0.4617584E+03  0.7546771E-02  0.1024272E+00
         21   -1    0    0  502  501  0.00000000000E+00  0.00000000000E+00  0.37376890911E+03  0.37376890911E+03  0.00000000000E+00 0. -1.
         21   -1    0    0  501  502 -0.00000000000E+00 -0.00000000000E+00 -0.14261537914E+03  0.14261537914E+03  0.00000000000E+00 0. -1.
      99926    2    1    2    0    0 -0.17763568394E-14  0.71054273576E-14  0.23115352997E+03  0.51638428825E+03  0.46175835534E+03 0.  0.
      99925    2    3    3    0    0 -0.13404912732E+02  0.38799752377E+02  0.19785732387E+02  0.26736829192E+03  0.26345628831E+03 0.  0.
         25    1    4    4    0    0  0.12351193774E+02 -0.87856536978E+01  0.33519145484E+02  0.13038704273E+03  0.12509000000E+03 0.  0.
         25    1    3    3    0    0  0.13404912732E+02 -0.38799752377E+02  0.21136779759E+03  0.24901599633E+03  0.12509000000E+03 0.  0.
         25    1    4    4    0    0 -0.25756106506E+02  0.47585406075E+02 -0.13733413097E+02  0.13698124919E+03  0.12509000000E+03 0.  0.
<mgrwt>
<rscale>  2 0.46175836E+03</rscale>
<asrwt>0</asrwt>
<pdfrwt beam="1">  1       21 0.54966016E-01 0.46175836E+03</pdfrwt>
<pdfrwt beam="2">  1       21 0.20972850E-01 0.46175836E+03</pdfrwt>
<totfact> 0.60807031E+04</totfact>
</mgrwt>
</event>
<event>
 7    0  0.4707675E-002  0.4514271E+03  0.7546771E-02  0.1027297E+00
         21   -1    0    0  502  501  0.00000000000E+00  0.00000000000E+00  0.10052089985E+03  0.10052089985E+03  0.00000000000E+00 0.  1.
         21   -1    0    0  501  502 -0.00000000000E+00 -0.00000000000E+00 -0.50682597048E+03  0.50682597048E+03  0.00000000000E+00 0.  1.
      99926    2    1    2    0    0 -0.17763568394E-14  0.00000000000E+00 -0.40630507063E+03  0.60734687033E+03  0.45142708212E+03 0.  0.
      99925    2    3    3    0    0  0.25103422539E+01 -0.63514179117E+02 -0.37694391060E+03  0.46399437267E+03  0.26298994916E+03 0.  0.
         25    1    3    3    0    0 -0.25103422539E+01  0.63514179117E+02 -0.29361160033E+02  0.14335249766E+03  0.12509000000E+03 0.  0.
         25    1    4    4    0    0  0.35476570804E+02 -0.15932319243E+02 -0.20994043460E+03  0.24745690545E+03  0.12509000000E+03 0.  0.
         25    1    4    4    0    0 -0.32966228550E+02 -0.47581859874E+02 -0.16700347600E+03  0.21653746722E+03  0.12509000000E+03 0.  0.
<mgrwt>
<rscale>  2 0.45142708E+03</rscale>
<asrwt>0</asrwt>
<pdfrwt beam="1">  1       21 0.14782485E-01 0.45142708E+03</pdfrwt>
<pdfrwt beam="2">  1       21 0.74533231E-01 0.45142708E+03</pdfrwt>
<totfact> 0.59901140E+04</totfact>
</mgrwt>
</event>
<event>
 7    0  0.4707675E-002  0.4587778E+03  0.7546771E-02  0.1025136E+00
         21   -1    0    0  502  501  0.00000000000E+00  0.00000000000E+00  0.58672627275E+03  0.58672627275E+03  0.00000000000E+00 0. -1.
         21   -1    0    0  501  502 -0.00000000000E+00 -0.00000000000E+00 -0.89682808219E+02  0.89682808219E+02  0.00000000000E+00 0. -1.
      99926    2    1    2    0    0  0.00000000000E+00  0.00000000000E+00  0.49704346453E+03  0.67640908097E+03  0.45877776666E+03 0.  0.
      99925    2    3    3    0    0  0.11431487565E+03  0.22911833817E+02  0.31203265557E+03  0.42447783944E+03  0.26310495075E+03 0.  0.
         25    1    4    4    0    0  0.71359811043E+02 -0.25236212838E+02  0.17498363128E+03  0.22802602568E+03  0.12509000000E+03 0.  0.
         25    1    4    4    0    0  0.42955064610E+02  0.48148046655E+02  0.13704902429E+03  0.19645181377E+03  0.12509000000E+03 0.  0.
         25    1    3    3    0    0 -0.11431487565E+03 -0.22911833817E+02  0.18501080896E+03  0.25193124152E+03  0.12509000000E+03 0.  0.
<mgrwt>
<rscale>  2 0.45877777E+03</rscale>
<asrwt>0</asrwt>
<pdfrwt beam="1">  1       21 0.86283273E-01 0.45877777E+03</pdfrwt>
<pdfrwt beam="2">  1       21 0.13188649E-01 0.45877777E+03</pdfrwt>
<totfact> 0.52618795E+04</totfact>
</mgrwt>
</event>
<event>
 7    0  0.4707675E-002  0.4573949E+03  0.7546771E-02  0.1025539E+00
         21   -1    0    0  502  501  0.00000000000E+00  0.00000000000E+00  0.36369337762E+02  0.36369337762E+02  0.00000000000E+00 0.  1.
         21   -1    0    0  501  502 -0.00000000000E+00 -0.00000000000E+00 -0.14380937083E+04  0.14380937083E+04  0.00000000000E+00 0.  1.
      99926    2    1    2    0    0  0.35527136788E-14  0.00000000000E+00 -0.14017243706E+04  0.14744630461E+04  0.45739486579E+03 0.  0.
      99925    2    3    3    0    0 -0.26694102153E+02  0.52994417864E+02 -0.56134408356E+03  0.62275445843E+03  0.26304933364E+03 0.  0.
         25    1    4    4    0    0 -0.25637449139E+02  0.44171183153E+02 -0.37076174367E+03  0.39461392638E+03  0.12509000000E+03 0.  0.
         25    1    4    4    0    0 -0.10566530143E+01  0.88232347110E+01 -0.19058233989E+03  0.22814053205E+03  0.12509000000E+03 0.  0.
         25    1    3    3    0    0  0.26694102153E+02 -0.52994417864E+02 -0.84038028702E+03  0.85170858768E+03  0.12509000000E+03 0.  0.
<mgrwt>
<rscale>  2 0.45739487E+03</rscale>
<asrwt>0</asrwt>
<pdfrwt beam="1">  1       21 0.53484321E-02 0.45739487E+03</pdfrwt>
<pdfrwt beam="2">  1       21 0.21148437E+00 0.45739487E+03</pdfrwt>
<totfact> 0.23963083E+04</totfact>
</mgrwt>
</event>
<event>
 7    0  0.4707675E-002  0.4569472E+03  0.7546771E-02  0.1025670E+00
         21   -1    0    0  502  501  0.00000000000E+00  0.00000000000E+00  0.59951581489E+02  0.59951581489E+02  0.00000000000E+00 0.  1.
         21   -1    0    0  501  502 -0.00000000000E+00 -0.00000000000E+00 -0.87070555625E+03  0.87070555625E+03  0.00000000000E+00 0.  1.
      99926    2    1    2    0    0  0.00000000000E+00  0.00000000000E+00 -0.81075397476E+03  0.93065713773E+03  0.45694715278E+03 0.  0.
      99925    2    3    3    0    0 -0.48820441318E+01  0.80769701304E+02 -0.67566655089E+03  0.72955094889E+03  0.26300517112E+03 0.  0.
         25    1    4    4    0    0  0.10805076755E+02  0.50127811173E+02 -0.44283697707E+03  0.46301365368E+03  0.12509000000E+03 0.  0.
         25    1    3    3    0    0  0.48820441318E+01 -0.80769701304E+02 -0.13508742387E+03  0.20110618884E+03  0.12509000000E+03 0.  0.
         25    1    4    4    0    0 -0.15687120887E+02  0.30641890131E+02 -0.23282957382E+03  0.26653729521E+03  0.12509000000E+03 0.  0.
<mgrwt>
<rscale>  2 0.45694715E+03</rscale>
<asrwt>0</asrwt>
<pdfrwt beam="1">  1       21 0.88164096E-02 0.45694715E+03</pdfrwt>
<pdfrwt beam="2">  1       21 0.12804493E+00 0.45694715E+03</pdfrwt>
<totfact> 0.41301563E+04</totfact>
</mgrwt>
</event>
<event>
 7    0  0.4707675E-002  0.4604370E+03  0.7546771E-02  0.1024655E+00
         21   -1    0    0  502  501  0.00000000000E+00  0.00000000000E+00  0.20918455134E+03  0.20918455134E+03  0.00000000000E+00 0. -1.
         21   -1    0    0  501  502 -0.00000000000E+00 -0.00000000000E+00 -0.25336747073E+03  0.25336747073E+03  0.00000000000E+00 0. -1.
      99926    2    1    2    0    0 -0.14210854715E-13  0.00000000000E+00 -0.44182919386E+02  0.46255202207E+03  0.46043701280E+03 0.  0.
      99925    2    3    3    0    0  0.87498576590E+02 -0.44861712713E+02  0.38243388983E+02  0.28335888999E+03  0.26298503677E+03 0.  0.
         25    1    3    3    0    0 -0.87498576590E+02  0.44861712713E+02 -0.82426308369E+02  0.17919313208E+03  0.12509000000E+03 0.  0.
         25    1    4    4    0    0  0.83633018163E+02 -0.21591979753E+02  0.35159381263E+02  0.15602687431E+03  0.12509000000E+03 0.  0.
         25    1    4    4    0    0  0.38655584269E+01 -0.23269732960E+02  0.30840077193E+01  0.12733201568E+03  0.12509000000E+03 0.  0.
<mgrwt>
<rscale>  2 0.46043701E+03</rscale>
<asrwt>0</asrwt>
<pdfrwt beam="1">  1       21 0.30762434E-01 0.46043701E+03</pdfrwt>
<pdfrwt beam="2">  1       21 0.37259922E-01 0.46043701E+03</pdfrwt>
<totfact> 0.65124765E+04</totfact>
</mgrwt>
</event>
<event>
 7    0  0.4707675E-002  0.4562245E+03  0.7546771E-02  0.1025882E+00
         21   -1    0    0  502  501  0.00000000000E+00  0.00000000000E+00  0.58484765540E+03  0.58484765540E+03  0.00000000000E+00 0. -1.
         21   -1    0    0  501  502 -0.00000000000E+00 -0.00000000000E+00 -0.88972234977E+02  0.88972234977E+02  0.00000000000E+00 0. -1.
      99926    2    1    2    0    0  0.14210854715E-13  0.00000000000E+00  0.49587542042E+03  0.67381989038E+03  0.45622451939E+03 0.  0.
      99925    2    3    3    0    0 -0.11297614653E+03 -0.14984348655E+02  0.32074334785E+03  0.43028982789E+03  0.26322025076E+03 0.  0.
         25    1    4    4    0    0 -0.94631428939E+02 -0.15180675878E+02  0.14770686136E+03  0.21598700251E+03  0.12509000000E+03 0.  0.
         25    1    3    3    0    0  0.11297614653E+03  0.14984348655E+02  0.17513207258E+03  0.24353006249E+03  0.12509000000E+03 0.  0.
         25    1    4    4    0    0 -0.18344717593E+02  0.19632722246E+00  0.17303648649E+03  0.21430282538E+03  0.12509000000E+03 0.  0.
<mgrwt>
<rscale>  2 0.45622452E+03</rscale>
<asrwt>0</asrwt>
<pdfrwt beam="1">  1       21 0.86007006E-01 0.45622452E+03</pdfrwt>
<pdfrwt beam="2">  1       21 0.13084152E-01 0.45622452E+03</pdfrwt>
<totfact> 0.53826461E+04</totfact>
</mgrwt>
</event>
<event>
 7    0  0.4707675E-002  0.4562964E+03  0.7546771E-02  0.1025861E+00
         21   -1    0    0  502  501  0.00000000000E+00  0.00000000000E+00  0.24702745558E+03  0.24702745558E+03  0.00000000000E+00 0.  1.
         21   -1    0    0  501  502 -0.00000000000E+00 -0.00000000000E+00 -0.21071180239E+03  0.21071180239E+03  0.00000000000E+00 0.  1.
      99926    2    1    2    0    0  0.14210854715E-13  0.00000000000E+00  0.36315653189E+02  0.45773925797E+03  0.45629639667E+03 0.  0.
      99925    2    3    3    0    0 -0.10569579616E+03 -0.26665400571E+02  0.57420082465E+02  0.29048032712E+03  0.26305723647E+03 0.  0.
         25    1    4    4    0    0 -0.96217531707E+02 -0.18236166202E+02  0.27323942486E+02  0.16119701331E+03  0.12509000000E+03 0.  0.
         25    1    3    3    0    0  0.10569579616E+03  0.26665400571E+02 -0.21104429275E+02  0.16725893085E+03  0.12509000000E+03 0.  0.
         25    1    4    4    0    0 -0.94782644526E+01 -0.84292343686E+01  0.30096139978E+02  0.12928331381E+03  0.12509000000E+03 0.  0.
<mgrwt>
<rscale>  2 0.45629640E+03</rscale>
<asrwt>0</asrwt>
<pdfrwt beam="1">  1       21 0.36327567E-01 0.45629640E+03</pdfrwt>
<pdfrwt beam="2">  1       21 0.30987030E-01 0.45629640E+03</pdfrwt>
<totfact> 0.67643229E+04</totfact>
</mgrwt>
</event>
<event>
 7    0  0.4707675E-002  0.4545017E+03  0.7546771E-02  0.1026388E+00
         21   -1    0    0  502  501  0.00000000000E+00  0.00000000000E+00  0.11616718453E+03  0.11616718453E+03  0.00000000000E+00 0.  1.
         21   -1    0    0  501  502 -0.00000000000E+00 -0.00000000000E+00 -0.44455719686E+03  0.44455719686E+03  0.00000000000E+00 0.  1.
      99926    2    1    2    0    0  0.71054273576E-14 -0.14210854715E-13 -0.32839001233E+03  0.56072438139E+03  0.45450174002E+03 0.  0.
      99925    2    3    3    0    0  0.48785432594E+02 -0.76557017605E+02 -0.28916732025E+03  0.40126616412E+03  0.26297490373E+03 0.  0.
         25    1    3    3    0    0 -0.48785432594E+02  0.76557017605E+02 -0.39222692086E+02  0.15945821726E+03  0.12509000000E+03 0.  0.
         25    1    4    4    0    0  0.11491472553E+02 -0.73771628114E+02 -0.17615286141E+03  0.22858618886E+03  0.12509000000E+03 0.  0.
         25    1    4    4    0    0  0.37293960041E+02 -0.27853894906E+01 -0.11301445884E+03  0.17267997526E+03  0.12509000000E+03 0.  0.
<mgrwt>
<rscale>  2 0.45450174E+03</rscale>
<asrwt>0</asrwt>
<pdfrwt beam="1">  1       21 0.17083410E-01 0.45450174E+03</pdfrwt>
<pdfrwt beam="2">  1       21 0.65376057E-01 0.45450174E+03</pdfrwt>
<totfact> 0.61404996E+04</totfact>
</mgrwt>
</event>
<event>
 7    0  0.4707675E-002  0.4400693E+03  0.7546771E-02  0.1030726E+00
         21   -1    0    0  502  501  0.00000000000E+00  0.00000000000E+00  0.11264476312E+04  0.11264476312E+04  0.00000000000E+00 0. -1.
         21   -1    0    0  501  502 -0.00000000000E+00 -0.00000000000E+00 -0.42980462410E+02  0.42980462410E+02  0.00000000000E+00 0. -1.
      99926    2    1    2    0    0  0.00000000000E+00  0.00000000000E+00  0.10834671688E+04  0.11694280936E+04  0.44006926759E+03 0.  0.
      99925    2    3    3    0    0 -0.39908237129E+02  0.85683514973E+02  0.61754390194E+03  0.67783239507E+03  0.26298660205E+03 0.  0.
         25    1    4    4    0    0 -0.19048553470E+02  0.60836859795E+01  0.23381600534E+03  0.26592722891E+03  0.12509000000E+03 0.  0.
         25    1    4    4    0    0 -0.20859683659E+02  0.79599828993E+02  0.38372789660E+03  0.41190516616E+03  0.12509000000E+03 0.  0.
         25    1    3    3    0    0  0.39908237129E+02 -0.85683514973E+02  0.46592326681E+03  0.49159569850E+03  0.12509000000E+03 0.  0.
<mgrwt>
<rscale>  2 0.44006927E+03</rscale>
<asrwt>0</asrwt>
<pdfrwt beam="1">  1       21 0.16565404E+00 0.44006927E+03</pdfrwt>
<pdfrwt beam="2">  1       21 0.63206570E-02 0.44006927E+03</pdfrwt>
<totfact> 0.37293886E+04</totfact>
</mgrwt>
</event>
<event>
 7    0  0.4707675E-002  0.4533877E+03  0.7546771E-02  0.1026717E+00
         21   -1    0    0  502  501  0.00000000000E+00  0.00000000000E+00  0.28155692594E+02  0.28155692594E+02  0.00000000000E+00 0. -1.
         21   -1    0    0  501  502 -0.00000000000E+00 -0.00000000000E+00 -0.18252114952E+04  0.18252114952E+04  0.00000000000E+00 0. -1.
      99926    2    1    2    0    0  0.00000000000E+00  0.00000000000E+00 -0.17970558026E+04  0.18533671878E+04  0.45338766538E+03 0.  0.
      99925    2    3    3    0    0 -0.11239686748E+02  0.10956676352E+03 -0.10585874923E+04  0.10963241510E+04  0.26303604097E+03 0.  0.
         25    1    3    3    0    0  0.11239686748E+02 -0.10956676352E+03 -0.73846831030E+03  0.75704303685E+03  0.12509000000E+03 0.  0.
         25    1    4    4    0    0 -0.22197951278E+01  0.46846257208E+02 -0.36441426382E+03  0.38812982761E+03  0.12509000000E+03 0.  0.
         25    1    4    4    0    0 -0.90198916200E+01  0.62720506311E+02 -0.69417322852E+03  0.70819432336E+03  0.12509000000E+03 0.  0.
<mgrwt>
<rscale>  2 0.45338767E+03</rscale>
<asrwt>0</asrwt>
<pdfrwt beam="1">  1       21 0.41405437E-02 0.45338767E+03</pdfrwt>
<pdfrwt beam="2">  1       21 0.26841341E+00 0.45338767E+03</pdfrwt>
<totfact> 0.16460209E+04</totfact>
</mgrwt>
</event>
<event>
 7    0  0.4707675E-002  0.4570751E+03  0.7546771E-02  0.1025633E+00
         21   -1    0    0  502  501  0.00000000000E+00  0.00000000000E+00  0.15296170965E+03  0.15296170965E+03  0.00000000000E+00 0. -1.
         21   -1    0    0  501  502 -0.00000000000E+00 -0.00000000000E+00 -0.34145416205E+03  0.34145416205E+03  0.00000000000E+00 0. -1.
      99926    2    1    2    0    0  0.00000000000E+00  0.44408920985E-15 -0.18849245240E+03  0.49441587171E+03  0.45707510278E+03 0.  0.
      99925    2    3    3    0    0  0.10616935517E+03  0.39384140686E+01 -0.70293406573E+02  0.29216363904E+03  0.26292771989E+03 0.  0.
         25    1    4    4    0    0  0.64350644807E+02  0.17632305593E+02  0.65192694965E+00  0.14177389321E+03  0.12509000000E+03 0.  0.
         25    1    4    4    0    0  0.41818710367E+02 -0.13693891525E+02 -0.70945333522E+02  0.15038974583E+03  0.12509000000E+03 0.  0.
         25    1    3    3    0    0 -0.10616935517E+03 -0.39384140686E+01 -0.11819904583E+03  0.20225223267E+03  0.12509000000E+03 0.  0.
<mgrwt>
<rscale>  2 0.45707510E+03</rscale>
<asrwt>0</asrwt>
<pdfrwt beam="1">  1       21 0.22494370E-01 0.45707510E+03</pdfrwt>
<pdfrwt beam="2">  1       21 0.50213846E-01 0.45707510E+03</pdfrwt>
<totfact> 0.64594101E+04</totfact>
</mgrwt>
</event>
<event>
 7    0  0.4707675E-002  0.4425127E+03  0.7546771E-02  0.1029979E+00
         21   -1    0    0  502  501  0.00000000000E+00  0.00000000000E+00  0.83015638380E+03  0.83015638380E+03  0.00000000000E+00 0. -1.
         21   -1    0    0  501  502 -0.00000000000E+00 -0.00000000000E+00 -0.58970064091E+02  0.58970064091E+02  0.00000000000E+00 0. -1.
      99926    2    1    2    0    0  0.00000000000E+00 -0.88817841970E-15  0.77118631971E+03  0.88912644789E+03  0.44251271240E+03 0.  0.
      99925    2    3    3    0    0  0.60385467265E+02 -0.69515170074E+01  0.65327969943E+03  0.70679650671E+03  0.26285396699E+03 0.  0.
         25    1    3    3    0    0 -0.60385467265E+02  0.69515170074E+01  0.11790662027E+03  0.18232994118E+03  0.12509000000E+03 0.  0.
         25    1    4    4    0    0  0.51401854456E+02  0.47091634646E+00  0.24782981610E+03  0.28232870604E+03  0.12509000000E+03 0.  0.
         25    1    4    4    0    0  0.89836128086E+01 -0.74224333539E+01  0.40544988333E+03  0.42446780067E+03  0.12509000000E+03 0.  0.
<mgrwt>
<rscale>  2 0.44251271E+03</rscale>
<asrwt>0</asrwt>
<pdfrwt beam="1">  1       21 0.12208181E+00 0.44251271E+03</pdfrwt>
<pdfrwt beam="2">  1       21 0.86720687E-02 0.44251271E+03</pdfrwt>
<totfact> 0.48254246E+04</totfact>
</mgrwt>
</event>
<event>
 7    0  0.4707675E-002  0.4399014E+03  0.7546771E-02  0.1030777E+00
         21   -1    0    0  502  501  0.00000000000E+00  0.00000000000E+00  0.16807273547E+03  0.16807273547E+03  0.00000000000E+00 0. -1.
         21   -1    0    0  501  502 -0.00000000000E+00 -0.00000000000E+00 -0.28784154622E+03  0.28784154622E+03  0.00000000000E+00 0. -1.
      99926    2    1    2    0    0  0.00000000000E+00  0.00000000000E+00 -0.11976881076E+03  0.45591428169E+03  0.43990142557E+03 0.  0.
      99925    2    3    3    0    0  0.38860063738E+02  0.89581576773E+02 -0.88036581684E+02  0.29408286968E+03  0.26305765732E+03 0.  0.
         25    1    4    4    0    0  0.30005815661E+02  0.36411068440E+02 -0.34315402688E+01  0.13373630190E+03  0.12509000000E+03 0.  0.
         25    1    4    4    0    0  0.88542480769E+01  0.53170508332E+02 -0.84605041415E+02  0.16034656778E+03  0.12509000000E+03 0.  0.
         25    1    3    3    0    0 -0.38860063738E+02 -0.89581576773E+02 -0.31732229075E+02  0.16183141201E+03  0.12509000000E+03 0.  0.
<mgrwt>
<rscale>  2 0.43990143E+03</rscale>
<asrwt>0</asrwt>
<pdfrwt beam="1">  1       21 0.24716579E-01 0.43990143E+03</pdfrwt>
<pdfrwt beam="2">  1       21 0.42329638E-01 0.43990143E+03</pdfrwt>
<totfact> 0.77355735E+04</totfact>
</mgrwt>
</event>
<event>
 7    0  0.4707675E-002  0.4595651E+03  0.7546771E-02  0.1024907E+00
         21   -1    0    0  502  501  0.00000000000E+00  0.00000000000E+00  0.52412078951E+02  0.52412078951E+02  0.00000000000E+00 0.  1.
         21   -1    0    0  501  502 -0.00000000000E+00 -0.00000000000E+00 -0.10074019146E+04  0.10074019146E+04  0.00000000000E+00 0.  1.
      99926    2    1    2    0    0  0.00000000000E+00 -0.71054273576E-14 -0.95498983567E+03  0.10598139936E+04  0.45956513656E+03 0.  0.
      99925    2    3    3    0    0  0.76181192571E+02 -0.52910027785E+02 -0.43220618841E+03  0.51432953450E+03  0.26292515213E+03 0.  0.
         25    1    4    4    0    0  0.36959082617E+02 -0.64888448577E+02 -0.25336108431E+03  0.29225987013E+03  0.12509000000E+03 0.  0.
         25    1    3    3    0    0 -0.76181192571E+02  0.52910027785E+02 -0.52278364726E+03  0.54548445907E+03  0.12509000000E+03 0.  0.
         25    1    4    4    0    0  0.39222109954E+02  0.11978420792E+02 -0.17884510410E+03  0.22206966437E+03  0.12509000000E+03 0.  0.
<mgrwt>
<rscale>  2 0.45956514E+03</rscale>
<asrwt>0</asrwt>
<pdfrwt beam="1">  1       21 0.77076586E-02 0.45956514E+03</pdfrwt>
<pdfrwt beam="2">  1       21 0.14814734E+00 0.45956514E+03</pdfrwt>
<totfact> 0.35632759E+04</totfact>
</mgrwt>
</event>
<event>
 7    0  0.4707675E-002  0.4476138E+03  0.7546771E-02  0.1028436E+00
         21   -1    0    0  502  501  0.00000000000E+00  0.00000000000E+00  0.82338344073E+02  0.82338344073E+02  0.00000000000E+00 0. -1.
         21   -1    0    0  501  502 -0.00000000000E+00 -0.00000000000E+00 -0.60833793213E+03  0.60833793213E+03  0.00000000000E+00 0. -1.
      99926    2    1    2    0    0  0.00000000000E+00 -0.17763568394E-14 -0.52599958805E+03  0.69067627620E+03  0.44761384236E+03 0.  0.
      99925    2    3    3    0    0 -0.87069531756E+02  0.14363872215E+02 -0.42415629032E+03  0.50680950493E+03  0.26298268285E+03 0.  0.
         25    1    4    4    0    0 -0.70554663772E+02 -0.21007019444E+02 -0.19919873130E+03  0.24646885827E+03  0.12509000000E+03 0.  0.
         25    1    3    3    0    0  0.87069531756E+02 -0.14363872215E+02 -0.10184329774E+03  0.18386677127E+03  0.12509000000E+03 0.  0.
         25    1    4    4    0    0 -0.16514867984E+02  0.35370891659E+02 -0.22495755902E+03  0.26034064665E+03  0.12509000000E+03 0.  0.
<mgrwt>
<rscale>  2 0.44761384E+03</rscale>
<asrwt>0</asrwt>
<pdfrwt beam="1">  1       21 0.12108580E-01 0.44761384E+03</pdfrwt>
<pdfrwt beam="2">  1       21 0.89461461E-01 0.44761384E+03</pdfrwt>
<totfact> 0.56633828E+04</totfact>
</mgrwt>
</event>
<event>
 7    0  0.4707675E-002  0.4385849E+03  0.7546771E-02  0.1031182E+00
         21   -1    0    0  502  501  0.00000000000E+00  0.00000000000E+00  0.17405694340E+03  0.17405694340E+03  0.00000000000E+00 0. -1.
         21   -1    0    0  501  502 -0.00000000000E+00 -0.00000000000E+00 -0.27628420178E+03  0.27628420178E+03  0.00000000000E+00 0. -1.
      99926    2    1    2    0    0  0.00000000000E+00 -0.17763568394E-14 -0.10222725838E+03  0.45034114518E+03  0.43858492301E+03 0.  0.
      99925    2    3    3    0    0  0.75914259088E+02  0.10413952402E+02 -0.12650116913E+03  0.30165302871E+03  0.26290792837E+03 0.  0.
         25    1    4    4    0    0  0.54494653968E+02  0.39768470860E+02 -0.50418957535E+02  0.15080045744E+03  0.12509000000E+03 0.  0.
         25    1    4    4    0    0  0.21419605121E+02 -0.29354518458E+02 -0.76082211592E+02  0.15085257127E+03  0.12509000000E+03 0.  0.
         25    1    3    3    0    0 -0.75914259088E+02 -0.10413952402E+02  0.24273910746E+02  0.14868811647E+03  0.12509000000E+03 0.  0.
<mgrwt>
<rscale>  2 0.43858492E+03</rscale>
<asrwt>0</asrwt>
<pdfrwt beam="1">  1       21 0.25596610E-01 0.43858492E+03</pdfrwt>
<pdfrwt beam="2">  1       21 0.40630029E-01 0.43858492E+03</pdfrwt>
<totfact> 0.78682481E+04</totfact>
</mgrwt>
</event>
<event>
 7    0  0.4707675E-002  0.4638814E+03  0.7546771E-02  0.1023661E+00
         21   -1    0    0  502  501  0.00000000000E+00  0.00000000000E+00  0.42156319312E+03  0.42156319312E+03  0.00000000000E+00 0.  1.
         21   -1    0    0  501  502 -0.00000000000E+00 -0.00000000000E+00 -0.12761192186E+03  0.12761192186E+03  0.00000000000E+00 0.  1.
      99926    2    1    2    0    0  0.17763568394E-14  0.88817841970E-15  0.29395127126E+03  0.54917511498E+03  0.46388140407E+03 0.  0.
      99925    2    3    3    0    0  0.14383205161E+02  0.50272734824E+00  0.32611972255E+03  0.41921571100E+03  0.26302207053E+03 0.  0.
         25    1    4    4    0    0  0.17722907822E+02  0.16192232484E+02  0.10680509513E+03  0.16622613002E+03  0.12509000000E+03 0.  0.
         25    1    4    4    0    0 -0.33397026611E+01 -0.15689505136E+02  0.21931462742E+03  0.25298958098E+03  0.12509000000E+03 0.  0.
         25    1    3    3    0    0 -0.14383205161E+02 -0.50272734824E+00 -0.32168451293E+02  0.12995940398E+03  0.12509000000E+03 0.  0.
<mgrwt>
<rscale>  2 0.46388140E+03</rscale>
<asrwt>0</asrwt>
<pdfrwt beam="1">  1       21 0.61994587E-01 0.46388140E+03</pdfrwt>
<pdfrwt beam="2">  1       21 0.18766459E-01 0.46388140E+03</pdfrwt>
<totfact> 0.57754138E+04</totfact>
</mgrwt>
</event>
<event>
 7    0  0.4707675E-002  0.4589097E+03  0.7546771E-02  0.1025098E+00
         21   -1    0    0  502  501  0.00000000000E+00  0.00000000000E+00  0.78677736799E+03  0.78677736799E+03  0.00000000000E+00 0. -1.
         21   -1    0    0  501  502 -0.00000000000E+00 -0.00000000000E+00 -0.66917937046E+02  0.66917937046E+02  0.00000000000E+00 0. -1.
      99926    2    1    2    0    0  0.00000000000E+00  0.14210854715E-13  0.71985943095E+03  0.85369530504E+03  0.45890965725E+03 0.  0.
      99925    2    3    3    0    0 -0.23758978578E+01 -0.11605368997E+03  0.42470483509E+03  0.51275858452E+03  0.26281755116E+03 0.  0.
         25    1    3    3    0    0  0.23758978578E+01  0.11605368997E+03  0.29515459586E+03  0.34093672052E+03  0.12509000000E+03 0.  0.
         25    1    4    4    0    0 -0.20976377022E+01 -0.89190077201E+02  0.18025867697E+03  0.23685431953E+03  0.12509000000E+03 0.  0.
         25    1    4    4    0    0 -0.27826015561E+00 -0.26863612768E+02  0.24444615812E+03  0.27590426499E+03  0.12509000000E+03 0.  0.
<mgrwt>
<rscale>  2 0.45890966E+03</rscale>
<asrwt>0</asrwt>
<pdfrwt beam="1">  1       21 0.11570255E+00 0.45890966E+03</pdfrwt>
<pdfrwt beam="2">  1       21 0.98408735E-02 0.45890966E+03</pdfrwt>
<totfact> 0.43912229E+04</totfact>
</mgrwt>
</event>
<event>
 7    0  0.4707675E-002  0.4597515E+03  0.7546771E-02  0.1024853E+00
         21   -1    0    0  502  501  0.00000000000E+00  0.00000000000E+00  0.18271862772E+03  0.18271862772E+03  0.00000000000E+00 0.  1.
         21   -1    0    0  501  502 -0.00000000000E+00 -0.00000000000E+00 -0.28920352678E+03  0.28920352678E+03  0.00000000000E+00 0.  1.
      99926    2    1    2    0    0  0.00000000000E+00 -0.35527136788E-14 -0.10648489906E+03  0.47192215450E+03  0.45975154832E+03 0.  0.
      99925    2    3    3    0    0 -0.85530892881E+02  0.30870541623E+02 -0.14284065175E+03  0.31305814715E+03  0.26331241469E+03 0.  0.
         25    1    4    4    0    0 -0.33379008431E+02  0.52515062507E+02 -0.55217361343E+02  0.15022801033E+03  0.12509000000E+03 0.  0.
         25    1    4    4    0    0 -0.52151884450E+02 -0.21644520884E+02 -0.87623290409E+02  0.16283013682E+03  0.12509000000E+03 0.  0.
         25    1    3    3    0    0  0.85530892881E+02 -0.30870541623E+02  0.36355752693E+02  0.15886400735E+03  0.12509000000E+03 0.  0.
<mgrwt>
<rscale>  2 0.45975155E+03</rscale>
<asrwt>0</asrwt>
<pdfrwt beam="1">  1       21 0.26870387E-01 0.45975155E+03</pdfrwt>
<pdfrwt beam="2">  1       21 0.42529930E-01 0.45975155E+03</pdfrwt>
<totfact> 0.64815480E+04</totfact>
</mgrwt>
</event>
<event>
 7    0  0.4707675E-002  0.4572842E+03  0.7546771E-02  0.1025572E+00
         21   -1    0    0  502  501  0.00000000000E+00  0.00000000000E+00  0.29895843876E+04  0.29895843876E+04  0.00000000000E+00 0. -1.
         21   -1    0    0  501  502 -0.00000000000E+00 -0.00000000000E+00 -0.17486450877E+02  0.17486450877E+02  0.00000000000E+00 0. -1.
      99926    2    1    2    0    0 -0.14210854715E-13  0.44408920985E-15  0.29720979367E+04  0.30070708385E+04  0.45728424656E+03 0.  0.
      99925    2    3    3    0    0  0.11280043164E+03  0.23818905243E+01  0.20183324796E+04  0.20385432621E+04  0.26317868972E+03 0.  0.
         25    1    3    3    0    0 -0.11280043164E+03 -0.23818905243E+01  0.95376545714E+03  0.96852757633E+03  0.12509000000E+03 0.  0.
         25    1    4    4    0    0  0.29426880382E+02  0.14851175499E+02  0.72573756468E+03  0.73717638296E+03  0.12509000000E+03 0.  0.
         25    1    4    4    0    0  0.83373551256E+02 -0.12469284974E+02  0.12925949149E+04  0.13013668792E+04  0.12509000000E+03 0.  0.
<mgrwt>
<rscale>  2 0.45728425E+03</rscale>
<asrwt>0</asrwt>
<pdfrwt beam="1">  1       21 0.43964441E+00 0.45728425E+03</pdfrwt>
<pdfrwt beam="2">  1       21 0.25715390E-02 0.45728425E+03</pdfrwt>
<totfact> 0.31518166E+03</totfact>
</mgrwt>
</event>
<event>
 7    0  0.4707675E-002  0.4500426E+03  0.7546771E-02  0.1027709E+00
         21   -1    0    0  502  501  0.00000000000E+00  0.00000000000E+00  0.19600233201E+03  0.19600233201E+03  0.00000000000E+00 0. -1.
         21   -1    0    0  501  502 -0.00000000000E+00 -0.00000000000E+00 -0.25833665568E+03  0.25833665568E+03  0.00000000000E+00 0. -1.
      99926    2    1    2    0    0  0.00000000000E+00  0.71054273576E-14 -0.62334323670E+02  0.45433898769E+03  0.45004260668E+03 0.  0.
      99925    2    3    3    0    0 -0.59618369927E+02  0.57809943786E+02  0.30921556414E+02  0.27758914497E+03  0.26306510814E+03 0.  0.
         25    1    4    4    0    0  0.56568527118E+01  0.48964538502E+02  0.17335874619E+02  0.13556388406E+03  0.12509000000E+03 0.  0.
         25    1    4    4    0    0 -0.65275222638E+02  0.88454052838E+01  0.13585681795E+02  0.14202526090E+03  0.12509000000E+03 0.  0.
         25    1    3    3    0    0  0.59618369927E+02 -0.57809943786E+02 -0.93255880084E+02  0.17674984273E+03  0.12509000000E+03 0.  0.
<mgrwt>
<rscale>  2 0.45004261E+03</rscale>
<asrwt>0</asrwt>
<pdfrwt beam="1">  1       21 0.28823873E-01 0.45004261E+03</pdfrwt>
<pdfrwt beam="2">  1       21 0.37990684E-01 0.45004261E+03</pdfrwt>
<totfact> 0.71375408E+04</totfact>
</mgrwt>
</event>
<event>
 7    0  0.4707675E-002  0.4542310E+03  0.7546771E-02  0.1026468E+00
         21   -1    0    0  502  501  0.00000000000E+00  0.00000000000E+00  0.36443138768E+03  0.36443138768E+03  0.00000000000E+00 0.  1.
         21   -1    0    0  501  502 -0.00000000000E+00 -0.00000000000E+00 -0.14153953977E+03  0.14153953977E+03  0.00000000000E+00 0.  1.
      99926    2    1    2    0    0  0.00000000000E+00  0.00000000000E+00  0.22289184791E+03  0.50597092745E+03  0.45423100242E+03 0.  0.
      99925    2    3    3    0    0 -0.88658689731E+02  0.11554250804E+02  0.64538766312E+02  0.28525148896E+03  0.26307659649E+03 0.  0.
         25    1    3    3    0    0  0.88658689731E+02 -0.11554250804E+02  0.15835308159E+03  0.22071943849E+03  0.12509000000E+03 0.  0.
         25    1    4    4    0    0 -0.54865840890E+02  0.44836554929E+02  0.40161280694E+02  0.14926826093E+03  0.12509000000E+03 0.  0.
         25    1    4    4    0    0 -0.33792848841E+02 -0.33282304125E+02  0.24377485618E+02  0.13598322803E+03  0.12509000000E+03 0.  0.
<mgrwt>
<rscale>  2 0.45423100E+03</rscale>
<asrwt>0</asrwt>
<pdfrwt beam="1">  1       21 0.53592851E-01 0.45423100E+03</pdfrwt>
<pdfrwt beam="2">  1       21 0.20814638E-01 0.45423100E+03</pdfrwt>
<totfact> 0.65250541E+04</totfact>
</mgrwt>
</event>
<event>
 7    0  0.4707675E-002  0.4555023E+03  0.7546771E-02  0.1026094E+00
         21   -1    0    0  502  501  0.00000000000E+00  0.00000000000E+00  0.66097492847E+03  0.66097492847E+03  0.00000000000E+00 0.  1.
         21   -1    0    0  501  502 -0.00000000000E+00 -0.00000000000E+00 -0.78475868579E+02  0.78475868579E+02  0.00000000000E+00 0.  1.
      99926    2    1    2    0    0 -0.35527136788E-14  0.00000000000E+00  0.58249905989E+03  0.73945079705E+03  0.45550227934E+03 0.  0.
      99925    2    3    3    0    0 -0.28175306195E+02  0.10772945469E+03  0.32978460383E+03  0.43628155769E+03  0.26302895159E+03 0.  0.
         25    1    4    4    0    0  0.24406278214E+02  0.45946503034E+02  0.13834730007E+03  0.19363427149E+03  0.12509000000E+03 0.  0.
         25    1    3    3    0    0  0.28175306195E+02 -0.10772945469E+03  0.25271445606E+03  0.30316923935E+03  0.12509000000E+03 0.  0.
         25    1    4    4    0    0 -0.52581584409E+02  0.61782951656E+02  0.19143730376E+03  0.24264728621E+03  0.12509000000E+03 0.  0.
<mgrwt>
<rscale>  2 0.45550228E+03</rscale>
<asrwt>0</asrwt>
<pdfrwt beam="1">  1       21 0.97202192E-01 0.45550228E+03</pdfrwt>
<pdfrwt beam="2">  1       21 0.11540569E-01 0.45550228E+03</pdfrwt>
<totfact> 0.50612676E+04</totfact>
</mgrwt>
</event>
<event>
 7    0  0.4707675E-002  0.4530370E+03  0.7546771E-02  0.1026820E+00
         21   -1    0    0  502  501  0.00000000000E+00  0.00000000000E+00  0.65448512967E+02  0.65448512967E+02  0.00000000000E+00 0. -1.
         21   -1    0    0  501  502 -0.00000000000E+00 -0.00000000000E+00 -0.78398457366E+03  0.78398457366E+03  0.00000000000E+00 0. -1.
      99926    2    1    2    0    0  0.00000000000E+00  0.00000000000E+00 -0.71853606069E+03  0.84943308663E+03  0.45303697216E+03 0.  0.
      99925    2    3    3    0    0  0.98954768575E+02 -0.50086665071E+02 -0.47122189942E+03  0.55091587991E+03  0.26297815118E+03 0.  0.
         25    1    4    4    0    0  0.48663365947E+02 -0.18821131250E+01 -0.29313876762E+03  0.32241202012E+03  0.12509000000E+03 0.  0.
         25    1    4    4    0    0  0.50291402628E+02 -0.48204551946E+02 -0.17808313180E+03  0.22850385979E+03  0.12509000000E+03 0.  0.
         25    1    3    3    0    0 -0.98954768575E+02  0.50086665071E+02 -0.24731416127E+03  0.29851720672E+03  0.12509000000E+03 0.  0.
<mgrwt>
<rscale>  2 0.45303697E+03</rscale>
<asrwt>0</asrwt>
<pdfrwt beam="1">  1       21 0.96247819E-02 0.45303697E+03</pdfrwt>
<pdfrwt beam="2">  1       21 0.11529184E+00 0.45303697E+03</pdfrwt>
<totfact> 0.46171654E+04</totfact>
</mgrwt>
</event>
<event>
 7    0  0.4707675E-002  0.4548645E+03  0.7546771E-02  0.1026281E+00
         21   -1    0    0  502  501  0.00000000000E+00  0.00000000000E+00  0.80448274740E+03  0.80448274740E+03  0.00000000000E+00 0.  1.
         21   -1    0    0  501  502 -0.00000000000E+00 -0.00000000000E+00 -0.64296491873E+02  0.64296491873E+02  0.00000000000E+00 0.  1.
      99926    2    1    2    0    0  0.00000000000E+00  0.00000000000E+00  0.74018625553E+03  0.86877923928E+03  0.45486445643E+03 0.  0.
      99925    2    3    3    0    0  0.79591158318E+02 -0.41187728687E+02  0.59741616584E+03  0.65886976334E+03  0.26300590937E+03 0.  0.
         25    1    4    4    0    0  0.46116203014E+02 -0.52816299957E+02  0.25427244783E+03  0.29192165310E+03  0.12509000000E+03 0.  0.
         25    1    3    3    0    0 -0.79591158318E+02  0.41187728687E+02  0.14277008969E+03  0.20990947593E+03  0.12509000000E+03 0.  0.
         25    1    4    4    0    0  0.33474955304E+02  0.11628571270E+02  0.34314371801E+03  0.36694811025E+03  0.12509000000E+03 0.  0.
<mgrwt>
<rscale>  2 0.45486446E+03</rscale>
<asrwt>0</asrwt>
<pdfrwt beam="1">  1       21 0.11830628E+00 0.45486446E+03</pdfrwt>
<pdfrwt beam="2">  1       21 0.94553669E-02 0.45486446E+03</pdfrwt>
<totfact> 0.44657949E+04</totfact>
</mgrwt>
</event>
<event>
 7    0  0.4707675E-002  0.4475012E+03  0.7546771E-02  0.1028470E+00
         21   -1    0    0  502  501  0.00000000000E+00  0.00000000000E+00  0.88228540884E+03  0.88228540884E+03  0.00000000000E+00 0.  1.
         21   -1    0    0  501  502 -0.00000000000E+00 -0.00000000000E+00 -0.56743923007E+02  0.56743923007E+02  0.00000000000E+00 0.  1.
      99926    2    1    2    0    0  0.35527136788E-14  0.14210854715E-13  0.82554148583E+03  0.93902933184E+03  0.44750121926E+03 0.  0.
      99925    2    3    3    0    0  0.25682655592E+02  0.97792723857E+02  0.45725328908E+03  0.53715034558E+03  0.26311006773E+03 0.  0.
         25    1    4    4    0    0  0.13734626137E+02  0.54348258868E+02  0.30882658295E+03  0.33788125079E+03  0.12509000000E+03 0.  0.
         25    1    3    3    0    0 -0.25682655592E+02 -0.97792723857E+02  0.36828819675E+03  0.40187898627E+03  0.12509000000E+03 0.  0.
         25    1    4    4    0    0  0.11948029455E+02  0.43444464989E+02  0.14842670613E+03  0.19926909479E+03  0.12509000000E+03 0.  0.
<mgrwt>
<rscale>  2 0.44750122E+03</rscale>
<asrwt>0</asrwt>
<pdfrwt beam="1">  1       21 0.12974785E+00 0.44750122E+03</pdfrwt>
<pdfrwt beam="2">  1       21 0.83446951E-02 0.44750122E+03</pdfrwt>
<totfact> 0.44119377E+04</totfact>
</mgrwt>
</event>
<event>
 7    0  0.4707675E-002  0.4551959E+03  0.7546771E-02  0.1026184E+00
         21   -1    0    0  502  501  0.00000000000E+00  0.00000000000E+00  0.93406603458E+02  0.93406603458E+02  0.00000000000E+00 0.  1.
         21   -1    0    0  501  502 -0.00000000000E+00 -0.00000000000E+00 -0.55457352008E+03  0.55457352008E+03  0.00000000000E+00 0.  1.
      99926    2    1    2    0    0 -0.14210854715E-13 -0.71054273576E-14 -0.46116691662E+03  0.64798012354E+03  0.45519590894E+03 0.  0.
      99925    2    3    3    0    0  0.10710758449E+03  0.35679740779E+02 -0.30353719693E+03  0.41724279412E+03  0.26308105360E+03 0.  0.
         25    1    4    4    0    0  0.28797824275E+02 -0.16880244934E+02 -0.14415368585E+03  0.19375771107E+03  0.12509000000E+03 0.  0.
         25    1    3    3    0    0 -0.10710758449E+03 -0.35679740779E+02 -0.15762971969E+03  0.23073732942E+03  0.12509000000E+03 0.  0.
         25    1    4    4    0    0  0.78309760219E+02  0.52559985713E+02 -0.15938351108E+03  0.22348508305E+03  0.12509000000E+03 0.  0.
<mgrwt>
<rscale>  2 0.45519591E+03</rscale>
<asrwt>0</asrwt>
<pdfrwt beam="1">  1       21 0.13736266E-01 0.45519591E+03</pdfrwt>
<pdfrwt beam="2">  1       21 0.81554926E-01 0.45519591E+03</pdfrwt>
<totfact> 0.55731815E+04</totfact>
</mgrwt>
</event>
<event>
 7    0  0.4707675E-002  0.4382420E+03  0.7546771E-02  0.1031288E+00
         21   -1    0    0  502  501  0.00000000000E+00  0.00000000000E+00  0.99670529362E+02  0.99670529362E+02  0.00000000000E+00 0. -1.
         21   -1    0    0  501  502 -0.00000000000E+00 -0.00000000000E+00 -0.48172725933E+03  0.48172725933E+03  0.00000000000E+00 0. -1.
      99926    2    1    2    0    0  0.00000000000E+00  0.00000000000E+00 -0.38205672996E+03  0.58139778869E+03  0.43824199226E+03 0.  0.
      99925    2    3    3    0    0 -0.32600324425E+02  0.54913976344E+02 -0.34040072649E+03  0.43490186152E+03  0.26303735212E+03 0.  0.
         25    1    3    3    0    0  0.32600324425E+02 -0.54913976344E+02 -0.41656003475E+02  0.14649592717E+03  0.12509000000E+03 0.  0.
         25    1    4    4    0    0 -0.12988707204E+02  0.22907114288E+02 -0.10387451021E+03  0.16471449351E+03  0.12509000000E+03 0.  0.
         25    1    4    4    0    0 -0.19611617221E+02  0.32006862056E+02 -0.23652621628E+03  0.27018736801E+03  0.12509000000E+03 0.  0.
<mgrwt>
<rscale>  2 0.43824199E+03</rscale>
<asrwt>0</asrwt>
<pdfrwt beam="1">  1       21 0.14657431E-01 0.43824199E+03</pdfrwt>
<pdfrwt beam="2">  1       21 0.70842245E-01 0.43824199E+03</pdfrwt>
<totfact> 0.68467255E+04</totfact>
</mgrwt>
</event>
<event>
 7    0  0.4707675E-002  0.4608321E+03  0.7546771E-02  0.1024540E+00
         21   -1    0    0  502  501  0.00000000000E+00  0.00000000000E+00  0.19740344217E+03  0.19740344217E+03  0.00000000000E+00 0. -1.
         21   -1    0    0  501  502 -0.00000000000E+00 -0.00000000000E+00 -0.26894944344E+03  0.26894944344E+03  0.00000000000E+00 0. -1.
      99926    2    1    2    0    0  0.00000000000E+00  0.35527136788E-14 -0.71546001270E+02  0.46635288561E+03  0.46083205576E+03 0.  0.
      99925    2    3    3    0    0  0.81141155986E+02 -0.18929123408E+02 -0.13012819698E+03  0.30504082573E+03  0.26301018765E+03 0.  0.
         25    1    4    4    0    0  0.18458270597E+02  0.18581655620E+02 -0.37855647417E+02  0.13329119934E+03  0.12509000000E+03 0.  0.
         25    1    4    4    0    0  0.62682885388E+02 -0.37510779028E+02 -0.92272549562E+02  0.17174962639E+03  0.12509000000E+03 0.  0.
         25    1    3    3    0    0 -0.81141155986E+02  0.18929123408E+02  0.58582195709E+02  0.16131205988E+03  0.12509000000E+03 0.  0.
<mgrwt>
<rscale>  2 0.46083206E+03</rscale>
<asrwt>0</asrwt>
<pdfrwt beam="1">  1       21 0.29029918E-01 0.46083206E+03</pdfrwt>
<pdfrwt beam="2">  1       21 0.39551389E-01 0.46083206E+03</pdfrwt>
<totfact> 0.64659685E+04</totfact>
</mgrwt>
</event>
<event>
 7    0  0.4707675E-002  0.4537189E+03  0.7546771E-02  0.1026619E+00
         21   -1    0    0  502  501  0.00000000000E+00  0.00000000000E+00  0.17910492575E+02  0.17910492575E+02  0.00000000000E+00 0. -1.
         21   -1    0    0  501  502 -0.00000000000E+00 -0.00000000000E+00 -0.28734673137E+04  0.28734673137E+04  0.00000000000E+00 0. -1.
      99926    2    1    2    0    0  0.14210854715E-13  0.00000000000E+00 -0.28555568212E+04  0.28913778063E+04  0.45371892174E+03 0.  0.
      99925    2    3    3    0    0 -0.77437147772E+02  0.62269915327E+02 -0.14707368004E+04  0.14973734835E+04  0.26303337929E+03 0.  0.
         25    1    4    4    0    0 -0.74218036571E+02  0.17802294161E+02 -0.68556943955E+03  0.70105506430E+03  0.12509000000E+03 0.  0.
         25    1    4    4    0    0 -0.32191112010E+01  0.44467621166E+02 -0.78516736089E+03  0.79631841917E+03  0.12509000000E+03 0.  0.
         25    1    3    3    0    0  0.77437147772E+02 -0.62269915327E+02 -0.13848200207E+04  0.13940043228E+04  0.12509000000E+03 0.  0.
<mgrwt>
<rscale>  2 0.45371892E+03</rscale>
<asrwt>0</asrwt>
<pdfrwt beam="1">  1       21 0.26338942E-02 0.45371892E+03</pdfrwt>
<pdfrwt beam="2">  1       21 0.42256901E+00 0.45371892E+03</pdfrwt>
<totfact> 0.39378972E+03</totfact>
</mgrwt>
</event>
<event>
 7    0  0.4707675E-002  0.4558619E+03  0.7546771E-02  0.1025988E+00
         21   -1    0    0  502  501  0.00000000000E+00  0.00000000000E+00  0.64274112192E+02  0.64274112192E+02  0.00000000000E+00 0.  1.
         21   -1    0    0  501  502 -0.00000000000E+00 -0.00000000000E+00 -0.80829603701E+03  0.80829603701E+03  0.00000000000E+00 0.  1.
      99926    2    1    2    0    0  0.00000000000E+00  0.35527136788E-14 -0.74402192481E+03  0.87257014920E+03  0.45586186577E+03 0.  0.
      99925    2    3    3    0    0  0.42449495650E+02  0.30712076591E+02 -0.66163059521E+03  0.71388482970E+03  0.26292834429E+03 0.  0.
         25    1    4    4    0    0 -0.77792235009E+01  0.41246007746E+02 -0.35674358173E+03  0.38036198638E+03  0.12509000000E+03 0.  0.
         25    1    4    4    0    0  0.50228719151E+02 -0.10533931155E+02 -0.30488701347E+03  0.33352284332E+03  0.12509000000E+03 0.  0.
         25    1    3    3    0    0 -0.42449495650E+02 -0.30712076591E+02 -0.82391329608E+02  0.15868531950E+03  0.12509000000E+03 0.  0.
<mgrwt>
<rscale>  2 0.45586187E+03</rscale>
<asrwt>0</asrwt>
<pdfrwt beam="1">  1       21 0.94520760E-02 0.45586187E+03</pdfrwt>
<pdfrwt beam="2">  1       21 0.11886706E+00 0.45586187E+03</pdfrwt>
<totfact> 0.44142180E+04</totfact>
</mgrwt>
</event>
<event>
 7    0  0.4707675E-002  0.4537611E+03  0.7546771E-02  0.1026606E+00
         21   -1    0    0  502  501  0.00000000000E+00  0.00000000000E+00  0.16485118849E+03  0.16485118849E+03  0.00000000000E+00 0.  1.
         21   -1    0    0  501  502 -0.00000000000E+00 -0.00000000000E+00 -0.31224999852E+03  0.31224999852E+03  0.00000000000E+00 0.  1.
      99926    2    1    2    0    0  0.00000000000E+00  0.00000000000E+00 -0.14739881003E+03  0.47710118701E+03  0.45376109733E+03 0.  0.
      99925    2    3    3    0    0 -0.59469284855E+02  0.29458691821E+02 -0.18785502766E+03  0.32983060607E+03  0.26285795959E+03 0.  0.
         25    1    4    4    0    0 -0.53182145758E+02  0.34543205377E+02 -0.65956665792E+02  0.15498181676E+03  0.12509000000E+03 0.  0.
         25    1    4    4    0    0 -0.62871390962E+01 -0.50845135564E+01 -0.12189836187E+03  0.17484878931E+03  0.12509000000E+03 0.  0.
         25    1    3    3    0    0  0.59469284855E+02 -0.29458691821E+02  0.40456217628E+02  0.14727058094E+03  0.12509000000E+03 0.  0.
<mgrwt>
<rscale>  2 0.45376110E+03</rscale>
<asrwt>0</asrwt>
<pdfrwt beam="1">  1       21 0.24242822E-01 0.45376110E+03</pdfrwt>
<pdfrwt beam="2">  1       21 0.45919117E-01 0.45376110E+03</pdfrwt>
<totfact> 0.67573728E+04</totfact>
</mgrwt>
</event>
<event>
 7    0  0.4707675E-002  0.4851713E+03  0.7546771E-02  0.1017724E+00
         21   -1    0    0  502  501  0.00000000000E+00  0.00000000000E+00  0.23539623009E+04  0.23539623009E+04  0.00000000000E+00 0. -1.
         21   -1    0    0  501  502 -0.00000000000E+00 -0.00000000000E+00 -0.24999459737E+02  0.24999459737E+02  0.00000000000E+00 0. -1.
      99926    2    1    2    0    0 -0.14210854715E-13  0.88817841970E-15  0.23289628411E+04  0.23789617606E+04  0.48517125126E+03 0.  0.
      99925    2    3    3    0    0 -0.72416086354E+02  0.52026849283E+01  0.20138836125E+04  0.20322722945E+04  0.26293025082E+03 0.  0.
         25    1    3    3    0    0  0.72416086354E+02 -0.52026849283E+01  0.31507922860E+03  0.34668946608E+03  0.12509000000E+03 0.  0.
         25    1    4    4    0    0 -0.39686581556E+01  0.19986187793E+01  0.75091652509E+03  0.76127713776E+03  0.12509000000E+03 0.  0.
         25    1    4    4    0    0 -0.68447428199E+02  0.32040661490E+01  0.12629670874E+04  0.12709951568E+04  0.12509000000E+03 0.  0.
<mgrwt>
<rscale>  2 0.48517125E+03</rscale>
<asrwt>0</asrwt>
<pdfrwt beam="1">  1       21 0.34617077E+00 0.48517125E+03</pdfrwt>
<pdfrwt beam="2">  1       21 0.36763928E-02 0.48517125E+03</pdfrwt>
<totfact> 0.67293028E+03</totfact>
</mgrwt>
</event>
<event>
 7    0  0.4707675E-002  0.4421265E+03  0.7546771E-02  0.1030096E+00
         21   -1    0    0  502  501  0.00000000000E+00  0.00000000000E+00  0.99326643612E+02  0.99326643612E+02  0.00000000000E+00 0. -1.
         21   -1    0    0  501  502 -0.00000000000E+00 -0.00000000000E+00 -0.49200245139E+03  0.49200245139E+03  0.00000000000E+00 0. -1.
      99926    2    1    2    0    0 -0.14210854715E-13  0.00000000000E+00 -0.39267580778E+03  0.59132909500E+03  0.44212646221E+03 0.  0.
      99925    2    3    3    0    0 -0.77108706534E+02 -0.21004326692E+02 -0.16827609476E+03  0.32227580350E+03  0.26297892519E+03 0.  0.
         25    1    4    4    0    0 -0.78849617349E+02 -0.23046279666E+02 -0.95586518303E+02  0.17757444564E+03  0.12509000000E+03 0.  0.
         25    1    3    3    0    0  0.77108706534E+02  0.21004326692E+02 -0.22439971302E+03  0.26905329150E+03  0.12509000000E+03 0.  0.
         25    1    4    4    0    0  0.17409108154E+01  0.20419529738E+01 -0.72689576453E+02  0.14470135786E+03  0.12509000000E+03 0.  0.
<mgrwt>
<rscale>  2 0.44212646E+03</rscale>
<asrwt>0</asrwt>
<pdfrwt beam="1">  1       21 0.14606860E-01 0.44212646E+03</pdfrwt>
<pdfrwt beam="2">  1       21 0.72353301E-01 0.44212646E+03</pdfrwt>
<totfact> 0.65642909E+04</totfact>
</mgrwt>
</event>
<event>
 7    0  0.4707675E-002  0.4529316E+03  0.7546771E-02  0.1026851E+00
         21   -1    0    0  502  501  0.00000000000E+00  0.00000000000E+00  0.27051815187E+03  0.27051815187E+03  0.00000000000E+00 0.  1.
         21   -1    0    0  501  502 -0.00000000000E+00 -0.00000000000E+00 -0.18958710524E+03  0.18958710524E+03  0.00000000000E+00 0.  1.
      99926    2    1    2    0    0  0.14210854715E-13 -0.14210854715E-13  0.80931046629E+02  0.46010525711E+03  0.45293157685E+03 0.  0.
      99925    2    3    3    0    0 -0.72149697913E+02  0.84042419064E+02  0.56765674057E+02  0.29128529252E+03  0.26335541152E+03 0.  0.
         25    1    4    4    0    0 -0.27885819273E+02  0.34403690831E+01  0.75935223602E+01  0.12843140090E+03  0.12509000000E+03 0.  0.
         25    1    4    4    0    0 -0.44263878640E+02  0.80602049981E+02  0.49172151697E+02  0.16285389162E+03  0.12509000000E+03 0.  0.
         25    1    3    3    0    0  0.72149697913E+02 -0.84042419064E+02  0.24165372571E+02  0.16881996459E+03  0.12509000000E+03 0.  0.
<mgrwt>
<rscale>  2 0.45293158E+03</rscale>
<asrwt>0</asrwt>
<pdfrwt beam="1">  1       21 0.39782081E-01 0.45293158E+03</pdfrwt>
<pdfrwt beam="2">  1       21 0.27880457E-01 0.45293158E+03</pdfrwt>
<totfact> 0.69307616E+04</totfact>
</mgrwt>
</event>
<event>
 7    0  0.4707675E-002  0.4520955E+03  0.7546771E-02  0.1027099E+00
         21   -1    0    0  502  501  0.00000000000E+00  0.00000000000E+00  0.30952008244E+02  0.30952008244E+02  0.00000000000E+00 0.  1.
         21   -1    0    0  501  502 -0.00000000000E+00 -0.00000000000E+00 -0.16508647454E+04  0.16508647454E+04  0.00000000000E+00 0.  1.
      99926    2    1    2    0    0  0.00000000000E+00  0.00000000000E+00 -0.16199127371E+04  0.16818167536E+04  0.45209547314E+03 0.  0.
      99925    2    3    3    0    0 -0.52868609047E+02  0.65129567792E+02 -0.12888361560E+04  0.13180913612E+04  0.26311451690E+03 0.  0.
         25    1    3    3    0    0  0.52868609047E+02 -0.65129567792E+02 -0.33107658111E+03  0.36372539240E+03  0.12509000000E+03 0.  0.
         25    1    4    4    0    0  0.22392750699E+01  0.60908776287E+02 -0.62148810613E+03  0.63687508001E+03  0.12509000000E+03 0.  0.
         25    1    4    4    0    0 -0.55107884117E+02  0.42207915053E+01 -0.66734804991E+03  0.68121628121E+03  0.12509000000E+03 0.  0.
<mgrwt>
<rscale>  2 0.45209547E+03</rscale>
<asrwt>0</asrwt>
<pdfrwt beam="1">  1       21 0.45517639E-02 0.45209547E+03</pdfrwt>
<pdfrwt beam="2">  1       21 0.24277434E+00 0.45209547E+03</pdfrwt>
<totfact> 0.20091863E+04</totfact>
</mgrwt>
</event>
<event>
 7    0  0.4707675E-002  0.4588566E+03  0.7546771E-02  0.1025113E+00
         21   -1    0    0  502  501  0.00000000000E+00  0.00000000000E+00  0.11147357627E+03  0.11147357627E+03  0.00000000000E+00 0. -1.
         21   -1    0    0  501  502 -0.00000000000E+00 -0.00000000000E+00 -0.47219564519E+03  0.47219564519E+03  0.00000000000E+00 0. -1.
      99926    2    1    2    0    0  0.00000000000E+00  0.00000000000E+00 -0.36072206892E+03  0.58366922146E+03  0.45885656700E+03 0.  0.
      99925    2    3    3    0    0  0.35998841115E+02  0.94242372937E+02 -0.15152899428E+03  0.31987613589E+03  0.26302502692E+03 0.  0.
         25    1    3    3    0    0 -0.35998841115E+02 -0.94242372937E+02 -0.20919307464E+03  0.26379308557E+03  0.12509000000E+03 0.  0.
         25    1    4    4    0    0  0.57754768690E+02  0.41509435355E+02 -0.85214635934E+02  0.16723542928E+03  0.12509000000E+03 0.  0.
         25    1    4    4    0    0 -0.21755927575E+02  0.52732937582E+02 -0.66314358345E+02  0.15264070661E+03  0.12509000000E+03 0.  0.
<mgrwt>
<rscale>  2 0.45885657E+03</rscale>
<asrwt>0</asrwt>
<pdfrwt beam="1">  1       21 0.16393173E-01 0.45885657E+03</pdfrwt>
<pdfrwt beam="2">  1       21 0.69440537E-01 0.45885657E+03</pdfrwt>
<totfact> 0.57909169E+04</totfact>
</mgrwt>
</event>
<event>
 7    0  0.4707675E-002  0.4576086E+03  0.7546771E-02  0.1025477E+00
         21   -1    0    0  502  501  0.00000000000E+00  0.00000000000E+00  0.30196191222E+03  0.30196191222E+03  0.00000000000E+00 0.  1.
         21   -1    0    0  501  502 -0.00000000000E+00 -0.00000000000E+00 -0.17337091734E+03  0.17337091734E+03  0.00000000000E+00 0.  1.
      99926    2    1    2    0    0  0.00000000000E+00  0.00000000000E+00  0.12859099488E+03  0.47533282956E+03  0.45760862633E+03 0.  0.
      99925    2    3    3    0    0  0.57251765214E+02  0.33369224675E+02  0.17913503745E+03  0.32502155881E+03  0.26297981343E+03 0.  0.
         25    1    4    4    0    0  0.23907142945E+02 -0.98262322933E+00  0.43968937644E+02  0.13473415532E+03  0.12509000000E+03 0.  0.
         25    1    3    3    0    0 -0.57251765214E+02 -0.33369224675E+02 -0.50544042568E+02  0.15031127075E+03  0.12509000000E+03 0.  0.
         25    1    4    4    0    0  0.33344622268E+02  0.34351847905E+02  0.13516609981E+03  0.19028740349E+03  0.12509000000E+03 0.  0.
<mgrwt>
<rscale>  2 0.45760863E+03</rscale>
<asrwt>0</asrwt>
<pdfrwt beam="1">  1       21 0.44406164E-01 0.45760863E+03</pdfrwt>
<pdfrwt beam="2">  1       21 0.25495723E-01 0.45760863E+03</pdfrwt>
<totfact> 0.65671480E+04</totfact>
</mgrwt>
</event>
<event>
 7    0  0.4707675E-002  0.4529538E+03  0.7546771E-02  0.1026845E+00
         21   -1    0    0  502  501  0.00000000000E+00  0.00000000000E+00  0.10849253975E+03  0.10849253975E+03  0.00000000000E+00 0. -1.
         21   -1    0    0  501  502 -0.00000000000E+00 -0.00000000000E+00 -0.47276781553E+03  0.47276781553E+03  0.00000000000E+00 0. -1.
      99926    2    1    2    0    0  0.00000000000E+00  0.00000000000E+00 -0.36427527578E+03  0.58126035528E+03  0.45295377697E+03 0.  0.
      99925    2    3    3    0    0 -0.22956188121E+02 -0.80439499581E+02 -0.13547099925E+03  0.30740564064E+03  0.26296071303E+03 0.  0.
         25    1    3    3    0    0  0.22956188121E+02  0.80439499581E+02 -0.22880427653E+03  0.27385471463E+03  0.12509000000E+03 0.  0.
         25    1    4    4    0    0 -0.46088563493E+02 -0.62927108238E+02 -0.67902359809E+02  0.16230285026E+03  0.12509000000E+03 0.  0.
         25    1    4    4    0    0  0.23132375372E+02 -0.17512391343E+02 -0.67568639437E+02  0.14510279038E+03  0.12509000000E+03 0.  0.
<mgrwt>
<rscale>  2 0.45295378E+03</rscale>
<asrwt>0</asrwt>
<pdfrwt beam="1">  1       21 0.15954785E-01 0.45295378E+03</pdfrwt>
<pdfrwt beam="2">  1       21 0.69524679E-01 0.45295378E+03</pdfrwt>
<totfact> 0.60824782E+04</totfact>
</mgrwt>
</event>
<event>
 7    0  0.4707675E-002  0.4599521E+03  0.7546771E-02  0.1024795E+00
         21   -1    0    0  502  501  0.00000000000E+00  0.00000000000E+00  0.19227155876E+03  0.19227155876E+03  0.00000000000E+00 0. -1.
         21   -1    0    0  501  502 -0.00000000000E+00 -0.00000000000E+00 -0.27507437447E+03  0.27507437447E+03  0.00000000000E+00 0. -1.
      99926    2    1    2    0    0  0.00000000000E+00  0.00000000000E+00 -0.82802815710E+02  0.46734593324E+03  0.45995207905E+03 0.  0.
      99925    2    3    3    0    0  0.44729614087E+02  0.10374024115E+03 -0.85377240678E+02  0.29877276878E+03  0.26308386141E+03 0.  0.
         25    1    3    3    0    0 -0.44729614087E+02 -0.10374024115E+03  0.25744249679E+01  0.16857316445E+03  0.12509000000E+03 0.  0.
         25    1    4    4    0    0  0.18076016816E+02  0.12472220658E+02 -0.56561658887E+02  0.13902887480E+03  0.12509000000E+03 0.  0.
         25    1    4    4    0    0  0.26653597271E+02  0.91268020489E+02 -0.28815581790E+02  0.15974389398E+03  0.12509000000E+03 0.  0.
<mgrwt>
<rscale>  2 0.45995208E+03</rscale>
<asrwt>0</asrwt>
<pdfrwt beam="1">  1       21 0.28275229E-01 0.45995208E+03</pdfrwt>
<pdfrwt beam="2">  1       21 0.40452114E-01 0.45995208E+03</pdfrwt>
<totfact> 0.65038125E+04</totfact>
</mgrwt>
</event>
<event>
 7    0  0.4707675E-002  0.4588947E+03  0.7546771E-02  0.1025102E+00
         21   -1    0    0  502  501  0.00000000000E+00  0.00000000000E+00  0.15676208148E+03  0.15676208148E+03  0.00000000000E+00 0.  1.
         21   -1    0    0  501  502 -0.00000000000E+00 -0.00000000000E+00 -0.33583432538E+03  0.33583432538E+03  0.00000000000E+00 0.  1.
      99926    2    1    2    0    0  0.14210854715E-13 -0.17763568394E-14 -0.17907224390E+03  0.49259640687E+03  0.45889470636E+03 0.  0.
      99925    2    3    3    0    0 -0.11612258732E+03  0.95740177038E+01 -0.10467325082E+03  0.30615919123E+03  0.26306053265E+03 0.  0.
         25    1    3    3    0    0  0.11612258732E+03 -0.95740177038E+01 -0.74398993084E+02  0.18643721564E+03  0.12509000000E+03 0.  0.
         25    1    4    4    0    0 -0.49793342565E+02  0.96043475768E+01 -0.90003327893E+01  0.13527798988E+03  0.12509000000E+03 0.  0.
         25    1    4    4    0    0 -0.66329244760E+02 -0.30329872944E-01 -0.95672918026E+02  0.17088120135E+03  0.12509000000E+03 0.  0.
<mgrwt>
<rscale>  2 0.45889471E+03</rscale>
<asrwt>0</asrwt>
<pdfrwt beam="1">  1       21 0.23053247E-01 0.45889471E+03</pdfrwt>
<pdfrwt beam="2">  1       21 0.49387400E-01 0.45889471E+03</pdfrwt>
<totfact> 0.63798470E+04</totfact>
</mgrwt>
</event>
<event>
 7    0  0.4707675E-002  0.4495224E+03  0.7546771E-02  0.1027865E+00
         21   -1    0    0  502  501  0.00000000000E+00  0.00000000000E+00  0.57325325380E+03  0.57325325380E+03  0.00000000000E+00 0.  1.
         21   -1    0    0  501  502 -0.00000000000E+00 -0.00000000000E+00 -0.88124385829E+02  0.88124385829E+02  0.00000000000E+00 0.  1.
      99926    2    1    2    0    0  0.00000000000E+00  0.00000000000E+00  0.48512886797E+03  0.66137763963E+03  0.44952237282E+03 0.  0.
      99925    2    3    3    0    0 -0.17249768048E+02  0.80533109771E+02  0.20399952097E+03  0.34284294119E+03  0.26294931355E+03 0.  0.
         25    1    4    4    0    0  0.31121441125E+02  0.38864320418E+02  0.10986538953E+03  0.17377252779E+03  0.12509000000E+03 0.  0.
         25    1    4    4    0    0 -0.48371209172E+02  0.41668789354E+02  0.94134131440E+02  0.16907041339E+03  0.12509000000E+03 0.  0.
         25    1    3    3    0    0  0.17249768048E+02 -0.80533109771E+02  0.28112934700E+03  0.31853469845E+03  0.12509000000E+03 0.  0.
<mgrwt>
<rscale>  2 0.44952237E+03</rscale>
<asrwt>0</asrwt>
<pdfrwt beam="1">  1       21 0.84301947E-01 0.44952237E+03</pdfrwt>
<pdfrwt beam="2">  1       21 0.12959469E-01 0.44952237E+03</pdfrwt>
<totfact> 0.57493362E+04</totfact>
</mgrwt>
</event>
<event>
 7    0  0.4707675E-002  0.4570244E+03  0.7546771E-02  0.1025648E+00
         21   -1    0    0  502  501  0.00000000000E+00  0.00000000000E+00  0.10503780094E+03  0.10503780094E+03  0.00000000000E+00 0.  1.
         21   -1    0    0  501  502 -0.00000000000E+00 -0.00000000000E+00 -0.49713364616E+03  0.49713364616E+03  0.00000000000E+00 0.  1.
      99926    2    1    2    0    0  0.00000000000E+00  0.00000000000E+00 -0.39209584522E+03  0.60217144709E+03  0.45702439744E+03 0.  0.
      99925    2    3    3    0    0  0.68252945667E+02  0.50369063578E+02 -0.34868389773E+03  0.44492128829E+03  0.26301898236E+03 0.  0.
         25    1    4    4    0    0  0.43395833008E+02 -0.44059266987E+01 -0.12797237528E+03  0.18419296253E+03  0.12509000000E+03 0.  0.
         25    1    3    3    0    0 -0.68252945667E+02 -0.50369063578E+02 -0.43411947490E+02  0.15725015880E+03  0.12509000000E+03 0.  0.
         25    1    4    4    0    0  0.24857112659E+02  0.54774990277E+02 -0.22071152245E+03  0.26072832576E+03  0.12509000000E+03 0.  0.
<mgrwt>
<rscale>  2 0.45702440E+03</rscale>
<asrwt>0</asrwt>
<pdfrwt beam="1">  1       21 0.15446735E-01 0.45702440E+03</pdfrwt>
<pdfrwt beam="2">  1       21 0.73107889E-01 0.45702440E+03</pdfrwt>
<totfact> 0.57617701E+04</totfact>
</mgrwt>
</event>
<event>
 7    0  0.4707675E-002  0.4590315E+03  0.7546771E-02  0.1025062E+00
         21   -1    0    0  502  501  0.00000000000E+00  0.00000000000E+00  0.45785194277E+03  0.45785194277E+03  0.00000000000E+00 0. -1.
         21   -1    0    0  501  502 -0.00000000000E+00 -0.00000000000E+00 -0.11505354283E+03  0.11505354283E+03  0.00000000000E+00 0. -1.
      99926    2    1    2    0    0  0.88817841970E-15  0.00000000000E+00  0.34279839993E+03  0.57290548560E+03  0.45903153751E+03 0.  0.
      99925    2    3    3    0    0  0.22800003247E+01 -0.11674044439E+03  0.22096760392E+03  0.36284887248E+03  0.26305720390E+03 0.  0.
         25    1    3    3    0    0 -0.22800003247E+01  0.11674044439E+03  0.12183079601E+03  0.21005661311E+03  0.12509000000E+03 0.  0.
         25    1    4    4    0    0 -0.10705063391E+02 -0.99846103843E+02  0.11266084831E+03  0.19601994204E+03  0.12509000000E+03 0.  0.
         25    1    4    4    0    0  0.12985063716E+02 -0.16894340542E+02  0.10830675562E+03  0.16682893045E+03  0.12509000000E+03 0.  0.
<mgrwt>
<rscale>  2 0.45903154E+03</rscale>
<asrwt>0</asrwt>
<pdfrwt beam="1">  1       21 0.67331167E-01 0.45903154E+03</pdfrwt>
<pdfrwt beam="2">  1       21 0.16919639E-01 0.45903154E+03</pdfrwt>
<totfact> 0.58490766E+04</totfact>
</mgrwt>
</event>
<event>
 7    0  0.4707675E-002  0.4676589E+03  0.7546771E-02  0.1022583E+00
         21   -1    0    0  502  501  0.00000000000E+00  0.00000000000E+00  0.42502045605E+03  0.42502045605E+03  0.00000000000E+00 0. -1.
         21   -1    0    0  501  502 -0.00000000000E+00 -0.00000000000E+00 -0.12864373106E+03  0.12864373106E+03  0.00000000000E+00 0. -1.
      99926    2    1    2    0    0  0.00000000000E+00 -0.71054273576E-14  0.29637672500E+03  0.55366418711E+03  0.46765892375E+03 0.  0.
      99925    2    3    3    0    0 -0.11093441644E+03 -0.48895229854E+02  0.14972668505E+03  0.32595619302E+03  0.26292997414E+03 0.  0.
         25    1    4    4    0    0 -0.42196874087E+02 -0.10492049070E+02  0.11191829766E+03  0.17338936740E+03  0.12509000000E+03 0.  0.
         25    1    3    3    0    0  0.11093441644E+03  0.48895229854E+02  0.14665003995E+03  0.22770799409E+03  0.12509000000E+03 0.  0.
         25    1    4    4    0    0 -0.68737542354E+02 -0.38403180784E+02  0.37808387386E+02  0.15256682562E+03  0.12509000000E+03 0.  0.
<mgrwt>
<rscale>  2 0.46765892E+03</rscale>
<asrwt>0</asrwt>
<pdfrwt beam="1">  1       21 0.62503008E-01 0.46765892E+03</pdfrwt>
<pdfrwt beam="2">  1       21 0.18918196E-01 0.46765892E+03</pdfrwt>
<totfact> 0.55820093E+04</totfact>
</mgrwt>
</event>
<event>
 7    0  0.4707675E-002  0.4563080E+03  0.7546771E-02  0.1025857E+00
         21   -1    0    0  502  501  0.00000000000E+00  0.00000000000E+00  0.28103901229E+03  0.28103901229E+03  0.00000000000E+00 0. -1.
         21   -1    0    0  501  502 -0.00000000000E+00 -0.00000000000E+00 -0.18522073572E+03  0.18522073572E+03  0.00000000000E+00 0. -1.
      99926    2    1    2    0    0  0.00000000000E+00  0.00000000000E+00  0.95818276566E+02  0.46625974802E+03  0.45630802151E+03 0.  0.
      99925    2    3    3    0    0  0.34131188724E+02 -0.99969739355E+02  0.16660695715E+02  0.28440178823E+03  0.26352971661E+03 0.  0.
         25    1    4    4    0    0 -0.22503576918E+02 -0.52944696542E+02  0.20534856794E+02  0.13920754401E+03  0.12509000000E+03 0.  0.
         25    1    4    4    0    0  0.56634765643E+02 -0.47025042813E+02 -0.38741610784E+01  0.14519424422E+03  0.12509000000E+03 0.  0.
         25    1    3    3    0    0 -0.34131188724E+02  0.99969739355E+02  0.79157580851E+02  0.18185795978E+03  0.12509000000E+03 0.  0.
<mgrwt>
<rscale>  2 0.45630802E+03</rscale>
<asrwt>0</asrwt>
<pdfrwt beam="1">  1       21 0.41329267E-01 0.45630802E+03</pdfrwt>
<pdfrwt beam="2">  1       21 0.27238343E-01 0.45630802E+03</pdfrwt>
<totfact> 0.67017361E+04</totfact>
</mgrwt>
</event>
<event>
 7    0  0.4707675E-002  0.4500338E+03  0.7546771E-02  0.1027712E+00
         21   -1    0    0  502  501  0.00000000000E+00  0.00000000000E+00  0.22740841409E+03  0.22740841409E+03  0.00000000000E+00 0. -1.
         21   -1    0    0  501  502 -0.00000000000E+00 -0.00000000000E+00 -0.22265053287E+03  0.22265053287E+03  0.00000000000E+00 0. -1.
      99926    2    1    2    0    0  0.88817841970E-15  0.00000000000E+00  0.47578812158E+01  0.45005894696E+03  0.45003379684E+03 0.  0.
      99925    2    3    3    0    0 -0.42600307290E+01  0.95485642170E+02 -0.49281407916E+02  0.28361553738E+03  0.26243753572E+03 0.  0.
         25    1    4    4    0    0 -0.18832172934E+02  0.48026489176E+02  0.11796002595E+02  0.13582285587E+03  0.12509000000E+03 0.  0.
         25    1    4    4    0    0  0.14572142205E+02  0.47459152994E+02 -0.61077410511E+02  0.14779268150E+03  0.12509000000E+03 0.  0.
         25    1    3    3    0    0  0.42600307290E+01 -0.95485642170E+02  0.54039289132E+02  0.16644340958E+03  0.12509000000E+03 0.  0.
<mgrwt>
<rscale>  2 0.45003380E+03</rscale>
<asrwt>0</asrwt>
<pdfrwt beam="1">  1       21 0.33442414E-01 0.45003380E+03</pdfrwt>
<pdfrwt beam="2">  1       21 0.32742725E-01 0.45003380E+03</pdfrwt>
<totfact> 0.71708922E+04</totfact>
</mgrwt>
</event>
<event>
 7    0  0.4707675E-002  0.4535529E+03  0.7546771E-02  0.1026668E+00
         21   -1    0    0  502  501  0.00000000000E+00  0.00000000000E+00  0.12712898726E+04  0.12712898726E+04  0.00000000000E+00 0. -1.
         21   -1    0    0  501  502 -0.00000000000E+00 -0.00000000000E+00 -0.40453061702E+02  0.40453061702E+02  0.00000000000E+00 0. -1.
      99926    2    1    2    0    0  0.00000000000E+00  0.00000000000E+00  0.12308368109E+04  0.13117429343E+04  0.45355294137E+03 0.  0.
      99925    2    3    3    0    0  0.29950718193E+02  0.85932391551E+02  0.96382960779E+03  0.10031626756E+04  0.26284295589E+03 0.  0.
         25    1    4    4    0    0  0.16115116151E+02  0.43832903070E+02  0.33800885205E+03  0.36342607574E+03  0.12509000000E+03 0.  0.
         25    1    3    3    0    0 -0.29950718193E+02 -0.85932391551E+02  0.26700720311E+03  0.30858025868E+03  0.12509000000E+03 0.  0.
         25    1    4    4    0    0  0.13835602042E+02  0.42099488481E+02  0.62582075573E+03  0.63973659988E+03  0.12509000000E+03 0.  0.
<mgrwt>
<rscale>  2 0.45355294E+03</rscale>
<asrwt>0</asrwt>
<pdfrwt beam="1">  1       21 0.18695437E+00 0.45355294E+03</pdfrwt>
<pdfrwt beam="2">  1       21 0.59489805E-02 0.45355294E+03</pdfrwt>
<totfact> 0.29101654E+04</totfact>
</mgrwt>
</event>
<event>
 7    0  0.4707675E-002  0.4443117E+03  0.7546771E-02  0.1029432E+00
         21   -1    0    0  502  501  0.00000000000E+00  0.00000000000E+00  0.13900607328E+03  0.13900607328E+03  0.00000000000E+00 0. -1.
         21   -1    0    0  501  502 -0.00000000000E+00 -0.00000000000E+00 -0.35504364907E+03  0.35504364907E+03  0.00000000000E+00 0. -1.
      99926    2    1    2    0    0  0.00000000000E+00  0.71054273576E-14 -0.21603757580E+03  0.49404972235E+03  0.44431170815E+03 0.  0.
      99925    2    3    3    0    0 -0.90125213248E+02  0.44285964996E+02 -0.16168156137E+03  0.32468064263E+03  0.26304522740E+03 0.  0.
         25    1    3    3    0    0  0.90125213248E+02 -0.44285964996E+02 -0.54356014430E+02  0.16936907971E+03  0.12509000000E+03 0.  0.
         25    1    4    4    0    0 -0.51217705708E+02  0.61458197493E+02 -0.72194093609E+02  0.16510559854E+03  0.12509000000E+03 0.  0.
         25    1    4    4    0    0 -0.38907507540E+02 -0.17172232497E+02 -0.89487467756E+02  0.15957504409E+03  0.12509000000E+03 0.  0.
<mgrwt>
<rscale>  2 0.44431171E+03</rscale>
<asrwt>0</asrwt>
<pdfrwt beam="1">  1       21 0.20442070E-01 0.44431171E+03</pdfrwt>
<pdfrwt beam="2">  1       21 0.52212300E-01 0.44431171E+03</pdfrwt>
<totfact> 0.71573211E+04</totfact>
</mgrwt>
</event>
<event>
 7    0  0.4707675E-002  0.4610905E+03  0.7546771E-02  0.1024465E+00
         21   -1    0    0  502  501  0.00000000000E+00  0.00000000000E+00  0.61180218396E+02  0.61180218396E+02  0.00000000000E+00 0. -1.
         21   -1    0    0  501  502 -0.00000000000E+00 -0.00000000000E+00 -0.86876292768E+03  0.86876292768E+03  0.00000000000E+00 0. -1.
      99926    2    1    2    0    0  0.00000000000E+00  0.00000000000E+00 -0.80758270928E+03  0.92994314607E+03  0.46109047116E+03 0.  0.
      99925    2    3    3    0    0 -0.26781394554E+02  0.30935156347E+02 -0.73036008306E+03  0.77734868650E+03  0.26300361686E+03 0.  0.
         25    1    4    4    0    0 -0.33659788577E+02  0.18224310515E+02 -0.47418001954E+03  0.49189359204E+03  0.12509000000E+03 0.  0.
         25    1    4    4    0    0  0.68783940229E+01  0.12710845833E+02 -0.25618006352E+03  0.28545509446E+03  0.12509000000E+03 0.  0.
         25    1    3    3    0    0  0.26781394554E+02 -0.30935156347E+02 -0.77222626222E+02  0.15259445958E+03  0.12509000000E+03 0.  0.
<mgrwt>
<rscale>  2 0.46109047E+03</rscale>
<asrwt>0</asrwt>
<pdfrwt beam="1">  1       21 0.89970908E-02 0.46109047E+03</pdfrwt>
<pdfrwt beam="2">  1       21 0.12775926E+00 0.46109047E+03</pdfrwt>
<totfact> 0.40022508E+04</totfact>
</mgrwt>
</event>
<event>
 7    0  0.4707675E-002  0.4533257E+03  0.7546771E-02  0.1026735E+00
         21   -1    0    0  502  501  0.00000000000E+00  0.00000000000E+00  0.58793432207E+02  0.58793432207E+02  0.00000000000E+00 0.  1.
         21   -1    0    0  501  502 -0.00000000000E+00 -0.00000000000E+00 -0.87383983266E+03  0.87383983266E+03  0.00000000000E+00 0.  1.
      99926    2    1    2    0    0  0.00000000000E+00  0.00000000000E+00 -0.81504640045E+03  0.93263326487E+03  0.45332567967E+03 0.  0.
      99925    2    3    3    0    0 -0.90465987315E+02  0.60458285352E+02 -0.46379907817E+03  0.54422434550E+03  0.26311832738E+03 0.  0.
         25    1    3    3    0    0  0.90465987315E+02 -0.60458285352E+02 -0.35124732229E+03  0.38840891936E+03  0.12509000000E+03 0.  0.
         25    1    4    4    0    0 -0.15548870392E+02  0.59203009229E+01 -0.16984395668E+03  0.21159228496E+03  0.12509000000E+03 0.  0.
         25    1    4    4    0    0 -0.74917116923E+02  0.54537984429E+02 -0.29395512148E+03  0.33263206054E+03  0.12509000000E+03 0.  0.
<mgrwt>
<rscale>  2 0.45332568E+03</rscale>
<asrwt>0</asrwt>
<pdfrwt beam="1">  1       21 0.86460927E-02 0.45332568E+03</pdfrwt>
<pdfrwt beam="2">  1       21 0.12850586E+00 0.45332568E+03</pdfrwt>
<totfact> 0.42404751E+04</totfact>
</mgrwt>
</event>
<event>
 7    0  0.4707675E-002  0.4515704E+03  0.7546771E-02  0.1027255E+00
         21   -1    0    0  502  501  0.00000000000E+00  0.00000000000E+00  0.16838977061E+03  0.16838977061E+03  0.00000000000E+00 0.  1.
         21   -1    0    0  501  502 -0.00000000000E+00 -0.00000000000E+00 -0.30274384084E+03  0.30274384084E+03  0.00000000000E+00 0.  1.
      99926    2    1    2    0    0  0.00000000000E+00  0.00000000000E+00 -0.13435407024E+03  0.47113361145E+03  0.45157044151E+03 0.  0.
      99925    2    3    3    0    0  0.10494782715E+02 -0.60489938334E+02  0.10349358525E+02  0.27024617158E+03  0.26297663570E+03 0.  0.
         25    1    3    3    0    0 -0.10494782715E+02  0.60489938334E+02 -0.14470342876E+03  0.20088743987E+03  0.12509000000E+03 0.  0.
         25    1    4    4    0    0  0.25272851172E+02 -0.98350652005E+01 -0.23948431243E+02  0.13021705331E+03  0.12509000000E+03 0.  0.
         25    1    4    4    0    0 -0.14778068457E+02 -0.50654873134E+02  0.34297789767E+02  0.14002911827E+03  0.12509000000E+03 0.  0.
<mgrwt>
<rscale>  2 0.45157044E+03</rscale>
<asrwt>0</asrwt>
<pdfrwt beam="1">  1       21 0.24763202E-01 0.45157044E+03</pdfrwt>
<pdfrwt beam="2">  1       21 0.44521153E-01 0.45157044E+03</pdfrwt>
<totfact> 0.69215956E+04</totfact>
</mgrwt>
</event>
<event>
 7    0  0.4707675E-002  0.4050917E+03  0.7546771E-02  0.1042031E+00
         21   -1    0    0  502  501  0.00000000000E+00  0.00000000000E+00  0.16296631966E+03  0.16296631966E+03  0.00000000000E+00 0. -1.
         21   -1    0    0  501  502 -0.00000000000E+00 -0.00000000000E+00 -0.25173801181E+03  0.25173801181E+03  0.00000000000E+00 0. -1.
      99926    2    1    2    0    0  0.00000000000E+00  0.00000000000E+00 -0.88771692152E+02  0.41470433146E+03  0.40509168000E+03 0.  0.
      99925    2    3    3    0    0 -0.53370453031E+02 -0.73938266766E+01 -0.68092619396E+02  0.27694292148E+03  0.26297852196E+03 0.  0.
         25    1    4    4    0    0 -0.43627720767E+02  0.35758207954E+00 -0.72764873401E+02  0.15114807569E+03  0.12509000000E+03 0.  0.
         25    1    4    4    0    0 -0.97427322640E+01 -0.77514087562E+01  0.46722540056E+01  0.12579484579E+03  0.12509000000E+03 0.  0.
         25    1    3    3    0    0  0.53370453031E+02  0.73938266766E+01 -0.20679072756E+02  0.13776140998E+03  0.12509000000E+03 0.  0.
<mgrwt>
<rscale>  2 0.40509168E+03</rscale>
<asrwt>0</asrwt>
<pdfrwt beam="1">  1       21 0.23965635E-01 0.40509168E+03</pdfrwt>
<pdfrwt beam="2">  1       21 0.37020296E-01 0.40509168E+03</pdfrwt>
<totfact> 0.10890673E+05</totfact>
</mgrwt>
</event>
<event>
 7    0  0.4707675E-002  0.4520905E+03  0.7546771E-02  0.1027100E+00
         21   -1    0    0  502  501  0.00000000000E+00  0.00000000000E+00  0.29093976901E+02  0.29093976901E+02  0.00000000000E+00 0.  1.
         21   -1    0    0  501  502 -0.00000000000E+00 -0.00000000000E+00 -0.17562551207E+04  0.17562551207E+04  0.00000000000E+00 0.  1.
      99926    2    1    2    0    0  0.14210854715E-13  0.00000000000E+00 -0.17271611438E+04  0.17853490976E+04  0.45209045959E+03 0.  0.
      99925    2    3    3    0    0 -0.85152475746E+02 -0.10800070007E+02 -0.81578768282E+03  0.86143531423E+03  0.26304689984E+03 0.  0.
         25    1    4    4    0    0 -0.84371719183E+02 -0.10350666735E+02 -0.46839751173E+03  0.49220875693E+03  0.12509000000E+03 0.  0.
         25    1    3    3    0    0  0.85152475746E+02  0.10800070007E+02 -0.91137346099E+03  0.92391378339E+03  0.12509000000E+03 0.  0.
         25    1    4    4    0    0 -0.78075656331E+00 -0.44940327140E+00 -0.34739017109E+03  0.36922655730E+03  0.12509000000E+03 0.  0.
<mgrwt>
<rscale>  2 0.45209046E+03</rscale>
<asrwt>0</asrwt>
<pdfrwt beam="1">  1       21 0.42785266E-02 0.45209046E+03</pdfrwt>
<pdfrwt beam="2">  1       21 0.25827277E+00 0.45209046E+03</pdfrwt>
<totfact> 0.17944593E+04</totfact>
</mgrwt>
</event>
<event>
 7    0  0.4707675E-002  0.4436027E+03  0.7546771E-02  0.1029647E+00
         21   -1    0    0  502  501  0.00000000000E+00  0.00000000000E+00  0.16558527019E+03  0.16558527019E+03  0.00000000000E+00 0. -1.
         21   -1    0    0  501  502 -0.00000000000E+00 -0.00000000000E+00 -0.29710276792E+03  0.29710276792E+03  0.00000000000E+00 0. -1.
      99926    2    1    2    0    0  0.00000000000E+00  0.00000000000E+00 -0.13151749773E+03  0.46268803811E+03  0.44360271460E+03 0.  0.
      99925    2    3    3    0    0 -0.85843861217E+02 -0.41835162713E+02 -0.12117853699E+03  0.30497389304E+03  0.26306936017E+03 0.  0.
         25    1    4    4    0    0 -0.26699339024E+02 -0.41669278708E+02 -0.93604172155E+02  0.16388542533E+03  0.12509000000E+03 0.  0.
         25    1    3    3    0    0  0.85843861217E+02  0.41835162713E+02 -0.10338960748E+02  0.15771414508E+03  0.12509000000E+03 0.  0.
         25    1    4    4    0    0 -0.59144522193E+02 -0.16588400531E+00 -0.27574364832E+02  0.14108846770E+03  0.12509000000E+03 0.  0.
<mgrwt>
<rscale>  2 0.44360271E+03</rscale>
<asrwt>0</asrwt>
<pdfrwt beam="1">  1       21 0.24350775E-01 0.44360271E+03</pdfrwt>
<pdfrwt beam="2">  1       21 0.43691583E-01 0.44360271E+03</pdfrwt>
<totfact> 0.74494792E+04</totfact>
</mgrwt>
</event>
<event>
 7    0  0.4707675E-002  0.3968606E+03  0.7546771E-02  0.1044872E+00
         21   -1    0    0  502  501  0.00000000000E+00  0.00000000000E+00  0.32959391215E+03  0.32959391215E+03  0.00000000000E+00 0.  1.
         21   -1    0    0  501  502 -0.00000000000E+00 -0.00000000000E+00 -0.11946395478E+03  0.11946395478E+03  0.00000000000E+00 0.  1.
      99926    2    1    2    0    0  0.00000000000E+00 -0.17763568394E-14  0.21012995737E+03  0.44905786692E+03  0.39686064162E+03 0.  0.
      99925    2    3    3    0    0  0.26811756501E+02 -0.13687333283E+02  0.16687611973E+03  0.31332056199E+03  0.26346901498E+03 0.  0.
         25    1    4    4    0    0  0.22803869963E+02 -0.45893232860E+02  0.73367029501E+02  0.15380648369E+03  0.12509000000E+03 0.  0.
         25    1    3    3    0    0 -0.26811756501E+02  0.13687333283E+02  0.43253837640E+02  0.13573730493E+03  0.12509000000E+03 0.  0.
         25    1    4    4    0    0  0.40078865372E+01  0.32205899577E+02  0.93509090226E+02  0.15951407830E+03  0.12509000000E+03 0.  0.
<mgrwt>
<rscale>  2 0.39686064E+03</rscale>
<asrwt>0</asrwt>
<pdfrwt beam="1">  1       21 0.48469693E-01 0.39686064E+03</pdfrwt>
<pdfrwt beam="2">  1       21 0.17568229E-01 0.39686064E+03</pdfrwt>
<totfact> 0.11272659E+05</totfact>
</mgrwt>
</event>
<event>
 7    0  0.4707675E-002  0.4485272E+03  0.7546771E-02  0.1028162E+00
         21   -1    0    0  502  501  0.00000000000E+00  0.00000000000E+00  0.20264258881E+03  0.20264258881E+03  0.00000000000E+00 0.  1.
         21   -1    0    0  501  502 -0.00000000000E+00 -0.00000000000E+00 -0.24819143893E+03  0.24819143893E+03  0.00000000000E+00 0.  1.
      99926    2    1    2    0    0 -0.71054273576E-14  0.00000000000E+00 -0.45548850126E+02  0.45083402774E+03  0.44852717066E+03 0.  0.
      99925    2    3    3    0    0  0.39719216474E+02  0.94556456358E+02 -0.59309772556E+02  0.28849053178E+03  0.26304105803E+03 0.  0.
         25    1    3    3    0    0 -0.39719216474E+02 -0.94556456358E+02  0.13760922431E+02  0.16234349597E+03  0.12509000000E+03 0.  0.
         25    1    4    4    0    0  0.55249752199E+01  0.77534369802E+01 -0.37414962158E+02  0.13091229365E+03  0.12509000000E+03 0.  0.
         25    1    4    4    0    0  0.34194241254E+02  0.86803019377E+02 -0.21894810399E+02  0.15757823812E+03  0.12509000000E+03 0.  0.
<mgrwt>
<rscale>  2 0.44852717E+03</rscale>
<asrwt>0</asrwt>
<pdfrwt beam="1">  1       21 0.29800381E-01 0.44852717E+03</pdfrwt>
<pdfrwt beam="2">  1       21 0.36498741E-01 0.44852717E+03</pdfrwt>
<totfact> 0.72525811E+04</totfact>
</mgrwt>
</event>
<event>
 7    0  0.4707675E-002  0.4545583E+03  0.7546771E-02  0.1026371E+00
         21   -1    0    0  502  501  0.00000000000E+00  0.00000000000E+00  0.20264240398E+03  0.20264240398E+03  0.00000000000E+00 0.  1.
         21   -1    0    0  501  502 -0.00000000000E+00 -0.00000000000E+00 -0.25491121548E+03  0.25491121548E+03  0.00000000000E+00 0.  1.
      99926    2    1    2    0    0  0.00000000000E+00 -0.14210854715E-13 -0.52268811500E+02  0.45755361946E+03  0.45455834172E+03 0.  0.
      99925    2    3    3    0    0  0.23812394513E+02 -0.75937667276E+02 -0.11337790261E+03  0.29719343562E+03  0.26293693147E+03 0.  0.
         25    1    3    3    0    0 -0.23812394513E+02  0.75937667276E+02  0.61109091112E+02  0.16036018384E+03  0.12509000000E+03 0.  0.
         25    1    4    4    0    0  0.34406124405E+02 -0.67844567303E+02 -0.80904276920E+02  0.16727126721E+03  0.12509000000E+03 0.  0.
         25    1    4    4    0    0 -0.10593729892E+02 -0.80930999732E+01 -0.32473625693E+02  0.12992216842E+03  0.12509000000E+03 0.  0.
<mgrwt>
<rscale>  2 0.45455834E+03</rscale>
<asrwt>0</asrwt>
<pdfrwt beam="1">  1       21 0.29800353E-01 0.45455834E+03</pdfrwt>
<pdfrwt beam="2">  1       21 0.37486943E-01 0.45455834E+03</pdfrwt>
<totfact> 0.68600448E+04</totfact>
</mgrwt>
</event>
<event>
 7    0  0.4707675E-002  0.4553430E+03  0.7546771E-02  0.1026141E+00
         21   -1    0    0  502  501  0.00000000000E+00  0.00000000000E+00  0.38854290892E+03  0.38854290892E+03  0.00000000000E+00 0.  1.
         21   -1    0    0  501  502 -0.00000000000E+00 -0.00000000000E+00 -0.13340691098E+03  0.13340691098E+03  0.00000000000E+00 0.  1.
      99926    2    1    2    0    0  0.14210854715E-13  0.17763568394E-14  0.25513599794E+03  0.52194981990E+03  0.45534298836E+03 0.  0.
      99925    2    3    3    0    0 -0.10157635925E+03 -0.88098853245E+01  0.10354195339E+03  0.30053700798E+03  0.26307068673E+03 0.  0.
         25    1    4    4    0    0 -0.67155604579E+02 -0.26131874671E+02  0.21225077412E+02  0.14591354328E+03  0.12509000000E+03 0.  0.
         25    1    4    4    0    0 -0.34420754668E+02  0.17321989346E+02  0.82316875977E+02  0.15462346471E+03  0.12509000000E+03 0.  0.
         25    1    3    3    0    0  0.10157635925E+03  0.88098853245E+01  0.15159404455E+03  0.22141281192E+03  0.12509000000E+03 0.  0.
<mgrwt>
<rscale>  2 0.45534299E+03</rscale>
<asrwt>0</asrwt>
<pdfrwt beam="1">  1       21 0.57138663E-01 0.45534299E+03</pdfrwt>
<pdfrwt beam="2">  1       21 0.19618663E-01 0.45534299E+03</pdfrwt>
<totfact> 0.63581414E+04</totfact>
</mgrwt>
</event>
<event>
 7    0  0.4707675E-002  0.4674698E+03  0.7546771E-02  0.1022637E+00
         21   -1    0    0  502  501  0.00000000000E+00  0.00000000000E+00  0.14447166893E+03  0.14447166893E+03  0.00000000000E+00 0. -1.
         21   -1    0    0  501  502 -0.00000000000E+00 -0.00000000000E+00 -0.37815028509E+03  0.37815028509E+03  0.00000000000E+00 0. -1.
      99926    2    1    2    0    0  0.71054273576E-14  0.00000000000E+00 -0.23367861616E+03  0.52262195402E+03  0.46746979708E+03 0.  0.
      99925    2    3    3    0    0  0.35087660425E+02 -0.11522735413E+03 -0.11015909256E+03  0.30951853345E+03  0.26297948555E+03 0.  0.
         25    1    4    4    0    0  0.10989718912E+02 -0.90325776633E+02 -0.87617490348E+02  0.17777472419E+03  0.12509000000E+03 0.  0.
         25    1    3    3    0    0 -0.35087660425E+02  0.11522735413E+03 -0.12351952360E+03  0.21310342058E+03  0.12509000000E+03 0.  0.
         25    1    4    4    0    0  0.24097941513E+02 -0.24901577492E+02 -0.22541602210E+02  0.13174380925E+03  0.12509000000E+03 0.  0.
<mgrwt>
<rscale>  2 0.46746980E+03</rscale>
<asrwt>0</asrwt>
<pdfrwt beam="1">  1       21 0.21245834E-01 0.46746980E+03</pdfrwt>
<pdfrwt beam="2">  1       21 0.55610335E-01 0.46746980E+03</pdfrwt>
<totfact> 0.57776916E+04</totfact>
</mgrwt>
</event>
<event>
 7    0  0.4707675E-002  0.4553149E+03  0.7546771E-02  0.1026149E+00
         21   -1    0    0  502  501  0.00000000000E+00  0.00000000000E+00  0.92608815479E+02  0.92608815479E+02  0.00000000000E+00 0.  1.
         21   -1    0    0  501  502 -0.00000000000E+00 -0.00000000000E+00 -0.55964347885E+03  0.55964347885E+03  0.00000000000E+00 0.  1.
      99926    2    1    2    0    0  0.00000000000E+00  0.00000000000E+00 -0.46703466337E+03  0.65225229433E+03  0.45531492252E+03 0.  0.
      99925    2    3    3    0    0  0.38502697816E+02  0.37470337031E+02 -0.43709103121E+03  0.51285856024E+03  0.26284757818E+03 0.  0.
         25    1    4    4    0    0  0.24068598948E+02 -0.20206308770E+02 -0.19098139274E+03  0.23045388442E+03  0.12509000000E+03 0.  0.
         25    1    4    4    0    0  0.14434098868E+02  0.57676645800E+02 -0.24610963847E+03  0.28240467582E+03  0.12509000000E+03 0.  0.
         25    1    3    3    0    0 -0.38502697816E+02 -0.37470337031E+02 -0.29943632163E+02  0.13939373409E+03  0.12509000000E+03 0.  0.
<mgrwt>
<rscale>  2 0.45531492E+03</rscale>
<asrwt>0</asrwt>
<pdfrwt beam="1">  1       21 0.13618944E-01 0.45531492E+03</pdfrwt>
<pdfrwt beam="2">  1       21 0.82300511E-01 0.45531492E+03</pdfrwt>
<totfact> 0.55434085E+04</totfact>
</mgrwt>
</event>
<event>
 7    0  0.4707675E-002  0.4463469E+03  0.7546771E-02  0.1028817E+00
         21   -1    0    0  502  501  0.00000000000E+00  0.00000000000E+00  0.20654353637E+03  0.20654353637E+03  0.00000000000E+00 0. -1.
         21   -1    0    0  501  502 -0.00000000000E+00 -0.00000000000E+00 -0.24114228046E+03  0.24114228046E+03  0.00000000000E+00 0. -1.
      99926    2    1    2    0    0  0.00000000000E+00 -0.14210854715E-13 -0.34598744084E+02  0.44768581683E+03  0.44634685784E+03 0.  0.
      99925    2    3    3    0    0 -0.33964978404E+02  0.97426341205E+02 -0.35808277263E+01  0.28259453616E+03  0.26306147157E+03 0.  0.
         25    1    4    4    0    0 -0.26834687116E+02  0.90700814658E+02  0.41810948769E+01  0.15688125403E+03  0.12509000000E+03 0.  0.
         25    1    3    3    0    0  0.33964978404E+02 -0.97426341205E+02 -0.31017916358E+02  0.16509128067E+03  0.12509000000E+03 0.  0.
         25    1    4    4    0    0 -0.71302912879E+01  0.67255265476E+01 -0.77619226032E+01  0.12571328213E+03  0.12509000000E+03 0.  0.
<mgrwt>
<rscale>  2 0.44634686E+03</rscale>
<asrwt>0</asrwt>
<pdfrwt beam="1">  1       21 0.30374050E-01 0.44634686E+03</pdfrwt>
<pdfrwt beam="2">  1       21 0.35462100E-01 0.44634686E+03</pdfrwt>
<totfact> 0.74068172E+04</totfact>
</mgrwt>
</event>
<event>
 7    0  0.4707675E-002  0.4593538E+03  0.7546771E-02  0.1024969E+00
         21   -1    0    0  502  501  0.00000000000E+00  0.00000000000E+00  0.19356627488E+03  0.19356627488E+03  0.00000000000E+00 0.  1.
         21   -1    0    0  501  502 -0.00000000000E+00 -0.00000000000E+00 -0.27252406615E+03  0.27252406615E+03  0.00000000000E+00 0.  1.
      99926    2    1    2    0    0  0.14210854715E-13  0.00000000000E+00 -0.78957791266E+02  0.46609034104E+03  0.45935375606E+03 0.  0.
      99925    2    3    3    0    0 -0.81489462607E+02 -0.76147744548E+02 -0.84783099770E+02  0.29839879732E+03  0.26346661405E+03 0.  0.
         25    1    3    3    0    0  0.81489462607E+02  0.76147744548E+02  0.58253085047E+01  0.16769154372E+03  0.12509000000E+03 0.  0.
         25    1    4    4    0    0 -0.81468982491E+02 -0.37166979170E+02 -0.59589176893E+02  0.16497562714E+03  0.12509000000E+03 0.  0.
         25    1    4    4    0    0 -0.20480116208E-01 -0.38980765378E+02 -0.25193922877E+02  0.13342317017E+03  0.12509000000E+03 0.  0.
<mgrwt>
<rscale>  2 0.45935376E+03</rscale>
<asrwt>0</asrwt>
<pdfrwt beam="1">  1       21 0.28465629E-01 0.45935376E+03</pdfrwt>
<pdfrwt beam="2">  1       21 0.40077068E-01 0.45935376E+03</pdfrwt>
<totfact> 0.65435074E+04</totfact>
</mgrwt>
</event>
<event>
 7    0  0.4707675E-002  0.4579758E+03  0.7546771E-02  0.1025370E+00
         21   -1    0    0  502  501  0.00000000000E+00  0.00000000000E+00  0.71732160347E+03  0.71732160347E+03  0.00000000000E+00 0. -1.
         21   -1    0    0  501  502 -0.00000000000E+00 -0.00000000000E+00 -0.73098959183E+02  0.73098959183E+02  0.00000000000E+00 0. -1.
      99926    2    1    2    0    0  0.35527136788E-14 -0.14210854715E-13  0.64422264429E+03  0.79042056266E+03  0.45797581863E+03 0.  0.
      99925    2    3    3    0    0 -0.22541505294E+02  0.79588037591E+02  0.26399041690E+03  0.38168295730E+03  0.26296114635E+03 0.  0.
         25    1    4    4    0    0  0.79487137098E+01  0.35977296012E+02  0.80231664061E+02  0.15310837957E+03  0.12509000000E+03 0.  0.
         25    1    4    4    0    0 -0.30490219003E+02  0.43610741579E+02  0.18375875284E+03  0.22857457772E+03  0.12509000000E+03 0.  0.
         25    1    3    3    0    0  0.22541505294E+02 -0.79588037591E+02  0.38023222739E+03  0.40873760536E+03  0.12509000000E+03 0.  0.
<mgrwt>
<rscale>  2 0.45797582E+03</rscale>
<asrwt>0</asrwt>
<pdfrwt beam="1">  1       21 0.10548847E+00 0.45797582E+03</pdfrwt>
<pdfrwt beam="2">  1       21 0.10749847E-01 0.45797582E+03</pdfrwt>
<totfact> 0.47121450E+04</totfact>
</mgrwt>
</event>
<event>
 6    0  0.4707675E-002  0.4515687E+03  0.7546771E-02  0.1027255E+00
         21   -1    0    0  502  501  0.00000000000E+00  0.00000000000E+00  0.88481029756E+03  0.88481029756E+03  0.00000000000E+00 0.  1.
         21   -1    0    0  501  502 -0.00000000000E+00 -0.00000000000E+00 -0.57615263182E+02  0.57615263182E+02  0.00000000000E+00 0.  1.
      99926    2    1    2    0    0  0.00000000000E+00  0.00000000000E+00  0.82719503438E+03  0.94242556074E+03  0.45156872416E+03 0.  0.
         25    1    3    3    0    0  0.81162117660E+02 -0.65166477236E+02  0.27354891617E+03  0.31829306737E+03  0.12509000000E+03 0.  0.
         25    1    3    3    0    0 -0.18253060820E+02  0.54945742554E+02  0.19336984592E+03  0.23746918593E+03  0.12509000000E+03 0.  0.
         25    1    3    3    0    0 -0.62909056840E+02  0.10220734682E+02  0.36027627229E+03  0.38666330745E+03  0.12509000000E+03 0.  0.
<mgrwt>
<rscale>  2 0.45156872E+03</rscale>
<asrwt>0</asrwt>
<pdfrwt beam="1">  1       21 0.13011915E+00 0.45156872E+03</pdfrwt>
<pdfrwt beam="2">  1       21 0.84728334E-02 0.45156872E+03</pdfrwt>
<totfact> 0.42580204E+04</totfact>
</mgrwt>
</event>
<event>
 7    0  0.4707675E-002  0.4533875E+03  0.7546771E-02  0.1026717E+00
         21   -1    0    0  502  501  0.00000000000E+00  0.00000000000E+00  0.71025616055E+02  0.71025616055E+02  0.00000000000E+00 0.  1.
         21   -1    0    0  501  502 -0.00000000000E+00 -0.00000000000E+00 -0.72354268568E+03  0.72354268568E+03  0.00000000000E+00 0.  1.
      99926    2    1    2    0    0 -0.35527136788E-14 -0.71054273576E-14 -0.65251706962E+03  0.79456830173E+03  0.45338753839E+03 0.  0.
      99925    2    3    3    0    0  0.17741244371E+02  0.49225935268E+02 -0.23852497826E+03  0.35893668641E+03  0.26306545791E+03 0.  0.
         25    1    3    3    0    0 -0.17741244371E+02 -0.49225935268E+02 -0.41399209136E+03  0.43563161532E+03  0.12509000000E+03 0.  0.
         25    1    4    4    0    0 -0.20609761140E+02  0.15689970967E+02 -0.80225955339E+02  0.15084644329E+03  0.12509000000E+03 0.  0.
         25    1    4    4    0    0  0.38351005512E+02  0.33535964301E+02 -0.15829902292E+03  0.20809024312E+03  0.12509000000E+03 0.  0.
<mgrwt>
<rscale>  2 0.45338754E+03</rscale>
<asrwt>0</asrwt>
<pdfrwt beam="1">  1       21 0.10444943E-01 0.45338754E+03</pdfrwt>
<pdfrwt beam="2">  1       21 0.10640334E+00 0.45338754E+03</pdfrwt>
<totfact> 0.48641294E+04</totfact>
</mgrwt>
</event>
<event>
 7    0  0.4707675E-002  0.4563218E+03  0.7546771E-02  0.1025853E+00
         21   -1    0    0  502  501  0.00000000000E+00  0.00000000000E+00  0.83749463631E+02  0.83749463631E+02  0.00000000000E+00 0.  1.
         21   -1    0    0  501  502 -0.00000000000E+00 -0.00000000000E+00 -0.62158485246E+03  0.62158485246E+03  0.00000000000E+00 0.  1.
      99926    2    1    2    0    0  0.71054273576E-14  0.00000000000E+00 -0.53783538883E+03  0.70533431610E+03  0.45632180748E+03 0.  0.
      99925    2    3    3    0    0  0.63433535190E+02  0.24514723696E+02 -0.48045127010E+03  0.55182460876E+03  0.26277783549E+03 0.  0.
         25    1    4    4    0    0 -0.21537028303E+01  0.29662157269E+02 -0.25815103291E+03  0.28839893534E+03  0.12509000000E+03 0.  0.
         25    1    3    3    0    0 -0.63433535190E+02 -0.24514723696E+02 -0.57384118736E+02  0.15350970734E+03  0.12509000000E+03 0.  0.
         25    1    4    4    0    0  0.65587238020E+02 -0.51474335728E+01 -0.22230023718E+03  0.26342567342E+03  0.12509000000E+03 0.  0.
<mgrwt>
<rscale>  2 0.45632181E+03</rscale>
<asrwt>0</asrwt>
<pdfrwt beam="1">  1       21 0.12316097E-01 0.45632181E+03</pdfrwt>
<pdfrwt beam="2">  1       21 0.91409539E-01 0.45632181E+03</pdfrwt>
<totfact> 0.52070595E+04</totfact>
</mgrwt>
</event>
<event>
 7    0  0.4707675E-002  0.4566016E+03  0.7546771E-02  0.1025771E+00
         21   -1    0    0  502  501  0.00000000000E+00  0.00000000000E+00  0.17377650521E+04  0.17377650521E+04  0.00000000000E+00 0.  1.
         21   -1    0    0  501  502 -0.00000000000E+00 -0.00000000000E+00 -0.29993267580E+02  0.29993267580E+02  0.00000000000E+00 0.  1.
      99926    2    1    2    0    0 -0.14210854715E-13  0.00000000000E+00  0.17077717845E+04  0.17677583197E+04  0.45660158650E+03 0.  0.
      99925    2    3    3    0    0 -0.10619884330E+03 -0.40828880876E+02  0.11285077816E+04  0.11643186086E+04  0.26298824531E+03 0.  0.
         25    1    4    4    0    0 -0.33087860233E+02 -0.31049023758E+02  0.40235520141E+03  0.42378775887E+03  0.12509000000E+03 0.  0.
         25    1    4    4    0    0 -0.73110983069E+02 -0.97798571178E+01  0.72615258023E+03  0.74053084968E+03  0.12509000000E+03 0.  0.
         25    1    3    3    0    0  0.10619884330E+03  0.40828880876E+02  0.57926400289E+03  0.60343971114E+03  0.12509000000E+03 0.  0.
<mgrwt>
<rscale>  2 0.45660159E+03</rscale>
<asrwt>0</asrwt>
<pdfrwt beam="1">  1       21 0.25555362E+00 0.45660159E+03</pdfrwt>
<pdfrwt beam="2">  1       21 0.44107758E-02 0.45660159E+03</pdfrwt>
<totfact> 0.17666592E+04</totfact>
</mgrwt>
</event>
<event>
 7    0  0.4707675E-002  0.4504590E+03  0.7546771E-02  0.1027585E+00
         21   -1    0    0  502  501  0.00000000000E+00  0.00000000000E+00  0.93367142163E+02  0.93367142163E+02  0.00000000000E+00 0. -1.
         21   -1    0    0  501  502 -0.00000000000E+00 -0.00000000000E+00 -0.54332106735E+03  0.54332106735E+03  0.00000000000E+00 0. -1.
      99926    2    1    2    0    0  0.00000000000E+00  0.17763568394E-14 -0.44995392519E+03  0.63668820952E+03  0.45045903403E+03 0.  0.
      99925    2    3    3    0    0  0.10264587686E+03  0.13039552697E+02 -0.33216948298E+03  0.43612178935E+03  0.26298183160E+03 0.  0.
         25    1    4    4    0    0  0.48176921151E+02 -0.13629081695E+02 -0.21778875600E+03  0.25609806313E+03  0.12509000000E+03 0.  0.
         25    1    3    3    0    0 -0.10264587686E+03 -0.13039552697E+02 -0.11778444221E+03  0.20056642017E+03  0.12509000000E+03 0.  0.
         25    1    4    4    0    0  0.54468955714E+02  0.26668634392E+02 -0.11438072698E+03  0.18002372622E+03  0.12509000000E+03 0.  0.
<mgrwt>
<rscale>  2 0.45045903E+03</rscale>
<asrwt>0</asrwt>
<pdfrwt beam="1">  1       21 0.13730462E-01 0.45045903E+03</pdfrwt>
<pdfrwt beam="2">  1       21 0.79900155E-01 0.45045903E+03</pdfrwt>
<totfact> 0.58545054E+04</totfact>
</mgrwt>
</event>
<event>
 7    0  0.4707675E-002  0.4428188E+03  0.7546771E-02  0.1029885E+00
         21   -1    0    0  502  501  0.00000000000E+00  0.00000000000E+00  0.19211377379E+03  0.19211377379E+03  0.00000000000E+00 0.  1.
         21   -1    0    0  501  502 -0.00000000000E+00 -0.00000000000E+00 -0.25517238892E+03  0.25517238892E+03  0.00000000000E+00 0.  1.
      99926    2    1    2    0    0 -0.14210854715E-13 -0.35527136788E-14 -0.63058615130E+02  0.44728616271E+03  0.44281883701E+03 0.  0.
      99925    2    3    3    0    0 -0.97672008109E+02 -0.22225142401E+02 -0.24711436438E+02  0.28250815345E+03  0.26299510176E+03 0.  0.
         25    1    4    4    0    0 -0.47554756679E+02 -0.38213173427E+02 -0.42801659007E+02  0.14560628977E+03  0.12509000000E+03 0.  0.
         25    1    3    3    0    0  0.97672008109E+02  0.22225142401E+02 -0.38347178691E+02  0.16477800926E+03  0.12509000000E+03 0.  0.
         25    1    4    4    0    0 -0.50117251430E+02  0.15988031026E+02  0.18090222569E+02  0.13690186368E+03  0.12509000000E+03 0.  0.
<mgrwt>
<rscale>  2 0.44281884E+03</rscale>
<asrwt>0</asrwt>
<pdfrwt beam="1">  1       21 0.28252026E-01 0.44281884E+03</pdfrwt>
<pdfrwt beam="2">  1       21 0.37525351E-01 0.44281884E+03</pdfrwt>
<totfact> 0.76260345E+04</totfact>
</mgrwt>
</event>
<event>
 7    0  0.4707675E-002  0.4541629E+03  0.7546771E-02  0.1026488E+00
         21   -1    0    0  502  501  0.00000000000E+00  0.00000000000E+00  0.64983455726E+02  0.64983455726E+02  0.00000000000E+00 0.  1.
         21   -1    0    0  501  502 -0.00000000000E+00 -0.00000000000E+00 -0.79352485032E+03  0.79352485032E+03  0.00000000000E+00 0.  1.
      99926    2    1    2    0    0  0.00000000000E+00  0.00000000000E+00 -0.72854139460E+03  0.85850830605E+03  0.45416290900E+03 0.  0.
      99925    2    3    3    0    0  0.89788072075E+01 -0.83190180529E+02 -0.31693689981E+03  0.42025382137E+03  0.26298868948E+03 0.  0.
         25    1    4    4    0    0  0.15079462726E+02 -0.15553481630E+02 -0.10393126293E+03  0.16406863351E+03  0.12509000000E+03 0.  0.
         25    1    4    4    0    0 -0.61006555189E+01 -0.67636698898E+02 -0.21300563688E+03  0.25618518786E+03  0.12509000000E+03 0.  0.
         25    1    3    3    0    0 -0.89788072075E+01  0.83190180529E+02 -0.41160449479E+03  0.43825448468E+03  0.12509000000E+03 0.  0.
<mgrwt>
<rscale>  2 0.45416291E+03</rscale>
<asrwt>0</asrwt>
<pdfrwt beam="1">  1       21 0.95563912E-02 0.45416291E+03</pdfrwt>
<pdfrwt beam="2">  1       21 0.11669482E+00 0.45416291E+03</pdfrwt>
<totfact> 0.45358202E+04</totfact>
</mgrwt>
</event>
<event>
 7    0  0.4707675E-002  0.4542197E+03  0.7546771E-02  0.1026471E+00
         21   -1    0    0  502  501  0.00000000000E+00  0.00000000000E+00  0.21135609991E+04  0.21135609991E+04  0.00000000000E+00 0. -1.
         21   -1    0    0  501  502 -0.00000000000E+00 -0.00000000000E+00 -0.24403786628E+02  0.24403786628E+02  0.00000000000E+00 0. -1.
      99926    2    1    2    0    0  0.00000000000E+00  0.00000000000E+00  0.20891572125E+04  0.21379647857E+04  0.45421973382E+03 0.  0.
      99925    2    3    3    0    0 -0.24520228959E+02  0.10710337488E+03  0.14187855790E+04  0.14472274915E+04  0.26351948411E+03 0.  0.
         25    1    3    3    0    0  0.24520228959E+02 -0.10710337488E+03  0.67037163347E+03  0.69073729420E+03  0.12509000000E+03 0.  0.
         25    1    4    4    0    0 -0.17169835049E+02  0.25800748108E+02  0.49797185881E+03  0.51437725660E+03  0.12509000000E+03 0.  0.
         25    1    4    4    0    0 -0.73503939100E+01  0.81302626777E+02  0.92081372019E+03  0.93285023492E+03  0.12509000000E+03 0.  0.
<mgrwt>
<rscale>  2 0.45421973E+03</rscale>
<asrwt>0</asrwt>
<pdfrwt beam="1">  1       21 0.31081767E+00 0.45421973E+03</pdfrwt>
<pdfrwt beam="2">  1       21 0.35887936E-02 0.45421973E+03</pdfrwt>
<totfact> 0.11655718E+04</totfact>
</mgrwt>
</event>
<event>
 7    0  0.4707675E-002  0.4521199E+03  0.7546771E-02  0.1027092E+00
         21   -1    0    0  502  501  0.00000000000E+00  0.00000000000E+00  0.35702334287E+03  0.35702334287E+03  0.00000000000E+00 0. -1.
         21   -1    0    0  501  502 -0.00000000000E+00 -0.00000000000E+00 -0.14313656956E+03  0.14313656956E+03  0.00000000000E+00 0. -1.
      99926    2    1    2    0    0 -0.17763568394E-14  0.00000000000E+00  0.21388677330E+03  0.50015991243E+03  0.45211988035E+03 0.  0.
      99925    2    3    3    0    0 -0.74070552343E+01  0.10999499794E+03  0.13203547555E+03  0.31441571445E+03  0.26319215538E+03 0.  0.
         25    1    4    4    0    0  0.32532667260E+02  0.67889111806E+02  0.83734815341E+02  0.16830428795E+03  0.12509000000E+03 0.  0.
         25    1    3    3    0    0  0.74070552343E+01 -0.10999499794E+03  0.81851297759E+02  0.18574419798E+03  0.12509000000E+03 0.  0.
         25    1    4    4    0    0 -0.39939722495E+02  0.42105886131E+02  0.48300660205E+02  0.14611142651E+03  0.12509000000E+03 0.  0.
<mgrwt>
<rscale>  2 0.45211988E+03</rscale>
<asrwt>0</asrwt>
<pdfrwt beam="1">  1       21 0.52503433E-01 0.45211988E+03</pdfrwt>
<pdfrwt beam="2">  1       21 0.21049496E-01 0.45211988E+03</pdfrwt>
<totfact> 0.66772973E+04</totfact>
</mgrwt>
</event>
<event>
 7    0  0.4707675E-002  0.4584268E+03  0.7546771E-02  0.1025238E+00
         21   -1    0    0  502  501  0.00000000000E+00  0.00000000000E+00  0.12682836744E+03  0.12682836744E+03  0.00000000000E+00 0.  1.
         21   -1    0    0  501  502 -0.00000000000E+00 -0.00000000000E+00 -0.41425099303E+03  0.41425099303E+03  0.00000000000E+00 0.  1.
      99926    2    1    2    0    0  0.71054273576E-14  0.00000000000E+00 -0.28742262559E+03  0.54107936048E+03  0.45842677565E+03 0.  0.
      99925    2    3    3    0    0 -0.57100593299E+02  0.55567431175E+02 -0.28035030862E+03  0.39260127142E+03  0.26304228864E+03 0.  0.
         25    1    4    4    0    0 -0.48844209632E+02 -0.74655664622E+01 -0.14020926998E+03  0.19428751629E+03  0.12509000000E+03 0.  0.
         25    1    3    3    0    0  0.57100593299E+02 -0.55567431175E+02 -0.70723169676E+01  0.14847808906E+03  0.12509000000E+03 0.  0.
         25    1    4    4    0    0 -0.82563836672E+01  0.63032997637E+02 -0.14014103864E+03  0.19831375513E+03  0.12509000000E+03 0.  0.
<mgrwt>
<rscale>  2 0.45842678E+03</rscale>
<asrwt>0</asrwt>
<pdfrwt beam="1">  1       21 0.18651231E-01 0.45842678E+03</pdfrwt>
<pdfrwt beam="2">  1       21 0.60919263E-01 0.45842678E+03</pdfrwt>
<totfact> 0.60794355E+04</totfact>
</mgrwt>
</event>
<event>
 7    0  0.4707675E-002  0.4536122E+03  0.7546771E-02  0.1026650E+00
         21   -1    0    0  502  501  0.00000000000E+00  0.00000000000E+00  0.34662724655E+03  0.34662724655E+03  0.00000000000E+00 0. -1.
         21   -1    0    0  501  502 -0.00000000000E+00 -0.00000000000E+00 -0.14840440893E+03  0.14840440893E+03  0.00000000000E+00 0. -1.
      99926    2    1    2    0    0  0.00000000000E+00  0.00000000000E+00  0.19822283762E+03  0.49503165548E+03  0.45361222048E+03 0.  0.
      99925    2    3    3    0    0  0.70069205728E+02  0.37113832272E+02  0.39036960036E+02  0.27760400806E+03  0.26315959209E+03 0.  0.
         25    1    4    4    0    0  0.65093168625E+02  0.11925767723E+02  0.48398525581E+02  0.14956359823E+03  0.12509000000E+03 0.  0.
         25    1    4    4    0    0  0.49760371032E+01  0.25188064550E+02 -0.93615655445E+01  0.12804040983E+03  0.12509000000E+03 0.  0.
         25    1    3    3    0    0 -0.70069205728E+02 -0.37113832272E+02  0.15918587758E+03  0.21742764741E+03  0.12509000000E+03 0.  0.
<mgrwt>
<rscale>  2 0.45361222E+03</rscale>
<asrwt>0</asrwt>
<pdfrwt beam="1">  1       21 0.50974595E-01 0.45361222E+03</pdfrwt>
<pdfrwt beam="2">  1       21 0.21824178E-01 0.45361222E+03</pdfrwt>
<totfact> 0.66349077E+04</totfact>
</mgrwt>
</event>
<event>
 7    0  0.4707675E-002  0.4529912E+03  0.7546771E-02  0.1026834E+00
         21   -1    0    0  502  501  0.00000000000E+00  0.00000000000E+00  0.79190011673E+03  0.79190011673E+03  0.00000000000E+00 0. -1.
         21   -1    0    0  501  502 -0.00000000000E+00 -0.00000000000E+00 -0.64781230248E+02  0.64781230248E+02  0.00000000000E+00 0. -1.
      99926    2    1    2    0    0  0.00000000000E+00 -0.17763568394E-14  0.72711888648E+03  0.85668134698E+03  0.45299123080E+03 0.  0.
      99925    2    3    3    0    0  0.10193919047E+03  0.50246365994E+01  0.54192639581E+03  0.61099737878E+03  0.26309073127E+03 0.  0.
         25    1    4    4    0    0  0.44437762560E+02  0.36947222580E+02  0.31257492155E+03  0.34159976827E+03  0.12509000000E+03 0.  0.
         25    1    4    4    0    0  0.57501427910E+02 -0.31922585981E+02  0.22935147425E+03  0.26939761051E+03  0.12509000000E+03 0.  0.
         25    1    3    3    0    0 -0.10193919047E+03 -0.50246365994E+01  0.18519249068E+03  0.24568396820E+03  0.12509000000E+03 0.  0.
<mgrwt>
<rscale>  2 0.45299123E+03</rscale>
<asrwt>0</asrwt>
<pdfrwt beam="1">  1       21 0.11645589E+00 0.45299123E+03</pdfrwt>
<pdfrwt beam="2">  1       21 0.95266520E-02 0.45299123E+03</pdfrwt>
<totfact> 0.45860287E+04</totfact>
</mgrwt>
</event>
<event>
 7    0  0.4707675E-002  0.4608013E+03  0.7546771E-02  0.1024549E+00
         21   -1    0    0  502  501  0.00000000000E+00  0.00000000000E+00  0.57707232078E+02  0.57707232078E+02  0.00000000000E+00 0. -1.
         21   -1    0    0  501  502 -0.00000000000E+00 -0.00000000000E+00 -0.91989273077E+03  0.91989273077E+03  0.00000000000E+00 0. -1.
      99926    2    1    2    0    0  0.00000000000E+00  0.00000000000E+00 -0.86218549870E+03  0.97759996285E+03  0.46080131641E+03 0.  0.
      99925    2    3    3    0    0 -0.56996246552E+02 -0.10246842464E+03 -0.50338296902E+03  0.57993790334E+03  0.26303081201E+03 0.  0.
         25    1    4    4    0    0  0.10897070928E+01 -0.77412461743E+02 -0.27787684792E+03  0.31441521497E+03  0.12509000000E+03 0.  0.
         25    1    3    3    0    0  0.56996246552E+02  0.10246842464E+03 -0.35880252968E+03  0.39766205951E+03  0.12509000000E+03 0.  0.
         25    1    4    4    0    0 -0.58085953645E+02 -0.25055962901E+02 -0.22550612110E+03  0.26552268838E+03  0.12509000000E+03 0.  0.
<mgrwt>
<rscale>  2 0.46080132E+03</rscale>
<asrwt>0</asrwt>
<pdfrwt beam="1">  1       21 0.84863573E-02 0.46080132E+03</pdfrwt>
<pdfrwt beam="2">  1       21 0.13527835E+00 0.46080132E+03</pdfrwt>
<totfact> 0.38277267E+04</totfact>
</mgrwt>
</event>
<event>
 7    0  0.4707675E-002  0.4570821E+03  0.7546771E-02  0.1025631E+00
         21   -1    0    0  502  501  0.00000000000E+00  0.00000000000E+00  0.24323789066E+03  0.24323789066E+03  0.00000000000E+00 0.  1.
         21   -1    0    0  501  502 -0.00000000000E+00 -0.00000000000E+00 -0.21473225068E+03  0.21473225068E+03  0.00000000000E+00 0.  1.
      99926    2    1    2    0    0  0.00000000000E+00 -0.35527136788E-14  0.28505639972E+02  0.45797014134E+03  0.45708213578E+03 0.  0.
      99925    2    3    3    0    0 -0.35943497455E+02 -0.83476775527E+01  0.12712237712E+03  0.29446360424E+03  0.26303440217E+03 0.  0.
         25    1    4    4    0    0 -0.44817970073E+02 -0.32737962115E+02  0.52936337863E+02  0.14673168905E+03  0.12509000000E+03 0.  0.
         25    1    3    3    0    0  0.35943497455E+02  0.83476775527E+01 -0.98616737146E+02  0.16350653710E+03  0.12509000000E+03 0.  0.
         25    1    4    4    0    0  0.88744726173E+01  0.24390284562E+02  0.74186039254E+02  0.14773191519E+03  0.12509000000E+03 0.  0.
<mgrwt>
<rscale>  2 0.45708214E+03</rscale>
<asrwt>0</asrwt>
<pdfrwt beam="1">  1       21 0.35770278E-01 0.45708214E+03</pdfrwt>
<pdfrwt beam="2">  1       21 0.31578272E-01 0.45708214E+03</pdfrwt>
<totfact> 0.67205345E+04</totfact>
</mgrwt>
</event>
<event>
 7    0  0.4707675E-002  0.4437955E+03  0.7546771E-02  0.1029589E+00
         21   -1    0    0  502  501  0.00000000000E+00  0.00000000000E+00  0.38167501444E+02  0.38167501444E+02  0.00000000000E+00 0. -1.
         21   -1    0    0  501  502 -0.00000000000E+00 -0.00000000000E+00 -0.12900664975E+04  0.12900664975E+04  0.00000000000E+00 0. -1.
      99926    2    1    2    0    0  0.71054273576E-14  0.00000000000E+00 -0.12518989960E+04  0.13282339989E+04  0.44379551555E+03 0.  0.
      99925    2    3    3    0    0 -0.46576843552E+02 -0.90416588636E+02 -0.76218253908E+03  0.81266220163E+03  0.26296971160E+03 0.  0.
         25    1    4    4    0    0 -0.42047100604E+02 -0.31312209174E+02 -0.47291188861E+03  0.49197721045E+03  0.12509000000E+03 0.  0.
         25    1    4    4    0    0 -0.45297429475E+01 -0.59104379461E+02 -0.28927065047E+03  0.32068499118E+03  0.12509000000E+03 0.  0.
         25    1    3    3    0    0  0.46576843552E+02  0.90416588636E+02 -0.48971645694E+03  0.51557179728E+03  0.12509000000E+03 0.  0.
<mgrwt>
<rscale>  2 0.44379552E+03</rscale>
<asrwt>0</asrwt>
<pdfrwt beam="1">  1       21 0.56128692E-02 0.44379552E+03</pdfrwt>
<pdfrwt beam="2">  1       21 0.18971561E+00 0.44379552E+03</pdfrwt>
<totfact> 0.30912359E+04</totfact>
</mgrwt>
</event>
<event>
 7    0  0.4707675E-002  0.4580190E+03  0.7546771E-02  0.1025357E+00
         21   -1    0    0  502  501  0.00000000000E+00  0.00000000000E+00  0.23545446187E+03  0.23545446187E+03  0.00000000000E+00 0.  1.
         21   -1    0    0  501  502 -0.00000000000E+00 -0.00000000000E+00 -0.22274096268E+03  0.22274096268E+03  0.00000000000E+00 0.  1.
      99926    2    1    2    0    0  0.00000000000E+00  0.14210854715E-13  0.12713499193E+02  0.45819542455E+03  0.45801901054E+03 0.  0.
      99925    2    3    3    0    0  0.84751152554E+02  0.79175751899E+02  0.13537705059E+02  0.28760895099E+03  0.26283850875E+03 0.  0.
         25    1    4    4    0    0  0.80806585127E+02  0.26528724621E+02  0.11345192318E+01  0.15126887540E+03  0.12509000000E+03 0.  0.
         25    1    4    4    0    0  0.39445674267E+01  0.52647027278E+02  0.12403185828E+02  0.13634007559E+03  0.12509000000E+03 0.  0.
         25    1    3    3    0    0 -0.84751152554E+02 -0.79175751899E+02 -0.82420586621E+00  0.17058647357E+03  0.12509000000E+03 0.  0.
<mgrwt>
<rscale>  2 0.45801901E+03</rscale>
<asrwt>0</asrwt>
<pdfrwt beam="1">  1       21 0.34625656E-01 0.45801901E+03</pdfrwt>
<pdfrwt beam="2">  1       21 0.32756024E-01 0.45801901E+03</pdfrwt>
<totfact> 0.66691310E+04</totfact>
</mgrwt>
</event>
<event>
 6    0  0.4707675E-002  0.4542498E+03  0.7546771E-02  0.1026462E+00
         21   -1    0    0  502  501  0.00000000000E+00  0.00000000000E+00  0.40741242755E+03  0.40741242755E+03  0.00000000000E+00 0. -1.
         21   -1    0    0  501  502 -0.00000000000E+00 -0.00000000000E+00 -0.12661795137E+03  0.12661795137E+03  0.00000000000E+00 0. -1.
      99926    2    1    2    0    0  0.17763568394E-14  0.35527136788E-14  0.28079447618E+03  0.53403037893E+03  0.45424982968E+03 0.  0.
         25    1    3    3    0    0  0.31138974108E+02 -0.44354389738E+02  0.17822785535E+03  0.22438721915E+03  0.12509000000E+03 0.  0.
         25    1    3    3    0    0 -0.15286581684E+02  0.67342365866E+02  0.11138597659E+03  0.18117123861E+03  0.12509000000E+03 0.  0.
         25    1    3    3    0    0 -0.15852392424E+02 -0.22987976128E+02 -0.88193557522E+01  0.12847192117E+03  0.12509000000E+03 0.  0.
<mgrwt>
<rscale>  2 0.45424983E+03</rscale>
<asrwt>0</asrwt>
<pdfrwt beam="1">  1       21 0.59913592E-01 0.45424983E+03</pdfrwt>
<pdfrwt beam="2">  1       21 0.18620287E-01 0.45424983E+03</pdfrwt>
<totfact> 0.63309366E+04</totfact>
</mgrwt>
</event>
<event>
 7    0  0.4707675E-002  0.4577983E+03  0.7546771E-02  0.1025422E+00
         21   -1    0    0  502  501  0.00000000000E+00  0.00000000000E+00  0.97464386020E+02  0.97464386020E+02  0.00000000000E+00 0. -1.
         21   -1    0    0  501  502 -0.00000000000E+00 -0.00000000000E+00 -0.53757915587E+03  0.53757915587E+03  0.00000000000E+00 0. -1.
      99926    2    1    2    0    0  0.00000000000E+00  0.14210854715E-13 -0.44011476985E+03  0.63504354189E+03  0.45779830652E+03 0.  0.
      99925    2    3    3    0    0 -0.82036393915E+02  0.75006380343E+02 -0.23160319165E+03  0.36768514318E+03  0.26305208441E+03 0.  0.
         25    1    4    4    0    0 -0.60101325801E+02  0.76498077999E+02 -0.13338358802E+03  0.20712994702E+03  0.12509000000E+03 0.  0.
         25    1    4    4    0    0 -0.21935068114E+02 -0.14916976556E+01 -0.98219603631E+02  0.16055519616E+03  0.12509000000E+03 0.  0.
         25    1    3    3    0    0  0.82036393915E+02 -0.75006380343E+02 -0.20851157820E+03  0.26735839872E+03  0.12509000000E+03 0.  0.
<mgrwt>
<rscale>  2 0.45779831E+03</rscale>
<asrwt>0</asrwt>
<pdfrwt beam="1">  1       21 0.14332998E-01 0.45779831E+03</pdfrwt>
<pdfrwt beam="2">  1       21 0.79055758E-01 0.45779831E+03</pdfrwt>
<totfact> 0.55339028E+04</totfact>
</mgrwt>
</event>
<event>
 7    0  0.4707675E-002  0.4843123E+03  0.7546771E-02  0.1017957E+00
         21   -1    0    0  502  501  0.00000000000E+00  0.00000000000E+00  0.10682496388E+04  0.10682496388E+04  0.00000000000E+00 0. -1.
         21   -1    0    0  501  502 -0.00000000000E+00 -0.00000000000E+00 -0.54893158820E+02  0.54893158820E+02  0.00000000000E+00 0. -1.
      99926    2    1    2    0    0  0.00000000000E+00  0.00000000000E+00  0.10133564799E+04  0.11231427976E+04  0.48431228389E+03 0.  0.
      99925    2    3    3    0    0  0.40199388935E+02 -0.12957394824E+03  0.55378800828E+03  0.62790943120E+03  0.26302793909E+03 0.  0.
         25    1    3    3    0    0 -0.40199388935E+02  0.12957394824E+03  0.45956847167E+03  0.49523336639E+03  0.12509000000E+03 0.  0.
         25    1    4    4    0    0  0.24610142146E+02 -0.31467455717E+02  0.30740336926E+03  0.33427563387E+03  0.12509000000E+03 0.  0.
         25    1    4    4    0    0  0.15589246789E+02 -0.98106492523E+02  0.24638463903E+03  0.29363379734E+03  0.12509000000E+03 0.  0.
<mgrwt>
<rscale>  2 0.48431228E+03</rscale>
<asrwt>0</asrwt>
<pdfrwt beam="1">  1       21 0.15709552E+00 0.48431228E+03</pdfrwt>
<pdfrwt beam="2">  1       21 0.80725240E-02 0.48431228E+03</pdfrwt>
<totfact> 0.27779533E+04</totfact>
</mgrwt>
</event>
<event>
 7    0  0.4707675E-002  0.4566876E+03  0.7546771E-02  0.1025746E+00
         21   -1    0    0  502  501  0.00000000000E+00  0.00000000000E+00  0.13924850341E+03  0.13924850341E+03  0.00000000000E+00 0.  1.
         21   -1    0    0  501  502 -0.00000000000E+00 -0.00000000000E+00 -0.37444495121E+03  0.37444495121E+03  0.00000000000E+00 0.  1.
      99926    2    1    2    0    0 -0.35527136788E-14  0.14210854715E-13 -0.23519644779E+03  0.51369345462E+03  0.45668763533E+03 0.  0.
      99925    2    3    3    0    0 -0.27533807140E+02 -0.10096834881E+03 -0.20085504873E+03  0.34702144801E+03  0.26292283427E+03 0.  0.
         25    1    4    4    0    0  0.71220018723E+01 -0.12672071616E+02 -0.85633970032E+02  0.15228916322E+03  0.12509000000E+03 0.  0.
         25    1    4    4    0    0 -0.34655809013E+02 -0.88296277195E+02 -0.11522107870E+03  0.19473228480E+03  0.12509000000E+03 0.  0.
         25    1    3    3    0    0  0.27533807140E+02  0.10096834881E+03 -0.34341399060E+02  0.16667200661E+03  0.12509000000E+03 0.  0.
<mgrwt>
<rscale>  2 0.45668764E+03</rscale>
<asrwt>0</asrwt>
<pdfrwt beam="1">  1       21 0.20477722E-01 0.45668764E+03</pdfrwt>
<pdfrwt beam="2">  1       21 0.55065433E-01 0.45668764E+03</pdfrwt>
<totfact> 0.63464750E+04</totfact>
</mgrwt>
</event>
<event>
 7    0  0.4707675E-002  0.4574175E+03  0.7546771E-02  0.1025533E+00
         21   -1    0    0  502  501  0.00000000000E+00  0.00000000000E+00  0.53500896809E+02  0.53500896809E+02  0.00000000000E+00 0. -1.
         21   -1    0    0  501  502 -0.00000000000E+00 -0.00000000000E+00 -0.97769732914E+03  0.97769732914E+03  0.00000000000E+00 0. -1.
      99926    2    1    2    0    0  0.71054273576E-14  0.17763568394E-14 -0.92419643233E+03  0.10311982260E+04  0.45741746323E+03 0.  0.
      99925    2    3    3    0    0 -0.44206814607E+02 -0.12939921835E+02 -0.81888632303E+03  0.86131764655E+03  0.26300493187E+03 0.  0.
         25    1    4    4    0    0 -0.87910582167E+01  0.16773273626E+02 -0.49807868777E+03  0.51389542975E+03  0.12509000000E+03 0.  0.
         25    1    4    4    0    0 -0.35415756390E+02 -0.29713195461E+02 -0.32080763526E+03  0.34742221680E+03  0.12509000000E+03 0.  0.
         25    1    3    3    0    0  0.44206814607E+02  0.12939921835E+02 -0.10531010931E+03  0.16988057940E+03  0.12509000000E+03 0.  0.
<mgrwt>
<rscale>  2 0.45741746E+03</rscale>
<asrwt>0</asrwt>
<pdfrwt beam="1">  1       21 0.78677793E-02 0.45741746E+03</pdfrwt>
<pdfrwt beam="2">  1       21 0.14377901E+00 0.45741746E+03</pdfrwt>
<totfact> 0.37266638E+04</totfact>
</mgrwt>
</event>
<event>
 7    0  0.4707675E-002  0.4564356E+03  0.7546771E-02  0.1025820E+00
         21   -1    0    0  502  501  0.00000000000E+00  0.00000000000E+00  0.79370435760E+03  0.79370435760E+03  0.00000000000E+00 0.  1.
         21   -1    0    0  501  502 -0.00000000000E+00 -0.00000000000E+00 -0.65620608418E+02  0.65620608418E+02  0.00000000000E+00 0.  1.
      99926    2    1    2    0    0  0.00000000000E+00 -0.71054273576E-14  0.72808374918E+03  0.85932496602E+03  0.45643559392E+03 0.  0.
      99925    2    3    3    0    0  0.19097026418E+02 -0.31954724994E+02  0.25369866266E+03  0.36731427581E+03  0.26300373554E+03 0.  0.
         25    1    4    4    0    0  0.14297245175E+02  0.19795390391E+02  0.14925475260E+03  0.19626705779E+03  0.12509000000E+03 0.  0.
         25    1    4    4    0    0  0.47997812438E+01 -0.51750115385E+02  0.10444391006E+03  0.17104721802E+03  0.12509000000E+03 0.  0.
         25    1    3    3    0    0 -0.19097026418E+02  0.31954724994E+02  0.47438508652E+03  0.49201069021E+03  0.12509000000E+03 0.  0.
<mgrwt>
<rscale>  2 0.45643559E+03</rscale>
<asrwt>0</asrwt>
<pdfrwt beam="1">  1       21 0.11672122E+00 0.45643559E+03</pdfrwt>
<pdfrwt beam="2">  1       21 0.96500899E-02 0.45643559E+03</pdfrwt>
<totfact> 0.44521605E+04</totfact>
</mgrwt>
</event>
<event>
 6    0  0.4707675E-002  0.4564243E+03  0.7546771E-02  0.1025823E+00
         21   -1    0    0  502  501  0.00000000000E+00  0.00000000000E+00  0.25764549477E+03  0.25764549477E+03  0.00000000000E+00 0.  1.
         21   -1    0    0  501  502 -0.00000000000E+00 -0.00000000000E+00 -0.20214129151E+03  0.20214129151E+03  0.00000000000E+00 0.  1.
      99926    2    1    2    0    0 -0.17763568394E-14  0.00000000000E+00  0.55504203258E+02  0.45978678628E+03  0.45642433356E+03 0.  0.
         25    1    3    3    0    0  0.28011364008E+01 -0.86596243744E+02  0.33413412266E+02  0.15579062878E+03  0.12509000000E+03 0.  0.
         25    1    3    3    0    0  0.14697426757E+02  0.10694839295E+03  0.50825167970E+02  0.17287185690E+03  0.12509000000E+03 0.  0.
         25    1    3    3    0    0 -0.17498563158E+02 -0.20352149205E+02 -0.28734376978E+02  0.13112430061E+03  0.12509000000E+03 0.  0.
<mgrwt>
<rscale>  2 0.45642433E+03</rscale>
<asrwt>0</asrwt>
<pdfrwt beam="1">  1       21 0.37889043E-01 0.45642433E+03</pdfrwt>
<pdfrwt beam="2">  1       21 0.29726661E-01 0.45642433E+03</pdfrwt>
<totfact> 0.67426903E+04</totfact>
</mgrwt>
</event>
<event>
 7    0  0.4707675E-002  0.4559308E+03  0.7546771E-02  0.1025968E+00
         21   -1    0    0  502  501  0.00000000000E+00  0.00000000000E+00  0.21080751071E+03  0.21080751071E+03  0.00000000000E+00 0.  1.
         21   -1    0    0  501  502 -0.00000000000E+00 -0.00000000000E+00 -0.24651984179E+03  0.24651984179E+03  0.00000000000E+00 0.  1.
      99926    2    1    2    0    0  0.00000000000E+00  0.00000000000E+00 -0.35712331081E+02  0.45732735251E+03  0.45593084647E+03 0.  0.
      99925    2    3    3    0    0 -0.57414056054E+02  0.84273198672E+02  0.28001328747E+02  0.28381860807E+03  0.26338295698E+03 0.  0.
         25    1    3    3    0    0  0.57414056054E+02 -0.84273198672E+02 -0.63713659828E+02  0.17350874444E+03  0.12509000000E+03 0.  0.
         25    1    4    4    0    0 -0.26373038517E+02  0.38534109453E+02 -0.27330816800E+02  0.13628975163E+03  0.12509000000E+03 0.  0.
         25    1    4    4    0    0 -0.31041017536E+02  0.45739089219E+02  0.55332145547E+02  0.14752885644E+03  0.12509000000E+03 0.  0.
<mgrwt>
<rscale>  2 0.45593085E+03</rscale>
<asrwt>0</asrwt>
<pdfrwt beam="1">  1       21 0.31001105E-01 0.45593085E+03</pdfrwt>
<pdfrwt beam="2">  1       21 0.36252918E-01 0.45593085E+03</pdfrwt>
<totfact> 0.67870190E+04</totfact>
</mgrwt>
</event>
<event>
 7    0  0.4707675E-002  0.4637086E+03  0.7546771E-02  0.1023711E+00
         21   -1    0    0  502  501  0.00000000000E+00  0.00000000000E+00  0.61376165043E+03  0.61376165043E+03  0.00000000000E+00 0. -1.
         21   -1    0    0  501  502 -0.00000000000E+00 -0.00000000000E+00 -0.87585183975E+02  0.87585183975E+02  0.00000000000E+00 0. -1.
      99926    2    1    2    0    0  0.00000000000E+00 -0.17763568394E-14  0.52617646646E+03  0.70134683440E+03  0.46370864590E+03 0.  0.
      99925    2    3    3    0    0  0.18213471919E+02  0.83352766655E+01  0.50933437671E+03  0.57354866743E+03  0.26293603634E+03 0.  0.
         25    1    4    4    0    0  0.17531615718E+02 -0.19246372433E+02  0.32372956654E+03  0.34803178124E+03  0.12509000000E+03 0.  0.
         25    1    3    3    0    0 -0.18213471919E+02 -0.83352766655E+01  0.16842089741E+02  0.12779816698E+03  0.12509000000E+03 0.  0.
         25    1    4    4    0    0  0.68185620106E+00  0.27581649099E+02  0.18560481018E+03  0.22551688619E+03  0.12509000000E+03 0.  0.
<mgrwt>
<rscale>  2 0.46370865E+03</rscale>
<asrwt>0</asrwt>
<pdfrwt beam="1">  1       21 0.90259064E-01 0.46370865E+03</pdfrwt>
<pdfrwt beam="2">  1       21 0.12880174E-01 0.46370865E+03</pdfrwt>
<totfact> 0.49359078E+04</totfact>
</mgrwt>
</event>
<event>
 7    0  0.4707675E-002  0.4485413E+03  0.7546771E-02  0.1028158E+00
         21   -1    0    0  502  501  0.00000000000E+00  0.00000000000E+00  0.53399047214E+03  0.53399047214E+03  0.00000000000E+00 0.  1.
         21   -1    0    0  501  502 -0.00000000000E+00 -0.00000000000E+00 -0.94191417204E+02  0.94191417204E+02  0.00000000000E+00 0.  1.
      99926    2    1    2    0    0  0.00000000000E+00  0.00000000000E+00  0.43979905494E+03  0.62818188935E+03  0.44854127723E+03 0.  0.
      99925    2    3    3    0    0 -0.43318848881E+02  0.87476466436E+02  0.33870038870E+03  0.44004071027E+03  0.26341833373E+03 0.  0.
         25    1    4    4    0    0 -0.27697790477E+02  0.24311672251E+01  0.17058345130E+03  0.21335252548E+03  0.12509000000E+03 0.  0.
         25    1    4    4    0    0 -0.15621058405E+02  0.85045299211E+02  0.16811693739E+03  0.22668818479E+03  0.12509000000E+03 0.  0.
         25    1    3    3    0    0  0.43318848881E+02 -0.87476466436E+02  0.10109866624E+03  0.18814117908E+03  0.12509000000E+03 0.  0.
<mgrwt>
<rscale>  2 0.44854128E+03</rscale>
<asrwt>0</asrwt>
<pdfrwt beam="1">  1       21 0.78528010E-01 0.44854128E+03</pdfrwt>
<pdfrwt beam="2">  1       21 0.13851679E-01 0.44854128E+03</pdfrwt>
<totfact> 0.59976240E+04</totfact>
</mgrwt>
</event>
<event>
 7    0  0.4707675E-002  0.4541740E+03  0.7546771E-02  0.1026485E+00
         21   -1    0    0  502  501  0.00000000000E+00  0.00000000000E+00  0.62544501525E+03  0.62544501525E+03  0.00000000000E+00 0.  1.
         21   -1    0    0  501  502 -0.00000000000E+00 -0.00000000000E+00 -0.82450916413E+02  0.82450916413E+02  0.00000000000E+00 0.  1.
      99926    2    1    2    0    0 -0.71054273576E-14  0.71054273576E-14  0.54299409884E+03  0.70789593167E+03  0.45417404009E+03 0.  0.
      99925    2    3    3    0    0  0.62304668551E+02 -0.48498911283E+02  0.21722513981E+03  0.35011535801E+03  0.26298286338E+03 0.  0.
         25    1    3    3    0    0 -0.62304668551E+02  0.48498911283E+02  0.32576895903E+03  0.35778057365E+03  0.12509000000E+03 0.  0.
         25    1    4    4    0    0  0.20331800181E+02  0.15910071948E+02  0.98574980271E+02  0.16134139991E+03  0.12509000000E+03 0.  0.
         25    1    4    4    0    0  0.41972868370E+02 -0.64408983231E+02  0.11865015954E+03  0.18877395811E+03  0.12509000000E+03 0.  0.
<mgrwt>
<rscale>  2 0.45417404E+03</rscale>
<asrwt>0</asrwt>
<pdfrwt beam="1">  1       21 0.91977205E-01 0.45417404E+03</pdfrwt>
<pdfrwt beam="2">  1       21 0.12125135E-01 0.45417404E+03</pdfrwt>
<totfact> 0.52818779E+04</totfact>
</mgrwt>
</event>
<event>
 7    0  0.4707675E-002  0.4528857E+03  0.7546771E-02  0.1026865E+00
         21   -1    0    0  502  501  0.00000000000E+00  0.00000000000E+00  0.89943004314E+03  0.89943004314E+03  0.00000000000E+00 0.  1.
         21   -1    0    0  501  502 -0.00000000000E+00 -0.00000000000E+00 -0.57009838390E+02  0.57009838390E+02  0.00000000000E+00 0.  1.
      99926    2    1    2    0    0  0.71054273576E-14  0.00000000000E+00  0.84242020475E+03  0.95643988153E+03  0.45288568713E+03 0.  0.
      99925    2    3    3    0    0 -0.46276246645E+02  0.82863445965E+02  0.65349846192E+03  0.71078407620E+03  0.26295612098E+03 0.  0.
         25    1    3    3    0    0  0.46276246645E+02 -0.82863445965E+02  0.18892174283E+03  0.24565580533E+03  0.12509000000E+03 0.  0.
         25    1    4    4    0    0 -0.62639540067E+02  0.37621113866E+02  0.31482877552E+03  0.34655984502E+03  0.12509000000E+03 0.  0.
         25    1    4    4    0    0  0.16363293422E+02  0.45242332098E+02  0.33866968640E+03  0.36422423117E+03  0.12509000000E+03 0.  0.
<mgrwt>
<rscale>  2 0.45288569E+03</rscale>
<asrwt>0</asrwt>
<pdfrwt beam="1">  1       21 0.13226912E+00 0.45288569E+03</pdfrwt>
<pdfrwt beam="2">  1       21 0.83838003E-02 0.45288569E+03</pdfrwt>
<totfact> 0.41564054E+04</totfact>
</mgrwt>
</event>
<event>
 7    0  0.4707675E-002  0.4549540E+03  0.7546771E-02  0.1026255E+00
         21   -1    0    0  502  501  0.00000000000E+00  0.00000000000E+00  0.65385822820E+03  0.65385822820E+03  0.00000000000E+00 0. -1.
         21   -1    0    0  501  502 -0.00000000000E+00 -0.00000000000E+00 -0.79139148933E+02  0.79139148933E+02  0.00000000000E+00 0. -1.
      99926    2    1    2    0    0  0.00000000000E+00 -0.71054273576E-14  0.57471907927E+03  0.73299737714E+03  0.45495399197E+03 0.  0.
      99925    2    3    3    0    0 -0.86903293009E+02  0.42357284225E+02  0.26680378243E+03  0.38686783493E+03  0.26293752399E+03 0.  0.
         25    1    4    4    0    0 -0.58642390362E+02 -0.60935641975E+01  0.98422637757E+02  0.16973681155E+03  0.12509000000E+03 0.  0.
         25    1    3    3    0    0  0.86903293009E+02 -0.42357284225E+02  0.30791529684E+03  0.34612954221E+03  0.12509000000E+03 0.  0.
         25    1    4    4    0    0 -0.28260902647E+02  0.48450848423E+02  0.16838114468E+03  0.21713102338E+03  0.12509000000E+03 0.  0.
<mgrwt>
<rscale>  2 0.45495399E+03</rscale>
<asrwt>0</asrwt>
<pdfrwt beam="1">  1       21 0.96155619E-01 0.45495399E+03</pdfrwt>
<pdfrwt beam="2">  1       21 0.11638110E-01 0.45495399E+03</pdfrwt>
<totfact> 0.51166296E+04</totfact>
</mgrwt>
</event>
<event>
 7    0  0.4707675E-002  0.4519455E+03  0.7546771E-02  0.1027143E+00
         21   -1    0    0  502  501  0.00000000000E+00  0.00000000000E+00  0.36917223599E+03  0.36917223599E+03  0.00000000000E+00 0.  1.
         21   -1    0    0  501  502 -0.00000000000E+00 -0.00000000000E+00 -0.13831939871E+03  0.13831939871E+03  0.00000000000E+00 0.  1.
      99926    2    1    2    0    0  0.00000000000E+00  0.00000000000E+00  0.23085283728E+03  0.50749163469E+03  0.45194549097E+03 0.  0.
      99925    2    3    3    0    0 -0.22192254371E+02  0.55465063643E+02  0.24970755998E+03  0.36759210608E+03  0.26306125048E+03 0.  0.
         25    1    3    3    0    0  0.22192254371E+02 -0.55465063643E+02 -0.18854722700E+02  0.13989952862E+03  0.12509000000E+03 0.  0.
         25    1    4    4    0    0  0.11988854380E+02  0.21067207767E+02  0.16673624675E+03  0.20984766845E+03  0.12509000000E+03 0.  0.
         25    1    4    4    0    0 -0.34181108751E+02  0.34397855876E+02  0.82971313223E+02  0.15774443763E+03  0.12509000000E+03 0.  0.
<mgrwt>
<rscale>  2 0.45194549E+03</rscale>
<asrwt>0</asrwt>
<pdfrwt beam="1">  1       21 0.54290035E-01 0.45194549E+03</pdfrwt>
<pdfrwt beam="2">  1       21 0.20341088E-01 0.45194549E+03</pdfrwt>
<totfact> 0.66341203E+04</totfact>
</mgrwt>
</event>
<event>
 7    0  0.4707675E-002  0.4521939E+03  0.7546771E-02  0.1027070E+00
         21   -1    0    0  502  501  0.00000000000E+00  0.00000000000E+00  0.24435690766E+03  0.24435690766E+03  0.00000000000E+00 0. -1.
         21   -1    0    0  501  502 -0.00000000000E+00 -0.00000000000E+00 -0.20920149038E+03  0.20920149038E+03  0.00000000000E+00 0. -1.
      99926    2    1    2    0    0  0.00000000000E+00  0.71054273576E-14  0.35155417281E+02  0.45355839805E+03  0.45219389323E+03 0.  0.
      99925    2    3    3    0    0 -0.68630468801E+02 -0.47403366521E+02  0.95376138395E+02  0.29159771221E+03  0.26263167666E+03 0.  0.
         25    1    4    4    0    0 -0.22341377974E+02  0.14985868940E+02  0.36935673184E+02  0.13317456773E+03  0.12509000000E+03 0.  0.
         25    1    3    3    0    0  0.68630468801E+02  0.47403366521E+02 -0.60220721113E+02  0.16196068584E+03  0.12509000000E+03 0.  0.
         25    1    4    4    0    0 -0.46289090827E+02 -0.62389235461E+02  0.58440465210E+02  0.15842314447E+03  0.12509000000E+03 0.  0.
<mgrwt>
<rscale>  2 0.45219389E+03</rscale>
<asrwt>0</asrwt>
<pdfrwt beam="1">  1       21 0.35934840E-01 0.45219389E+03</pdfrwt>
<pdfrwt beam="2">  1       21 0.30764925E-01 0.45219389E+03</pdfrwt>
<totfact> 0.70210397E+04</totfact>
</mgrwt>
</event>
<event>
 7    0  0.4707675E-002  0.4486053E+03  0.7546771E-02  0.1028139E+00
         21   -1    0    0  502  501  0.00000000000E+00  0.00000000000E+00  0.19324588224E+03  0.19324588224E+03  0.00000000000E+00 0.  1.
         21   -1    0    0  501  502 -0.00000000000E+00 -0.00000000000E+00 -0.26035062979E+03  0.26035062979E+03  0.00000000000E+00 0.  1.
      99926    2    1    2    0    0  0.00000000000E+00 -0.28865798640E-14 -0.67104747553E+02  0.45359651203E+03  0.44860533722E+03 0.  0.
      99925    2    3    3    0    0  0.52692157118E+02 -0.11569332219E+01  0.51612624150E+02  0.27326591463E+03  0.26312087566E+03 0.  0.
         25    1    4    4    0    0  0.67624230019E+01 -0.34443456966E+02  0.37313419146E+02  0.13517352345E+03  0.12509000000E+03 0.  0.
         25    1    4    4    0    0  0.45929734116E+02  0.33286523744E+02  0.14299205004E+02  0.13809239118E+03  0.12509000000E+03 0.  0.
         25    1    3    3    0    0 -0.52692157118E+02  0.11569332219E+01 -0.11871737170E+03  0.18033059740E+03  0.12509000000E+03 0.  0.
<mgrwt>
<rscale>  2 0.44860534E+03</rscale>
<asrwt>0</asrwt>
<pdfrwt beam="1">  1       21 0.28418512E-01 0.44860534E+03</pdfrwt>
<pdfrwt beam="2">  1       21 0.38286857E-01 0.44860534E+03</pdfrwt>
<totfact> 0.72265239E+04</totfact>
</mgrwt>
</event>
<event>
 7    0  0.4707675E-002  0.4461195E+03  0.7546771E-02  0.1028886E+00
         21   -1    0    0  502  501  0.00000000000E+00  0.00000000000E+00  0.50146211687E+03  0.50146211687E+03  0.00000000000E+00 0. -1.
         21   -1    0    0  501  502 -0.00000000000E+00 -0.00000000000E+00 -0.99221164556E+02  0.99221164556E+02  0.00000000000E+00 0. -1.
      99926    2    1    2    0    0  0.00000000000E+00  0.00000000000E+00  0.40224095231E+03  0.60068328142E+03  0.44611951410E+03 0.  0.
      99925    2    3    3    0    0 -0.78622717405E+02  0.38046895184E+02  0.33297204106E+03  0.43312795297E+03  0.26286944591E+03 0.  0.
         25    1    4    4    0    0 -0.65928832469E+02  0.41363675576E+02  0.21535070336E+03  0.26092335684E+03  0.12509000000E+03 0.  0.
         25    1    3    3    0    0  0.78622717405E+02 -0.38046895184E+02  0.69268911248E+02  0.16755532845E+03  0.12509000000E+03 0.  0.
         25    1    4    4    0    0 -0.12693884936E+02 -0.33167803915E+01  0.11762133771E+03  0.17220459614E+03  0.12509000000E+03 0.  0.
<mgrwt>
<rscale>  2 0.44611951E+03</rscale>
<asrwt>0</asrwt>
<pdfrwt beam="1">  1       21 0.73744428E-01 0.44611951E+03</pdfrwt>
<pdfrwt beam="2">  1       21 0.14591348E-01 0.44611951E+03</pdfrwt>
<totfact> 0.62937185E+04</totfact>
</mgrwt>
</event>
<event>
 7    0  0.4707675E-002  0.4537551E+03  0.7546771E-02  0.1026608E+00
         21   -1    0    0  502  501  0.00000000000E+00  0.00000000000E+00  0.29041830135E+03  0.29041830135E+03  0.00000000000E+00 0.  1.
         21   -1    0    0  501  502 -0.00000000000E+00 -0.00000000000E+00 -0.17723893524E+03  0.17723893524E+03  0.00000000000E+00 0.  1.
      99926    2    1    2    0    0  0.00000000000E+00  0.00000000000E+00  0.11317936611E+03  0.46765723659E+03  0.45375513443E+03 0.  0.
      99925    2    3    3    0    0  0.73978709303E+02 -0.32025734118E+02 -0.86903100933E+01  0.27530801472E+03  0.26309786088E+03 0.  0.
         25    1    4    4    0    0  0.14147981798E+01 -0.94444131558E+01  0.17336433589E+02  0.12664619467E+03  0.12509000000E+03 0.  0.
         25    1    3    3    0    0 -0.73978709303E+02  0.32025734118E+02  0.12186967620E+03  0.19234922187E+03  0.12509000000E+03 0.  0.
         25    1    4    4    0    0  0.72563911123E+02 -0.22581320962E+02 -0.26026743682E+02  0.14866182005E+03  0.12509000000E+03 0.  0.
<mgrwt>
<rscale>  2 0.45375513E+03</rscale>
<asrwt>0</asrwt>
<pdfrwt beam="1">  1       21 0.42708574E-01 0.45375513E+03</pdfrwt>
<pdfrwt beam="2">  1       21 0.26064549E-01 0.45375513E+03</pdfrwt>
<totfact> 0.68282214E+04</totfact>
</mgrwt>
</event>
<event>
 7    0  0.4707675E-002  0.4491282E+03  0.7546771E-02  0.1027982E+00
         21   -1    0    0  502  501  0.00000000000E+00  0.00000000000E+00  0.11488405756E+03  0.11488405756E+03  0.00000000000E+00 0.  1.
         21   -1    0    0  501  502 -0.00000000000E+00 -0.00000000000E+00 -0.43895594344E+03  0.43895594344E+03  0.00000000000E+00 0.  1.
      99926    2    1    2    0    0 -0.71054273576E-14 -0.71054273576E-14 -0.32407188588E+03  0.55384000100E+03  0.44912822166E+03 0.  0.
      99925    2    3    3    0    0  0.57128026553E+02  0.43259723658E+02 -0.30372144167E+03  0.40824926026E+03  0.26322182521E+03 0.  0.
         25    1    4    4    0    0 -0.10532748289E+02  0.93839347138E+01 -0.15539854247E+03  0.19998802994E+03  0.12509000000E+03 0.  0.
         25    1    4    4    0    0  0.67660774842E+02  0.33875788944E+02 -0.14832289920E+03  0.20826123032E+03  0.12509000000E+03 0.  0.
         25    1    3    3    0    0 -0.57128026553E+02 -0.43259723658E+02 -0.20350444208E+02  0.14559074074E+03  0.12509000000E+03 0.  0.
<mgrwt>
<rscale>  2 0.44912822E+03</rscale>
<asrwt>0</asrwt>
<pdfrwt beam="1">  1       21 0.16894715E-01 0.44912822E+03</pdfrwt>
<pdfrwt beam="2">  1       21 0.64552343E-01 0.44912822E+03</pdfrwt>
<totfact> 0.64560576E+04</totfact>
</mgrwt>
</event>
<event>
 7    0  0.4707675E-002  0.4545993E+03  0.7546771E-02  0.1026359E+00
         21   -1    0    0  502  501  0.00000000000E+00  0.00000000000E+00  0.40439066298E+02  0.40439066298E+02  0.00000000000E+00 0. -1.
         21   -1    0    0  501  502 -0.00000000000E+00 -0.00000000000E+00 -0.12776045072E+04  0.12776045072E+04  0.00000000000E+00 0. -1.
      99926    2    1    2    0    0  0.00000000000E+00  0.00000000000E+00 -0.12371654409E+04  0.13180435735E+04  0.45459931090E+03 0.  0.
      99925    2    3    3    0    0 -0.87366677706E+02  0.67881272433E+02 -0.71447305818E+03  0.76932175091E+03  0.26295133019E+03 0.  0.
         25    1    3    3    0    0  0.87366677706E+02 -0.67881272433E+02 -0.52269238268E+03  0.54872182254E+03  0.12509000000E+03 0.  0.
         25    1    4    4    0    0 -0.39303279521E+02  0.31613916766E+02 -0.46094258311E+03  0.48027050767E+03  0.12509000000E+03 0.  0.
         25    1    4    4    0    0 -0.48063398185E+02  0.36267355667E+02 -0.25353047507E+03  0.28905124324E+03  0.12509000000E+03 0.  0.
<mgrwt>
<rscale>  2 0.45459931E+03</rscale>
<asrwt>0</asrwt>
<pdfrwt beam="1">  1       21 0.59469209E-02 0.45459931E+03</pdfrwt>
<pdfrwt beam="2">  1       21 0.18788303E+00 0.45459931E+03</pdfrwt>
<totfact> 0.28684416E+04</totfact>
</mgrwt>
</event>
<event>
 7    0  0.4707675E-002  0.4581640E+03  0.7546771E-02  0.1025315E+00
         21   -1    0    0  502  501  0.00000000000E+00  0.00000000000E+00  0.35693518636E+03  0.35693518636E+03  0.00000000000E+00 0.  1.
         21   -1    0    0  501  502 -0.00000000000E+00 -0.00000000000E+00 -0.14702548243E+03  0.14702548243E+03  0.00000000000E+00 0.  1.
      99926    2    1    2    0    0  0.35527136788E-14  0.00000000000E+00  0.20990970393E+03  0.50396066880E+03  0.45816402291E+03 0.  0.
      99925    2    3    3    0    0  0.23030956680E+02 -0.95687842534E+02  0.19956900731E+03  0.34445823533E+03  0.26293934479E+03 0.  0.
         25    1    4    4    0    0 -0.23766344126E+02 -0.59054701144E+02  0.12049599022E+03  0.18498402255E+03  0.12509000000E+03 0.  0.
         25    1    4    4    0    0  0.46797300806E+02 -0.36633141391E+02  0.79073017086E+02  0.15947421278E+03  0.12509000000E+03 0.  0.
         25    1    3    3    0    0 -0.23030956680E+02  0.95687842534E+02  0.10340696624E+02  0.15950243346E+03  0.12509000000E+03 0.  0.
<mgrwt>
<rscale>  2 0.45816402E+03</rscale>
<asrwt>0</asrwt>
<pdfrwt beam="1">  1       21 0.52490468E-01 0.45816402E+03</pdfrwt>
<pdfrwt beam="2">  1       21 0.21621395E-01 0.45816402E+03</pdfrwt>
<totfact> 0.63386317E+04</totfact>
</mgrwt>
</event>
<event>
 7    0  0.4707675E-002  0.4607885E+03  0.7546771E-02  0.1024553E+00
         21   -1    0    0  502  501  0.00000000000E+00  0.00000000000E+00  0.29666709976E+03  0.29666709976E+03  0.00000000000E+00 0.  1.
         21   -1    0    0  501  502 -0.00000000000E+00 -0.00000000000E+00 -0.17892621292E+03  0.17892621292E+03  0.00000000000E+00 0.  1.
      99926    2    1    2    0    0  0.14210854715E-13 -0.71054273576E-14  0.11774088684E+03  0.47559331268E+03  0.46078854438E+03 0.  0.
      99925    2    3    3    0    0  0.10229871868E+03 -0.59579937622E+02  0.79519884888E+02  0.29917576848E+03  0.26299796870E+03 0.  0.
         25    1    3    3    0    0 -0.10229871868E+03  0.59579937622E+02  0.38221001947E+02  0.17641754420E+03  0.12509000000E+03 0.  0.
         25    1    4    4    0    0  0.45983789506E+02 -0.51060015874E+02  0.49552888509E+01  0.14280650232E+03  0.12509000000E+03 0.  0.
         25    1    4    4    0    0  0.56314929179E+02 -0.85199217474E+01  0.74564596038E+02  0.15636926615E+03  0.12509000000E+03 0.  0.
<mgrwt>
<rscale>  2 0.46078854E+03</rscale>
<asrwt>0</asrwt>
<pdfrwt beam="1">  1       21 0.43627515E-01 0.46078854E+03</pdfrwt>
<pdfrwt beam="2">  1       21 0.26312678E-01 0.46078854E+03</pdfrwt>
<totfact> 0.64030577E+04</totfact>
</mgrwt>
</event>
<event>
 7    0  0.4707675E-002  0.4600547E+03  0.7546771E-02  0.1024765E+00
         21   -1    0    0  502  501  0.00000000000E+00  0.00000000000E+00  0.37691119579E+03  0.37691119579E+03  0.00000000000E+00 0.  1.
         21   -1    0    0  501  502 -0.00000000000E+00 -0.00000000000E+00 -0.14038475545E+03  0.14038475545E+03  0.00000000000E+00 0.  1.
      99926    2    1    2    0    0 -0.88817841970E-15  0.00000000000E+00  0.23652644034E+03  0.51729595125E+03  0.46005471870E+03 0.  0.
      99925    2    3    3    0    0  0.54030461857E+01  0.35600285366E+02  0.27434531408E+03  0.38174393711E+03  0.26299526410E+03 0.  0.
         25    1    3    3    0    0 -0.54030461857E+01 -0.35600285366E+02 -0.37818873734E+02  0.13555201414E+03  0.12509000000E+03 0.  0.
         25    1    4    4    0    0  0.19792685340E+02  0.53847857907E+02  0.12971175490E+03  0.18911369505E+03  0.12509000000E+03 0.  0.
         25    1    4    4    0    0 -0.14389639154E+02 -0.18247572541E+02  0.14463355917E+03  0.19263024206E+03  0.12509000000E+03 0.  0.
<mgrwt>
<rscale>  2 0.46005472E+03</rscale>
<asrwt>0</asrwt>
<pdfrwt beam="1">  1       21 0.55428117E-01 0.46005472E+03</pdfrwt>
<pdfrwt beam="2">  1       21 0.20644817E-01 0.46005472E+03</pdfrwt>
<totfact> 0.61565162E+04</totfact>
</mgrwt>
</event>
<event>
 7    0  0.4707675E-002  0.4510545E+03  0.7546771E-02  0.1027408E+00
         21   -1    0    0  502  501  0.00000000000E+00  0.00000000000E+00  0.71795597120E+02  0.71795597120E+02  0.00000000000E+00 0. -1.
         21   -1    0    0  501  502 -0.00000000000E+00 -0.00000000000E+00 -0.70843549994E+03  0.70843549994E+03  0.00000000000E+00 0. -1.
      99926    2    1    2    0    0  0.14210854715E-13  0.26645352591E-14 -0.63663990282E+03  0.78023109706E+03  0.45105454100E+03 0.  0.
      99925    2    3    3    0    0 -0.10911889404E+03  0.31770142217E+01 -0.40910177472E+03  0.49856083897E+03  0.26321402245E+03 0.  0.
         25    1    3    3    0    0  0.10911889404E+03 -0.31770142217E+01 -0.22753812811E+03  0.28167025810E+03  0.12509000000E+03 0.  0.
         25    1    4    4    0    0 -0.53587195012E+02 -0.37463509548E+02 -0.22464353857E+03  0.26530610535E+03  0.12509000000E+03 0.  0.
         25    1    4    4    0    0 -0.55531699026E+02  0.40640523770E+02 -0.18445823615E+03  0.23325473361E+03  0.12509000000E+03 0.  0.
<mgrwt>
<rscale>  2 0.45105454E+03</rscale>
<asrwt>0</asrwt>
<pdfrwt beam="1">  1       21 0.10558177E-01 0.45105454E+03</pdfrwt>
<pdfrwt beam="2">  1       21 0.10418168E+00 0.45105454E+03</pdfrwt>
<totfact> 0.50274878E+04</totfact>
</mgrwt>
</event>
<event>
 7    0  0.4707675E-002  0.4525326E+03  0.7546771E-02  0.1026969E+00
         21   -1    0    0  502  501  0.00000000000E+00  0.00000000000E+00  0.16164272527E+03  0.16164272527E+03  0.00000000000E+00 0. -1.
         21   -1    0    0  501  502 -0.00000000000E+00 -0.00000000000E+00 -0.31672593150E+03  0.31672593150E+03  0.00000000000E+00 0. -1.
      99926    2    1    2    0    0  0.17763568394E-14  0.35527136788E-14 -0.15508320623E+03  0.47836865677E+03  0.45253261863E+03 0.  0.
      99925    2    3    3    0    0  0.14418821271E+02  0.24067910462E+02 -0.21092315014E+03  0.33853742222E+03  0.26330940783E+03 0.  0.
         25    1    4    4    0    0  0.29202150547E+02 -0.28495990979E+01 -0.65310002056E+02  0.14413115652E+03  0.12509000000E+03 0.  0.
         25    1    3    3    0    0 -0.14418821271E+02 -0.24067910462E+02  0.55839943915E+02  0.13983123456E+03  0.12509000000E+03 0.  0.
         25    1    4    4    0    0 -0.14783329277E+02  0.26917509560E+02 -0.14561314809E+03  0.19440626569E+03  0.12509000000E+03 0.  0.
<mgrwt>
<rscale>  2 0.45253262E+03</rscale>
<asrwt>0</asrwt>
<pdfrwt beam="1">  1       21 0.23770989E-01 0.45253262E+03</pdfrwt>
<pdfrwt beam="2">  1       21 0.46577343E-01 0.45253262E+03</pdfrwt>
<totfact> 0.68143859E+04</totfact>
</mgrwt>
</event>
<event>
 7    0  0.4707675E-002  0.4588727E+03  0.7546771E-02  0.1025109E+00
         21   -1    0    0  502  501  0.00000000000E+00  0.00000000000E+00  0.65900749938E+02  0.65900749938E+02  0.00000000000E+00 0.  1.
         21   -1    0    0  501  502 -0.00000000000E+00 -0.00000000000E+00 -0.79879274171E+03  0.79879274171E+03  0.00000000000E+00 0.  1.
      99926    2    1    2    0    0  0.71054273576E-14 -0.17763568394E-14 -0.73289199177E+03  0.86469349164E+03  0.45887270881E+03 0.  0.
      99925    2    3    3    0    0 -0.47260829449E+02 -0.12659234869E+02 -0.26077341112E+03  0.37383984287E+03  0.26336213460E+03 0.  0.
         25    1    4    4    0    0 -0.25473428681E+02  0.34798630977E+02 -0.12921906131E+03  0.18494570607E+03  0.12509000000E+03 0.  0.
         25    1    3    3    0    0  0.47260829449E+02  0.12659234869E+02 -0.47211858064E+03  0.49085364878E+03  0.12509000000E+03 0.  0.
         25    1    4    4    0    0 -0.21787400768E+02 -0.47457865846E+02 -0.13155434981E+03  0.18889413680E+03  0.12509000000E+03 0.  0.
<mgrwt>
<rscale>  2 0.45887271E+03</rscale>
<asrwt>0</asrwt>
<pdfrwt beam="1">  1       21 0.96912875E-02 0.45887271E+03</pdfrwt>
<pdfrwt beam="2">  1       21 0.11746951E+00 0.45887271E+03</pdfrwt>
<totfact> 0.43454006E+04</totfact>
</mgrwt>
</event>
<event>
 7    0  0.4707675E-002  0.4463360E+03  0.7546771E-02  0.1028820E+00
         21   -1    0    0  502  501  0.00000000000E+00  0.00000000000E+00  0.10990386669E+03  0.10990386669E+03  0.00000000000E+00 0.  1.
         21   -1    0    0  501  502 -0.00000000000E+00 -0.00000000000E+00 -0.45315934000E+03  0.45315934000E+03  0.00000000000E+00 0.  1.
      99926    2    1    2    0    0  0.00000000000E+00  0.00000000000E+00 -0.34325547331E+03  0.56306320669E+03  0.44633603347E+03 0.  0.
      99925    2    3    3    0    0  0.90324444904E+02 -0.14739333058E+02 -0.15325787316E+03  0.31786461483E+03  0.26300985607E+03 0.  0.
         25    1    4    4    0    0  0.87793224678E+02 -0.41899030283E+01 -0.81569526114E+02  0.17328098937E+03  0.12509000000E+03 0.  0.
         25    1    3    3    0    0 -0.90324444904E+02  0.14739333058E+02 -0.18999760015E+03  0.24519859186E+03  0.12509000000E+03 0.  0.
         25    1    4    4    0    0  0.25312202256E+01 -0.10549430030E+02 -0.71688347043E+02  0.14458362546E+03  0.12509000000E+03 0.  0.
<mgrwt>
<rscale>  2 0.44633603E+03</rscale>
<asrwt>0</asrwt>
<pdfrwt beam="1">  1       21 0.16162333E-01 0.44633603E+03</pdfrwt>
<pdfrwt beam="2">  1       21 0.66641081E-01 0.44633603E+03</pdfrwt>
<totfact> 0.65377546E+04</totfact>
</mgrwt>
</event>
<event>
 7    0  0.4707675E-002  0.4576589E+03  0.7546771E-02  0.1025462E+00
         21   -1    0    0  502  501  0.00000000000E+00  0.00000000000E+00  0.14033309472E+03  0.14033309472E+03  0.00000000000E+00 0. -1.
         21   -1    0    0  501  502 -0.00000000000E+00 -0.00000000000E+00 -0.37313301578E+03  0.37313301578E+03  0.00000000000E+00 0. -1.
      99926    2    1    2    0    0  0.00000000000E+00  0.00000000000E+00 -0.23279992106E+03  0.51346611050E+03  0.45765887229E+03 0.  0.
      99925    2    3    3    0    0 -0.42913024763E+02  0.59187706473E+02 -0.24725873808E+03  0.36785952486E+03  0.26237193864E+03 0.  0.
         25    1    4    4    0    0 -0.25334818871E+02  0.56459821637E+01 -0.76861031178E+02  0.14909344847E+03  0.12509000000E+03 0.  0.
         25    1    4    4    0    0 -0.17578205892E+02  0.53541724309E+02 -0.17039770690E+03  0.21876607640E+03  0.12509000000E+03 0.  0.
         25    1    3    3    0    0  0.42913024763E+02 -0.59187706473E+02  0.14458817021E+02  0.14560658564E+03  0.12509000000E+03 0.  0.
<mgrwt>
<rscale>  2 0.45765887E+03</rscale>
<asrwt>0</asrwt>
<pdfrwt beam="1">  1       21 0.20637220E-01 0.45765887E+03</pdfrwt>
<pdfrwt beam="2">  1       21 0.54872502E-01 0.45765887E+03</pdfrwt>
<totfact> 0.62994860E+04</totfact>
</mgrwt>
</event>
<event>
 7    0  0.4707675E-002  0.4584641E+03  0.7546771E-02  0.1025228E+00
         21   -1    0    0  502  501  0.00000000000E+00  0.00000000000E+00  0.12449254169E+03  0.12449254169E+03  0.00000000000E+00 0. -1.
         21   -1    0    0  501  502 -0.00000000000E+00 -0.00000000000E+00 -0.42209226053E+03  0.42209226053E+03  0.00000000000E+00 0. -1.
      99926    2    1    2    0    0  0.00000000000E+00  0.88817841970E-15 -0.29759971884E+03  0.54658480223E+03  0.45846412441E+03 0.  0.
      99925    2    3    3    0    0  0.10144995708E+03  0.47598981574E+01 -0.11941241104E+03  0.30634955256E+03  0.26320329409E+03 0.  0.
         25    1    4    4    0    0  0.91791319165E+02  0.16653775238E+02 -0.63279983772E+02  0.16838901078E+03  0.12509000000E+03 0.  0.
         25    1    3    3    0    0 -0.10144995708E+03 -0.47598981574E+01 -0.17818730780E+03  0.24023524967E+03  0.12509000000E+03 0.  0.
         25    1    4    4    0    0  0.96586379159E+01 -0.11893877081E+02 -0.56132427268E+02  0.13796054178E+03  0.12509000000E+03 0.  0.
<mgrwt>
<rscale>  2 0.45846412E+03</rscale>
<asrwt>0</asrwt>
<pdfrwt beam="1">  1       21 0.18307727E-01 0.45846412E+03</pdfrwt>
<pdfrwt beam="2">  1       21 0.62072390E-01 0.45846412E+03</pdfrwt>
<totfact> 0.60419522E+04</totfact>
</mgrwt>
</event>
<event>
 7    0  0.4707675E-002  0.4518663E+03  0.7546771E-02  0.1027167E+00
         21   -1    0    0  502  501  0.00000000000E+00  0.00000000000E+00  0.73840743025E+03  0.73840743025E+03  0.00000000000E+00 0.  1.
         21   -1    0    0  501  502 -0.00000000000E+00 -0.00000000000E+00 -0.69129564768E+02  0.69129564768E+02  0.00000000000E+00 0.  1.
      99926    2    1    2    0    0  0.00000000000E+00  0.00000000000E+00  0.66927786548E+03  0.80753699502E+03  0.45186628232E+03 0.  0.
      99925    2    3    3    0    0 -0.42208508469E+02 -0.82097741419E+02  0.31492093427E+03  0.42057712613E+03  0.26303674049E+03 0.  0.
         25    1    4    4    0    0  0.14478178010E+02 -0.29675289282E+02  0.17501567796E+03  0.21764245005E+03  0.12509000000E+03 0.  0.
         25    1    4    4    0    0 -0.56686686479E+02 -0.52422452137E+02  0.13990525632E+03  0.20293467608E+03  0.12509000000E+03 0.  0.
         25    1    3    3    0    0  0.42208508469E+02  0.82097741419E+02  0.35435693121E+03  0.38695986889E+03  0.12509000000E+03 0.  0.
<mgrwt>
<rscale>  2 0.45186628E+03</rscale>
<asrwt>0</asrwt>
<pdfrwt beam="1">  1       21 0.10858932E+00 0.45186628E+03</pdfrwt>
<pdfrwt beam="2">  1       21 0.10166113E-01 0.45186628E+03</pdfrwt>
<totfact> 0.48586247E+04</totfact>
</mgrwt>
</event>
<event>
 7    0  0.4707675E-002  0.4570860E+03  0.7546771E-02  0.1025630E+00
         21   -1    0    0  502  501  0.00000000000E+00  0.00000000000E+00  0.11521606984E+03  0.11521606984E+03  0.00000000000E+00 0. -1.
         21   -1    0    0  501  502 -0.00000000000E+00 -0.00000000000E+00 -0.45333877100E+03  0.45333877100E+03  0.00000000000E+00 0. -1.
      99926    2    1    2    0    0  0.00000000000E+00  0.00000000000E+00 -0.33812270115E+03  0.56855484084E+03  0.45708603786E+03 0.  0.
      99925    2    3    3    0    0 -0.10178405473E+03  0.46434255555E+02 -0.18168326070E+03  0.33912742200E+03  0.26359527167E+03 0.  0.
         25    1    4    4    0    0 -0.66021436878E+02  0.53351935773E+02 -0.12849575725E+03  0.19840344480E+03  0.12509000000E+03 0.  0.
         25    1    4    4    0    0 -0.35762617848E+02 -0.69176802182E+01 -0.53187503446E+02  0.14072397720E+03  0.12509000000E+03 0.  0.
         25    1    3    3    0    0  0.10178405473E+03 -0.46434255555E+02 -0.15643944045E+03  0.22942741884E+03  0.12509000000E+03 0.  0.
<mgrwt>
<rscale>  2 0.45708604E+03</rscale>
<asrwt>0</asrwt>
<pdfrwt beam="1">  1       21 0.16943540E-01 0.45708604E+03</pdfrwt>
<pdfrwt beam="2">  1       21 0.66667466E-01 0.45708604E+03</pdfrwt>
<totfact> 0.59666379E+04</totfact>
</mgrwt>
</event>
<event>
 7    0  0.4707675E-002  0.4557913E+03  0.7546771E-02  0.1026009E+00
         21   -1    0    0  502  501  0.00000000000E+00  0.00000000000E+00  0.64838375070E+02  0.64838375070E+02  0.00000000000E+00 0.  1.
         21   -1    0    0  501  502 -0.00000000000E+00 -0.00000000000E+00 -0.80101360238E+03  0.80101360238E+03  0.00000000000E+00 0.  1.
      99926    2    1    2    0    0  0.88817841970E-15  0.00000000000E+00 -0.73617522731E+03  0.86585197745E+03  0.45579126971E+03 0.  0.
      99925    2    3    3    0    0  0.32569085679E+01 -0.10023915336E+03 -0.36030092142E+03  0.45721094029E+03  0.26299542701E+03 0.  0.
         25    1    3    3    0    0 -0.32569085679E+01  0.10023915336E+03 -0.37587430589E+03  0.40864103716E+03  0.12509000000E+03 0.  0.
         25    1    4    4    0    0  0.85069189763E+01 -0.51296913001E+02 -0.11590178323E+03  0.17828200249E+03  0.12509000000E+03 0.  0.
         25    1    4    4    0    0 -0.52500104085E+01 -0.48942240354E+02 -0.24439913818E+03  0.27892893780E+03  0.12509000000E+03 0.  0.
<mgrwt>
<rscale>  2 0.45579127E+03</rscale>
<asrwt>0</asrwt>
<pdfrwt beam="1">  1       21 0.95350555E-02 0.45579127E+03</pdfrwt>
<pdfrwt beam="2">  1       21 0.11779611E+00 0.45579127E+03</pdfrwt>
<totfact> 0.44461717E+04</totfact>
</mgrwt>
</event>
<event>
 7    0  0.4707675E-002  0.4551605E+03  0.7546771E-02  0.1026194E+00
         21   -1    0    0  502  501  0.00000000000E+00  0.00000000000E+00  0.25031386352E+03  0.25031386352E+03  0.00000000000E+00 0.  1.
         21   -1    0    0  501  502 -0.00000000000E+00 -0.00000000000E+00 -0.20691127228E+03  0.20691127228E+03  0.00000000000E+00 0.  1.
      99926    2    1    2    0    0  0.00000000000E+00  0.14210854715E-13  0.43402591242E+02  0.45722513580E+03  0.45516045509E+03 0.  0.
      99925    2    3    3    0    0 -0.60362982508E+02 -0.67929232890E+02  0.95363955302E+02  0.29411302161E+03  0.26296409484E+03 0.  0.
         25    1    4    4    0    0 -0.67000202682E+02 -0.42354214970E+02  0.32367698736E+02  0.15158523248E+03  0.12509000000E+03 0.  0.
         25    1    3    3    0    0  0.60362982508E+02  0.67929232890E+02 -0.51961364061E+02  0.16311211418E+03  0.12509000000E+03 0.  0.
         25    1    4    4    0    0  0.66372201738E+01 -0.25575017919E+02  0.62996256566E+02  0.14252778913E+03  0.12509000000E+03 0.  0.
<mgrwt>
<rscale>  2 0.45516046E+03</rscale>
<asrwt>0</asrwt>
<pdfrwt beam="1">  1       21 0.36810862E-01 0.45516046E+03</pdfrwt>
<pdfrwt beam="2">  1       21 0.30428128E-01 0.45516046E+03</pdfrwt>
<totfact> 0.68295619E+04</totfact>
</mgrwt>
</event>
<event>
 7    0  0.4707675E-002  0.4541035E+03  0.7546771E-02  0.1026505E+00
         21   -1    0    0  502  501  0.00000000000E+00  0.00000000000E+00  0.43723302233E+03  0.43723302233E+03  0.00000000000E+00 0. -1.
         21   -1    0    0  501  502 -0.00000000000E+00 -0.00000000000E+00 -0.11790622015E+03  0.11790622015E+03  0.00000000000E+00 0. -1.
      99926    2    1    2    0    0  0.00000000000E+00  0.44408920985E-15  0.31932680219E+03  0.55513924248E+03  0.45410348154E+03 0.  0.
      99925    2    3    3    0    0 -0.43611148513E+02  0.33708739529E+01  0.32724105104E+03  0.42238594308E+03  0.26345755703E+03 0.  0.
         25    1    3    3    0    0  0.43611148513E+02 -0.33708739529E+01 -0.79142488566E+01  0.13275329940E+03  0.12509000000E+03 0.  0.
         25    1    4    4    0    0 -0.25235361341E+02 -0.13128006447E+02  0.10335819676E+03  0.16474098747E+03  0.12509000000E+03 0.  0.
         25    1    4    4    0    0 -0.18375787172E+02  0.16498880400E+02  0.22388285429E+03  0.25764495561E+03  0.12509000000E+03 0.  0.
<mgrwt>
<rscale>  2 0.45410348E+03</rscale>
<asrwt>0</asrwt>
<pdfrwt beam="1">  1       21 0.64298973E-01 0.45410348E+03</pdfrwt>
<pdfrwt beam="2">  1       21 0.17339150E-01 0.45410348E+03</pdfrwt>
<totfact> 0.61966491E+04</totfact>
</mgrwt>
</event>
<event>
 7    0  0.4707675E-002  0.4523794E+03  0.7546771E-02  0.1027015E+00
         21   -1    0    0  502  501  0.00000000000E+00  0.00000000000E+00  0.13079165185E+03  0.13079165185E+03  0.00000000000E+00 0.  1.
         21   -1    0    0  501  502 -0.00000000000E+00 -0.00000000000E+00 -0.39116999135E+03  0.39116999135E+03  0.00000000000E+00 0.  1.
      99926    2    1    2    0    0  0.00000000000E+00  0.00000000000E+00 -0.26037833950E+03  0.52196164320E+03  0.45237935108E+03 0.  0.
      99925    2    3    3    0    0  0.12373151240E+01  0.10866114009E+03 -0.18891241742E+03  0.34150760353E+03  0.26292730459E+03 0.  0.
         25    1    3    3    0    0 -0.12373151240E+01 -0.10866114009E+03 -0.71465922086E+02  0.18045403967E+03  0.12509000000E+03 0.  0.
         25    1    4    4    0    0 -0.15642174401E+02  0.85702745795E+02 -0.12995989862E+03  0.20031655350E+03  0.12509000000E+03 0.  0.
         25    1    4    4    0    0  0.16879489525E+02  0.22958394290E+02 -0.58952518793E+02  0.14119105002E+03  0.12509000000E+03 0.  0.
<mgrwt>
<rscale>  2 0.45237935E+03</rscale>
<asrwt>0</asrwt>
<pdfrwt beam="1">  1       21 0.19234067E-01 0.45237935E+03</pdfrwt>
<pdfrwt beam="2">  1       21 0.57524998E-01 0.45237935E+03</pdfrwt>
<totfact> 0.65095841E+04</totfact>
</mgrwt>
</event>
<event>
 7    0  0.4707675E-002  0.4550222E+03  0.7546771E-02  0.1026235E+00
         21   -1    0    0  502  501  0.00000000000E+00  0.00000000000E+00  0.53470714582E+03  0.53470714582E+03  0.00000000000E+00 0.  1.
         21   -1    0    0  501  502 -0.00000000000E+00 -0.00000000000E+00 -0.96803102700E+02  0.96803102700E+02  0.00000000000E+00 0.  1.
      99926    2    1    2    0    0  0.00000000000E+00 -0.13322676296E-14  0.43790404312E+03  0.63151024852E+03  0.45502224452E+03 0.  0.
      99925    2    3    3    0    0  0.10064598800E+03 -0.38632040778E+01  0.34744763047E+03  0.44718876324E+03  0.26289426544E+03 0.  0.
         25    1    3    3    0    0 -0.10064598800E+03  0.38632040778E+01  0.90456412649E+02  0.18432148528E+03  0.12509000000E+03 0.  0.
         25    1    4    4    0    0  0.12441716580E+02  0.14523227190E+02  0.17374011958E+03  0.21493919534E+03  0.12509000000E+03 0.  0.
         25    1    4    4    0    0  0.88204271422E+02 -0.18386431267E+02  0.17370751089E+03  0.23224956790E+03  0.12509000000E+03 0.  0.
<mgrwt>
<rscale>  2 0.45502224E+03</rscale>
<asrwt>0</asrwt>
<pdfrwt beam="1">  1       21 0.78633403E-01 0.45502224E+03</pdfrwt>
<pdfrwt beam="2">  1       21 0.14235751E-01 0.45502224E+03</pdfrwt>
<totfact> 0.56769493E+04</totfact>
</mgrwt>
</event>
<event>
 7    0  0.4707675E-002  0.4548751E+03  0.7546771E-02  0.1026278E+00
         21   -1    0    0  502  501  0.00000000000E+00  0.00000000000E+00  0.16946141266E+04  0.16946141266E+04  0.00000000000E+00 0.  1.
         21   -1    0    0  501  502 -0.00000000000E+00 -0.00000000000E+00 -0.30524847409E+02  0.30524847409E+02  0.00000000000E+00 0.  1.
      99926    2    1    2    0    0  0.14210854715E-13  0.53290705182E-14  0.16640892792E+04  0.17251389740E+04  0.45487509332E+03 0.  0.
      99925    2    3    3    0    0 -0.10003412128E+03 -0.11185484118E+02  0.85183650288E+03  0.89716915499E+03  0.26297361951E+03 0.  0.
         25    1    4    4    0    0 -0.38586646799E+02 -0.38444556839E+02  0.48433761786E+03  0.50318719125E+03  0.12509000000E+03 0.  0.
         25    1    3    3    0    0  0.10003412128E+03  0.11185484118E+02  0.81225277628E+03  0.82796981898E+03  0.12509000000E+03 0.  0.
         25    1    4    4    0    0 -0.61447474477E+02  0.27259072721E+02  0.36749888501E+03  0.39398196374E+03  0.12509000000E+03 0.  0.
<mgrwt>
<rscale>  2 0.45487509E+03</rscale>
<asrwt>0</asrwt>
<pdfrwt beam="1">  1       21 0.24920790E+00 0.45487509E+03</pdfrwt>
<pdfrwt beam="2">  1       21 0.44889493E-02 0.45487509E+03</pdfrwt>
<totfact> 0.18761443E+04</totfact>
</mgrwt>
</event>
<event>
 7    0  0.4707675E-002  0.4528913E+03  0.7546771E-02  0.1026863E+00
         21   -1    0    0  502  501  0.00000000000E+00  0.00000000000E+00  0.12035453555E+04  0.12035453555E+04  0.00000000000E+00 0. -1.
         21   -1    0    0  501  502 -0.00000000000E+00 -0.00000000000E+00 -0.42605484084E+02  0.42605484084E+02  0.00000000000E+00 0. -1.
      99926    2    1    2    0    0  0.00000000000E+00  0.00000000000E+00  0.11609398714E+04  0.12461508396E+04  0.45289130037E+03 0.  0.
      99925    2    3    3    0    0 -0.24981625971E+02 -0.10627647514E+03  0.79582787909E+03  0.84506101692E+03  0.26242587215E+03 0.  0.
         25    1    4    4    0    0 -0.42939128646E+01 -0.13252654186E+02  0.31703955869E+03  0.34110945517E+03  0.12509000000E+03 0.  0.
         25    1    4    4    0    0 -0.20687713107E+02 -0.93023820953E+02  0.47878832040E+03  0.50395156175E+03  0.12509000000E+03 0.  0.
         25    1    3    3    0    0  0.24981625971E+02  0.10627647514E+03  0.36511199230E+03  0.40108982264E+03  0.12509000000E+03 0.  0.
<mgrwt>
<rscale>  2 0.45289130E+03</rscale>
<asrwt>0</asrwt>
<pdfrwt beam="1">  1       21 0.17699194E+00 0.45289130E+03</pdfrwt>
<pdfrwt beam="2">  1       21 0.62655132E-02 0.45289130E+03</pdfrwt>
<totfact> 0.31229056E+04</totfact>
</mgrwt>
</event>
<event>
 7    0  0.4707675E-002  0.4533156E+03  0.7546771E-02  0.1026738E+00
         21   -1    0    0  502  501  0.00000000000E+00  0.00000000000E+00  0.81416011387E+03  0.81416011387E+03  0.00000000000E+00 0. -1.
         21   -1    0    0  501  502 -0.00000000000E+00 -0.00000000000E+00 -0.63100326786E+02  0.63100326786E+02  0.00000000000E+00 0. -1.
      99926    2    1    2    0    0  0.14210854715E-13  0.00000000000E+00  0.75105978708E+03  0.87726044065E+03  0.45331564827E+03 0.  0.
      99925    2    3    3    0    0 -0.94442057350E+02 -0.35494287977E+02  0.56694187118E+03  0.63287128023E+03  0.26253347476E+03 0.  0.
         25    1    4    4    0    0 -0.29805694895E+02 -0.25181493845E+02  0.35309814365E+03  0.37662752718E+03  0.12509000000E+03 0.  0.
         25    1    4    4    0    0 -0.64636362455E+02 -0.10312794132E+02  0.21384372753E+03  0.25624375305E+03  0.12509000000E+03 0.  0.
         25    1    3    3    0    0  0.94442057350E+02  0.35494287977E+02  0.18411791590E+03  0.24438916042E+03  0.12509000000E+03 0.  0.
<mgrwt>
<rscale>  2 0.45331565E+03</rscale>
<asrwt>0</asrwt>
<pdfrwt beam="1">  1       21 0.11972942E+00 0.45331565E+03</pdfrwt>
<pdfrwt beam="2">  1       21 0.92794603E-02 0.45331565E+03</pdfrwt>
<totfact> 0.44819863E+04</totfact>
</mgrwt>
</event>
<event>
 6    0  0.4707675E-002  0.4583642E+03  0.7546771E-02  0.1025257E+00
         21   -1    0    0  502  501  0.00000000000E+00  0.00000000000E+00  0.20508839322E+03  0.20508839322E+03  0.00000000000E+00 0. -1.
         21   -1    0    0  501  502 -0.00000000000E+00 -0.00000000000E+00 -0.25610634563E+03  0.25610634563E+03  0.00000000000E+00 0. -1.
      99926    2    1    2    0    0  0.00000000000E+00 -0.14210854715E-13 -0.51017952416E+02  0.46119473885E+03  0.45836421727E+03 0.  0.
         25    1    3    3    0    0 -0.48302384221E+01 -0.73041353977E+02  0.15869446206E+02  0.14580026755E+03  0.12509000000E+03 0.  0.
         25    1    3    3    0    0  0.50897420388E+02  0.85155639382E+02 -0.84082384653E+02  0.18044219526E+03  0.12509000000E+03 0.  0.
         25    1    3    3    0    0 -0.46067181966E+02 -0.12114285404E+02  0.17194986031E+02  0.13495227605E+03  0.12509000000E+03 0.  0.
<mgrwt>
<rscale>  2 0.45836422E+03</rscale>
<asrwt>0</asrwt>
<pdfrwt beam="1">  1       21 0.30160058E-01 0.45836422E+03</pdfrwt>
<pdfrwt beam="2">  1       21 0.37662698E-01 0.45836422E+03</pdfrwt>
<totfact> 0.66296827E+04</totfact>
</mgrwt>
</event>
<event>
 7    0  0.4707675E-002  0.4543602E+03  0.7546771E-02  0.1026430E+00
         21   -1    0    0  502  501  0.00000000000E+00  0.00000000000E+00  0.37645455746E+02  0.37645455746E+02  0.00000000000E+00 0.  1.
         21   -1    0    0  501  502 -0.00000000000E+00 -0.00000000000E+00 -0.13709701950E+04  0.13709701950E+04  0.00000000000E+00 0.  1.
      99926    2    1    2    0    0 -0.12767564783E-14  0.00000000000E+00 -0.13333247393E+04  0.14086156508E+04  0.45436019987E+03 0.  0.
      99925    2    3    3    0    0  0.31239978959E+00 -0.82090573306E+02 -0.59809446404E+03  0.65831569372E+03  0.26253305481E+03 0.  0.
         25    1    4    4    0    0 -0.25094730598E+02 -0.66652015245E+02 -0.36024999633E+03  0.38794304298E+03  0.12509000000E+03 0.  0.
         25    1    4    4    0    0  0.25407130387E+02 -0.15438558061E+02 -0.23784446771E+03  0.27037265074E+03  0.12509000000E+03 0.  0.
         25    1    3    3    0    0 -0.31239978959E+00  0.82090573306E+02 -0.73523027526E+03  0.75029995707E+03  0.12509000000E+03 0.  0.
<mgrwt>
<rscale>  2 0.45436020E+03</rscale>
<asrwt>0</asrwt>
<pdfrwt beam="1">  1       21 0.55360969E-02 0.45436020E+03</pdfrwt>
<pdfrwt beam="2">  1       21 0.20161325E+00 0.45436020E+03</pdfrwt>
<totfact> 0.26233503E+04</totfact>
</mgrwt>
</event>
<event>
 7    0  0.4707675E-002  0.4561529E+03  0.7546771E-02  0.1025903E+00
         21   -1    0    0  502  501  0.00000000000E+00  0.00000000000E+00  0.12978149488E+03  0.12978149488E+03  0.00000000000E+00 0.  1.
         21   -1    0    0  501  502 -0.00000000000E+00 -0.00000000000E+00 -0.40081885411E+03  0.40081885411E+03  0.00000000000E+00 0.  1.
      99926    2    1    2    0    0  0.00000000000E+00 -0.14210854715E-13 -0.27103735923E+03  0.53060034899E+03  0.45615291323E+03 0.  0.
      99925    2    3    3    0    0  0.44468245880E+02 -0.83627193502E+02 -0.24481762622E+03  0.37152201959E+03  0.26291064746E+03 0.  0.
         25    1    3    3    0    0 -0.44468245880E+02  0.83627193502E+02 -0.26219733008E+02  0.15907832940E+03  0.12509000000E+03 0.  0.
         25    1    4    4    0    0  0.20092799763E+02 -0.71453659835E+01 -0.82088957460E+02  0.15113200156E+03  0.12509000000E+03 0.  0.
         25    1    4    4    0    0  0.24375446117E+02 -0.76481827519E+02 -0.16272866876E+03  0.22039001804E+03  0.12509000000E+03 0.  0.
<mgrwt>
<rscale>  2 0.45615291E+03</rscale>
<asrwt>0</asrwt>
<pdfrwt beam="1">  1       21 0.19085514E-01 0.45615291E+03</pdfrwt>
<pdfrwt beam="2">  1       21 0.58943950E-01 0.45615291E+03</pdfrwt>
<totfact> 0.62591984E+04</totfact>
</mgrwt>
</event>
<event>
 7    0  0.4707675E-002  0.4539311E+03  0.7546771E-02  0.1026556E+00
         21   -1    0    0  502  501  0.00000000000E+00  0.00000000000E+00  0.27387410513E+03  0.27387410513E+03  0.00000000000E+00 0.  1.
         21   -1    0    0  501  502 -0.00000000000E+00 -0.00000000000E+00 -0.18809141643E+03  0.18809141643E+03  0.00000000000E+00 0.  1.
      99926    2    1    2    0    0 -0.35527136788E-14  0.00000000000E+00  0.85782688693E+02  0.46196552156E+03  0.45393113292E+03 0.  0.
      99925    2    3    3    0    0  0.21614194158E+02  0.10801822409E+03  0.75668955935E+02  0.29497778005E+03  0.26296575767E+03 0.  0.
         25    1    4    4    0    0 -0.28109167553E+02  0.40108701848E+02  0.35899646684E+02  0.13905080365E+03  0.12509000000E+03 0.  0.
         25    1    3    3    0    0 -0.21614194158E+02 -0.10801822409E+03  0.10113732758E+02  0.16698774151E+03  0.12509000000E+03 0.  0.
         25    1    4    4    0    0  0.49723361711E+02  0.67909522238E+02  0.39769309251E+02  0.15592697640E+03  0.12509000000E+03 0.  0.
<mgrwt>
<rscale>  2 0.45393113E+03</rscale>
<asrwt>0</asrwt>
<pdfrwt beam="1">  1       21 0.40275604E-01 0.45393113E+03</pdfrwt>
<pdfrwt beam="2">  1       21 0.27660502E-01 0.45393113E+03</pdfrwt>
<totfact> 0.68617186E+04</totfact>
</mgrwt>
</event>
<event>
 7    0  0.4707675E-002  0.4298069E+03  0.7546771E-02  0.1033921E+00
         21   -1    0    0  502  501  0.00000000000E+00  0.00000000000E+00  0.98482340664E+02  0.98482340664E+02  0.00000000000E+00 0.  1.
         21   -1    0    0  501  502 -0.00000000000E+00 -0.00000000000E+00 -0.46895200787E+03  0.46895200787E+03  0.00000000000E+00 0.  1.
      99926    2    1    2    0    0 -0.35527136788E-14  0.00000000000E+00 -0.37046966721E+03  0.56743434854E+03  0.42980689336E+03 0.  0.
      99925    2    3    3    0    0  0.30252896065E+02 -0.78343404526E+02 -0.20654753094E+03  0.34478911142E+03  0.26299186691E+03 0.  0.
         25    1    4    4    0    0  0.42735416633E+01 -0.24129538656E+02 -0.14472643404E+03  0.19285680337E+03  0.12509000000E+03 0.  0.
         25    1    3    3    0    0 -0.30252896065E+02  0.78343404526E+02 -0.16392213627E+03  0.22264523712E+03  0.12509000000E+03 0.  0.
         25    1    4    4    0    0  0.25979354402E+02 -0.54213865870E+02 -0.61821096896E+02  0.15193230805E+03  0.12509000000E+03 0.  0.
<mgrwt>
<rscale>  2 0.42980689E+03</rscale>
<asrwt>0</asrwt>
<pdfrwt beam="1">  1       21 0.14482697E-01 0.42980689E+03</pdfrwt>
<pdfrwt beam="2">  1       21 0.68963532E-01 0.42980689E+03</pdfrwt>
<totfact> 0.74498076E+04</totfact>
</mgrwt>
</event>
<event>
 7    0  0.4707675E-002  0.4532921E+03  0.7546771E-02  0.1026745E+00
         21   -1    0    0  502  501  0.00000000000E+00  0.00000000000E+00  0.72153649331E+02  0.72153649331E+02  0.00000000000E+00 0. -1.
         21   -1    0    0  501  502 -0.00000000000E+00 -0.00000000000E+00 -0.71193111612E+03  0.71193111612E+03  0.00000000000E+00 0. -1.
      99926    2    1    2    0    0  0.00000000000E+00  0.71054273576E-14 -0.63977746679E+03  0.78408476546E+03  0.45329208288E+03 0.  0.
      99925    2    3    3    0    0 -0.82595958416E+02  0.60272043042E+02 -0.32564882046E+03  0.43084387588E+03  0.26291534683E+03 0.  0.
         25    1    4    4    0    0 -0.44123248790E+02  0.66280400605E+02 -0.20294469052E+03  0.25134440136E+03  0.12509000000E+03 0.  0.
         25    1    4    4    0    0 -0.38472709626E+02 -0.60083575632E+01 -0.12270412994E+03  0.17949947451E+03  0.12509000000E+03 0.  0.
         25    1    3    3    0    0  0.82595958416E+02 -0.60272043042E+02 -0.31412864634E+03  0.35324088958E+03  0.12509000000E+03 0.  0.
<mgrwt>
<rscale>  2 0.45329208E+03</rscale>
<asrwt>0</asrwt>
<pdfrwt beam="1">  1       21 0.10610830E-01 0.45329208E+03</pdfrwt>
<pdfrwt beam="2">  1       21 0.10469576E+00 0.45329208E+03</pdfrwt>
<totfact> 0.49200516E+04</totfact>
</mgrwt>
</event>
<event>
 7    0  0.4707675E-002  0.4411681E+03  0.7546771E-02  0.1030389E+00
         21   -1    0    0  502  501  0.00000000000E+00  0.00000000000E+00  0.63821622527E+02  0.63821622527E+02  0.00000000000E+00 0.  1.
         21   -1    0    0  501  502 -0.00000000000E+00 -0.00000000000E+00 -0.76239550758E+03  0.76239550758E+03  0.00000000000E+00 0.  1.
      99926    2    1    2    0    0 -0.71054273576E-14  0.00000000000E+00 -0.69857388505E+03  0.82621713010E+03  0.44116807818E+03 0.  0.
      99925    2    3    3    0    0 -0.35610929687E+02 -0.92480703282E+02 -0.46359026080E+03  0.54216496842E+03  0.26307053100E+03 0.  0.
         25    1    4    4    0    0 -0.47532871233E+02 -0.76362607024E+02 -0.26797901388E+03  0.30911305631E+03  0.12509000000E+03 0.  0.
         25    1    3    3    0    0  0.35610929687E+02  0.92480703282E+02 -0.23498362425E+03  0.28405216169E+03  0.12509000000E+03 0.  0.
         25    1    4    4    0    0  0.11921941546E+02 -0.16118096258E+02 -0.19561124691E+03  0.23305191211E+03  0.12509000000E+03 0.  0.
<mgrwt>
<rscale>  2 0.44116808E+03</rscale>
<asrwt>0</asrwt>
<pdfrwt beam="1">  1       21 0.93855334E-02 0.44116808E+03</pdfrwt>
<pdfrwt beam="2">  1       21 0.11211698E+00 0.44116808E+03</pdfrwt>
<totfact> 0.51933755E+04</totfact>
</mgrwt>
</event>
<event>
 7    0  0.4707675E-002  0.4529100E+03  0.7546771E-02  0.1026858E+00
         21   -1    0    0  502  501  0.00000000000E+00  0.00000000000E+00  0.10041734629E+04  0.10041734629E+04  0.00000000000E+00 0. -1.
         21   -1    0    0  501  502 -0.00000000000E+00 -0.00000000000E+00 -0.51068727413E+02  0.51068727413E+02  0.00000000000E+00 0. -1.
      99926    2    1    2    0    0  0.00000000000E+00  0.88817841970E-15  0.95310473546E+03  0.10552421903E+04  0.45290997273E+03 0.  0.
      99925    2    3    3    0    0 -0.10796533684E+03  0.72615347525E+01  0.66182025117E+03  0.72027442656E+03  0.26283066955E+03 0.  0.
         25    1    4    4    0    0 -0.94850145324E+02  0.16591981638E+02  0.38296784632E+03  0.41422665696E+03  0.12509000000E+03 0.  0.
         25    1    4    4    0    0 -0.13115191511E+02 -0.93304468854E+01  0.27885240485E+03  0.30604776960E+03  0.12509000000E+03 0.  0.
         25    1    3    3    0    0  0.10796533684E+03 -0.72615347525E+01  0.29128448429E+03  0.33496776372E+03  0.12509000000E+03 0.  0.
<mgrwt>
<rscale>  2 0.45290997E+03</rscale>
<asrwt>0</asrwt>
<pdfrwt beam="1">  1       21 0.14767256E+00 0.45290997E+03</pdfrwt>
<pdfrwt beam="2">  1       21 0.75101076E-02 0.45290997E+03</pdfrwt>
<totfact> 0.37696798E+04</totfact>
</mgrwt>
</event>
<event>
 7    0  0.4707675E-002  0.4494991E+03  0.7546771E-02  0.1027872E+00
         21   -1    0    0  502  501  0.00000000000E+00  0.00000000000E+00  0.16826103495E+03  0.16826103495E+03  0.00000000000E+00 0. -1.
         21   -1    0    0  501  502 -0.00000000000E+00 -0.00000000000E+00 -0.30020236775E+03  0.30020236775E+03  0.00000000000E+00 0. -1.
      99926    2    1    2    0    0 -0.35527136788E-14  0.00000000000E+00 -0.13194133279E+03  0.46846340270E+03  0.44949910386E+03 0.  0.
      99925    2    3    3    0    0  0.24217616044E+02  0.97599247834E+02 -0.12722598653E+03  0.30789613114E+03  0.26172785449E+03 0.  0.
         25    1    4    4    0    0  0.43447497588E+02  0.48838350392E+02 -0.40215247501E+02  0.14675709096E+03  0.12509000000E+03 0.  0.
         25    1    4    4    0    0 -0.19229881545E+02  0.48760897443E+02 -0.87010739029E+02  0.16113904018E+03  0.12509000000E+03 0.  0.
         25    1    3    3    0    0 -0.24217616044E+02 -0.97599247834E+02 -0.47153462644E+01  0.16056727156E+03  0.12509000000E+03 0.  0.
<mgrwt>
<rscale>  2 0.44949910E+03</rscale>
<asrwt>0</asrwt>
<pdfrwt beam="1">  1       21 0.24744270E-01 0.44949910E+03</pdfrwt>
<pdfrwt beam="2">  1       21 0.44147407E-01 0.44949910E+03</pdfrwt>
<totfact> 0.70580656E+04</totfact>
</mgrwt>
</event>
<event>
 7    0  0.4707675E-002  0.4501169E+03  0.7546771E-02  0.1027687E+00
         21   -1    0    0  502  501  0.00000000000E+00  0.00000000000E+00  0.11915663460E+03  0.11915663460E+03  0.00000000000E+00 0.  1.
         21   -1    0    0  501  502 -0.00000000000E+00 -0.00000000000E+00 -0.42508176626E+03  0.42508176626E+03  0.00000000000E+00 0.  1.
      99926    2    1    2    0    0  0.00000000000E+00  0.00000000000E+00 -0.30592513166E+03  0.54423840086E+03  0.45011693012E+03 0.  0.
      99925    2    3    3    0    0 -0.16204274808E+02  0.35498689290E+02 -0.31582293392E+03  0.41282983929E+03  0.26298595999E+03 0.  0.
         25    1    3    3    0    0  0.16204274808E+02 -0.35498689290E+02  0.98978022600E+01  0.13140856157E+03  0.12509000000E+03 0.  0.
         25    1    4    4    0    0 -0.23180327631E+02  0.19791912060E+02 -0.10096265817E+03  0.16361544492E+03  0.12509000000E+03 0.  0.
         25    1    4    4    0    0  0.69760528231E+01  0.15706777231E+02 -0.21486027575E+03  0.24921439437E+03  0.12509000000E+03 0.  0.
<mgrwt>
<rscale>  2 0.45011693E+03</rscale>
<asrwt>0</asrwt>
<pdfrwt beam="1">  1       21 0.17523034E-01 0.45011693E+03</pdfrwt>
<pdfrwt beam="2">  1       21 0.62512025E-01 0.45011693E+03</pdfrwt>
<totfact> 0.64713345E+04</totfact>
</mgrwt>
</event>
<event>
 7    0  0.4707675E-002  0.4721957E+03  0.7546771E-02  0.1021302E+00
         21   -1    0    0  502  501  0.00000000000E+00  0.00000000000E+00  0.90057895824E+02  0.90057895824E+02  0.00000000000E+00 0. -1.
         21   -1    0    0  501  502 -0.00000000000E+00 -0.00000000000E+00 -0.61895943100E+03  0.61895943100E+03  0.00000000000E+00 0. -1.
      99926    2    1    2    0    0  0.00000000000E+00 -0.14210854715E-13 -0.52890153517E+03  0.70901732682E+03  0.47219565418E+03 0.  0.
      99925    2    3    3    0    0  0.74669861625E+02  0.72930592804E+02 -0.44092696085E+03  0.52386470483E+03  0.26291288398E+03 0.  0.
         25    1    4    4    0    0  0.22065457904E+02  0.67601278957E+02 -0.26583278470E+03  0.30227701678E+03  0.12509000000E+03 0.  0.
         25    1    4    4    0    0  0.52604403721E+02  0.53293138472E+01 -0.17509417615E+03  0.22158768805E+03  0.12509000000E+03 0.  0.
         25    1    3    3    0    0 -0.74669861625E+02 -0.72930592804E+02 -0.87974574323E+02  0.18515262199E+03  0.12509000000E+03 0.  0.
<mgrwt>
<rscale>  2 0.47219565E+03</rscale>
<asrwt>0</asrwt>
<pdfrwt beam="1">  1       21 0.13243808E-01 0.47219565E+03</pdfrwt>
<pdfrwt beam="2">  1       21 0.91023447E-01 0.47219565E+03</pdfrwt>
<totfact> 0.45883859E+04</totfact>
</mgrwt>
</event>
<event>
 7    0  0.4707675E-002  0.4505315E+03  0.7546771E-02  0.1027564E+00
         21   -1    0    0  502  501  0.00000000000E+00  0.00000000000E+00  0.33419417615E+03  0.33419417615E+03  0.00000000000E+00 0. -1.
         21   -1    0    0  501  502 -0.00000000000E+00 -0.00000000000E+00 -0.15184183635E+03  0.15184183635E+03  0.00000000000E+00 0. -1.
      99926    2    1    2    0    0  0.00000000000E+00  0.35527136788E-14  0.18235233981E+03  0.48603601250E+03  0.45053149681E+03 0.  0.
      99925    2    3    3    0    0  0.80012533642E+02  0.12282178303E+02  0.36664425729E+02  0.27764855163E+03  0.26304292551E+03 0.  0.
         25    1    4    4    0    0  0.40146629386E+02  0.45598350586E+02  0.86497938096E+01  0.13933157740E+03  0.12509000000E+03 0.  0.
         25    1    3    3    0    0 -0.80012533642E+02 -0.12282178303E+02  0.14568791408E+03  0.20838746088E+03  0.12509000000E+03 0.  0.
         25    1    4    4    0    0  0.39865904256E+02 -0.33316172284E+02  0.28014631920E+02  0.13831697423E+03  0.12509000000E+03 0.  0.
<mgrwt>
<rscale>  2 0.45053150E+03</rscale>
<asrwt>0</asrwt>
<pdfrwt beam="1">  1       21 0.49146202E-01 0.45053150E+03</pdfrwt>
<pdfrwt beam="2">  1       21 0.22329682E-01 0.45053150E+03</pdfrwt>
<totfact> 0.68667024E+04</totfact>
</mgrwt>
</event>
<event>
 7    0  0.4707675E-002  0.4400783E+03  0.7546771E-02  0.1030723E+00
         21   -1    0    0  502  501  0.00000000000E+00  0.00000000000E+00  0.38034378159E+03  0.38034378159E+03  0.00000000000E+00 0. -1.
         21   -1    0    0  501  502 -0.00000000000E+00 -0.00000000000E+00 -0.12729860275E+03  0.12729860275E+03  0.00000000000E+00 0. -1.
      99926    2    1    2    0    0  0.00000000000E+00  0.00000000000E+00  0.25304517884E+03  0.50764238434E+03  0.44007832013E+03 0.  0.
      99925    2    3    3    0    0 -0.22200397453E+02  0.96189591511E+02  0.16113797800E+03  0.32368658306E+03  0.26279699567E+03 0.  0.
         25    1    4    4    0    0 -0.30071183895E+02  0.86414206894E+02  0.86711845740E+02  0.17758981825E+03  0.12509000000E+03 0.  0.
         25    1    4    4    0    0  0.78707864415E+01  0.97753846169E+01  0.74426132265E+02  0.14609676481E+03  0.12509000000E+03 0.  0.
         25    1    3    3    0    0  0.22200397453E+02 -0.96189591511E+02  0.91907200833E+02  0.18395580129E+03  0.12509000000E+03 0.  0.
<mgrwt>
<rscale>  2 0.44007832E+03</rscale>
<asrwt>0</asrwt>
<pdfrwt beam="1">  1       21 0.55932909E-01 0.44007832E+03</pdfrwt>
<pdfrwt beam="2">  1       21 0.18720383E-01 0.44007832E+03</pdfrwt>
<totfact> 0.73005240E+04</totfact>
</mgrwt>
</event>
<event>
 7    0  0.4707675E-002  0.4572198E+03  0.7546771E-02  0.1025591E+00
         21   -1    0    0  502  501  0.00000000000E+00  0.00000000000E+00  0.81209978483E+03  0.81209978483E+03  0.00000000000E+00 0.  1.
         21   -1    0    0  501  502 -0.00000000000E+00 -0.00000000000E+00 -0.64354762086E+02  0.64354762086E+02  0.00000000000E+00 0.  1.
      99926    2    1    2    0    0  0.00000000000E+00  0.00000000000E+00  0.74774502274E+03  0.87645454691E+03  0.45721980903E+03 0.  0.
      99925    2    3    3    0    0  0.10932288545E+03  0.14401818961E+02  0.53399546182E+03  0.60535440201E+03  0.26295226395E+03 0.  0.
         25    1    4    4    0    0  0.12061788954E+02  0.22865931212E+01  0.25427196333E+03  0.28364141922E+03  0.12509000000E+03 0.  0.
         25    1    3    3    0    0 -0.10932288545E+03 -0.14401818961E+02  0.21374956092E+03  0.27110014490E+03  0.12509000000E+03 0.  0.
         25    1    4    4    0    0  0.97261096496E+02  0.12115225840E+02  0.27972349849E+03  0.32171298280E+03  0.12509000000E+03 0.  0.
<mgrwt>
<rscale>  2 0.45721981E+03</rscale>
<asrwt>0</asrwt>
<pdfrwt beam="1">  1       21 0.11942643E+00 0.45721981E+03</pdfrwt>
<pdfrwt beam="2">  1       21 0.94639361E-02 0.45721981E+03</pdfrwt>
<totfact> 0.43506043E+04</totfact>
</mgrwt>
</event>
<event>
 7    0  0.4707675E-002  0.4520331E+03  0.7546771E-02  0.1027117E+00
         21   -1    0    0  502  501  0.00000000000E+00  0.00000000000E+00  0.77199070357E+03  0.77199070357E+03  0.00000000000E+00 0.  1.
         21   -1    0    0  501  502 -0.00000000000E+00 -0.00000000000E+00 -0.66171107016E+02  0.66171107016E+02  0.00000000000E+00 0.  1.
      99926    2    1    2    0    0  0.00000000000E+00  0.14210854715E-13  0.70581959655E+03  0.83816181058E+03  0.45203309375E+03 0.  0.
      99925    2    3    3    0    0  0.17534926654E+02  0.10832753604E+03  0.42411385210E+03  0.51097996011E+03  0.26303161669E+03 0.  0.
         25    1    4    4    0    0 -0.25326681215E+02  0.74652377830E+02  0.20267779336E+03  0.25087888377E+03  0.12509000000E+03 0.  0.
         25    1    4    4    0    0  0.42861607869E+02  0.33675158214E+02  0.22143605873E+03  0.26010107635E+03  0.12509000000E+03 0.  0.
         25    1    3    3    0    0 -0.17534926654E+02 -0.10832753604E+03  0.28170574445E+03  0.32718185047E+03  0.12509000000E+03 0.  0.
<mgrwt>
<rscale>  2 0.45203309E+03</rscale>
<asrwt>0</asrwt>
<pdfrwt beam="1">  1       21 0.11352804E+00 0.45203309E+03</pdfrwt>
<pdfrwt beam="2">  1       21 0.97310456E-02 0.45203309E+03</pdfrwt>
<totfact> 0.47059543E+04</totfact>
</mgrwt>
</event>
<event>
 7    0  0.4707675E-002  0.4552379E+03  0.7546771E-02  0.1026171E+00
         21   -1    0    0  502  501  0.00000000000E+00  0.00000000000E+00  0.38330767953E+03  0.38330767953E+03  0.00000000000E+00 0.  1.
         21   -1    0    0  501  502 -0.00000000000E+00 -0.00000000000E+00 -0.13516658325E+03  0.13516658325E+03  0.00000000000E+00 0.  1.
      99926    2    1    2    0    0  0.71054273576E-14  0.14210854715E-13  0.24814109629E+03  0.51847426278E+03  0.45523791307E+03 0.  0.
      99925    2    3    3    0    0 -0.45303160922E+02 -0.97280250836E+02  0.19804884928E+03  0.34621699907E+03  0.26292021632E+03 0.  0.
         25    1    3    3    0    0  0.45303160922E+02  0.97280250836E+02  0.50092247004E+02  0.17225726371E+03  0.12509000000E+03 0.  0.
         25    1    4    4    0    0 -0.30386137708E+02 -0.47737757662E+02  0.51293091670E+02  0.14656295652E+03  0.12509000000E+03 0.  0.
         25    1    4    4    0    0 -0.14917023213E+02 -0.49542493174E+02  0.14675575761E+03  0.19965404254E+03  0.12509000000E+03 0.  0.
<mgrwt>
<rscale>  2 0.45523791E+03</rscale>
<asrwt>0</asrwt>
<pdfrwt beam="1">  1       21 0.56368776E-01 0.45523791E+03</pdfrwt>
<pdfrwt beam="2">  1       21 0.19877439E-01 0.45523791E+03</pdfrwt>
<totfact> 0.63870691E+04</totfact>
</mgrwt>
</event>
<event>
 7    0  0.4707675E-002  0.4605366E+03  0.7546771E-02  0.1024626E+00
         21   -1    0    0  502  501  0.00000000000E+00  0.00000000000E+00  0.20982077136E+03  0.20982077136E+03  0.00000000000E+00 0. -1.
         21   -1    0    0  501  502 -0.00000000000E+00 -0.00000000000E+00 -0.25270850480E+03  0.25270850480E+03  0.00000000000E+00 0. -1.
      99926    2    1    2    0    0 -0.14210854715E-13  0.00000000000E+00 -0.42887733445E+02  0.46252927616E+03  0.46053661486E+03 0.  0.
      99925    2    3    3    0    0 -0.11180605153E+03 -0.37506105183E+02 -0.38788264028E+02  0.29056528332E+03  0.26270963698E+03 0.  0.
         25    1    4    4    0    0 -0.39756133778E+02  0.19586987999E+02 -0.16203325937E+02  0.13369463768E+03  0.12509000000E+03 0.  0.
         25    1    3    3    0    0  0.11180605153E+03  0.37506105183E+02 -0.40994694164E+01  0.17196399284E+03  0.12509000000E+03 0.  0.
         25    1    4    4    0    0 -0.72049917748E+02 -0.57093093182E+02 -0.22584938091E+02  0.15687064565E+03  0.12509000000E+03 0.  0.
<mgrwt>
<rscale>  2 0.46053661E+03</rscale>
<asrwt>0</asrwt>
<pdfrwt beam="1">  1       21 0.30855996E-01 0.46053661E+03</pdfrwt>
<pdfrwt beam="2">  1       21 0.37163015E-01 0.46053661E+03</pdfrwt>
<totfact> 0.65075170E+04</totfact>
</mgrwt>
</event>
<event>
 7    0  0.4707675E-002  0.4544793E+03  0.7546771E-02  0.1026395E+00
         21   -1    0    0  502  501  0.00000000000E+00  0.00000000000E+00  0.63887764788E+02  0.63887764788E+02  0.00000000000E+00 0.  1.
         21   -1    0    0  501  502 -0.00000000000E+00 -0.00000000000E+00 -0.80825879836E+03  0.80825879836E+03  0.00000000000E+00 0.  1.
      99926    2    1    2    0    0 -0.14210854715E-13  0.35527136788E-14 -0.74437103357E+03  0.87214656315E+03  0.45447925364E+03 0.  0.
      99925    2    3    3    0    0  0.72689383905E+02 -0.21309879701E+02 -0.31019159587E+03  0.41400122625E+03  0.26351533480E+03 0.  0.
         25    1    3    3    0    0 -0.72689383905E+02  0.21309879701E+02 -0.43417943770E+03  0.45814533690E+03  0.12509000000E+03 0.  0.
         25    1    4    4    0    0  0.69692566432E+02  0.91342554928E+01 -0.18780780146E+03  0.23634670894E+03  0.12509000000E+03 0.  0.
         25    1    4    4    0    0  0.29968174731E+01 -0.30444135194E+02 -0.12238379441E+03  0.17765451730E+03  0.12509000000E+03 0.  0.
<mgrwt>
<rscale>  2 0.45447925E+03</rscale>
<asrwt>0</asrwt>
<pdfrwt beam="1">  1       21 0.93952598E-02 0.45447925E+03</pdfrwt>
<pdfrwt beam="2">  1       21 0.11886158E+00 0.45447925E+03</pdfrwt>
<totfact> 0.44641724E+04</totfact>
</mgrwt>
</event>
<event>
 7    0  0.4707675E-002  0.4525574E+03  0.7546771E-02  0.1026962E+00
         21   -1    0    0  502  501  0.00000000000E+00  0.00000000000E+00  0.54700396102E+03  0.54700396102E+03  0.00000000000E+00 0. -1.
         21   -1    0    0  501  502 -0.00000000000E+00 -0.00000000000E+00 -0.93604528944E+02  0.93604528944E+02  0.00000000000E+00 0. -1.
      99926    2    1    2    0    0  0.00000000000E+00  0.00000000000E+00  0.45339943207E+03  0.64060848996E+03  0.45255739129E+03 0.  0.
      99925    2    3    3    0    0  0.90888303826E+02 -0.48009663647E+02  0.22726563371E+03  0.36249050342E+03  0.26302867758E+03 0.  0.
         25    1    3    3    0    0 -0.90888303826E+02  0.48009663647E+02  0.22613379836E+03  0.27811798654E+03  0.12509000000E+03 0.  0.
         25    1    4    4    0    0  0.31199473697E+02 -0.56511290068E+02  0.13973404248E+03  0.19834324740E+03  0.12509000000E+03 0.  0.
         25    1    4    4    0    0  0.59688830128E+02  0.85016264203E+01  0.87531591236E+02  0.16414725602E+03  0.12509000000E+03 0.  0.
<mgrwt>
<rscale>  2 0.45255739E+03</rscale>
<asrwt>0</asrwt>
<pdfrwt beam="1">  1       21 0.80441757E-01 0.45255739E+03</pdfrwt>
<pdfrwt beam="2">  1       21 0.13765372E-01 0.45255739E+03</pdfrwt>
<totfact> 0.57343133E+04</totfact>
</mgrwt>
</event>
<event>
 7    0  0.4707675E-002  0.4502834E+03  0.7546771E-02  0.1027638E+00
         21   -1    0    0  502  501  0.00000000000E+00  0.00000000000E+00  0.63907786651E+03  0.63907786651E+03  0.00000000000E+00 0. -1.
         21   -1    0    0  501  502 -0.00000000000E+00 -0.00000000000E+00 -0.79315521677E+02  0.79315521677E+02  0.00000000000E+00 0. -1.
      99926    2    1    2    0    0  0.00000000000E+00  0.00000000000E+00  0.55976234484E+03  0.71839338819E+03  0.45028344129E+03 0.  0.
      99925    2    3    3    0    0 -0.30958647947E+02  0.84563846012E+02  0.45077738059E+03  0.52962180011E+03  0.26303901301E+03 0.  0.
         25    1    3    3    0    0  0.30958647947E+02 -0.84563846012E+02  0.10898496425E+03  0.18877158808E+03  0.12509000000E+03 0.  0.
         25    1    4    4    0    0  0.23902801700E+02  0.50266222911E+02  0.21031972974E+03  0.25095803218E+03  0.12509000000E+03 0.  0.
         25    1    4    4    0    0 -0.54861449648E+02  0.34297623102E+02  0.24045765085E+03  0.27866376793E+03  0.12509000000E+03 0.  0.
<mgrwt>
<rscale>  2 0.45028344E+03</rscale>
<asrwt>0</asrwt>
<pdfrwt beam="1">  1       21 0.93982036E-01 0.45028344E+03</pdfrwt>
<pdfrwt beam="2">  1       21 0.11664048E-01 0.45028344E+03</pdfrwt>
<totfact> 0.53887252E+04</totfact>
</mgrwt>
</event>
<event>
 7    0  0.4707675E-002  0.4578263E+03  0.7546771E-02  0.1025414E+00
         21   -1    0    0  502  501  0.00000000000E+00  0.00000000000E+00  0.71384784692E+02  0.71384784692E+02  0.00000000000E+00 0. -1.
         21   -1    0    0  501  502 -0.00000000000E+00 -0.00000000000E+00 -0.73406713153E+03  0.73406713153E+03  0.00000000000E+00 0. -1.
      99926    2    1    2    0    0  0.00000000000E+00 -0.71054273576E-14 -0.66268234683E+03  0.80545191622E+03  0.45782627331E+03 0.  0.
      99925    2    3    3    0    0  0.76955896290E+02 -0.56704527401E+02 -0.30053019310E+03  0.41056040712E+03  0.26287608779E+03 0.  0.
         25    1    4    4    0    0  0.47618104085E+02 -0.68820825227E+02 -0.15488256196E+03  0.21596274198E+03  0.12509000000E+03 0.  0.
         25    1    3    3    0    0 -0.76955896290E+02  0.56704527401E+02 -0.36215215374E+03  0.39489150910E+03  0.12509000000E+03 0.  0.
         25    1    4    4    0    0  0.29337792206E+02  0.12116297826E+02 -0.14564763113E+03  0.19459766514E+03  0.12509000000E+03 0.  0.
<mgrwt>
<rscale>  2 0.45782627E+03</rscale>
<asrwt>0</asrwt>
<pdfrwt beam="1">  1       21 0.10497763E-01 0.45782627E+03</pdfrwt>
<pdfrwt beam="2">  1       21 0.10795105E+00 0.45782627E+03</pdfrwt>
<totfact> 0.46463121E+04</totfact>
</mgrwt>
</event>
<event>
 7    0  0.4707675E-002  0.4591103E+03  0.7546771E-02  0.1025040E+00
         21   -1    0    0  502  501  0.00000000000E+00  0.00000000000E+00  0.33883932858E+03  0.33883932858E+03  0.00000000000E+00 0. -1.
         21   -1    0    0  501  502 -0.00000000000E+00 -0.00000000000E+00 -0.15551783150E+03  0.15551783150E+03  0.00000000000E+00 0. -1.
      99926    2    1    2    0    0  0.00000000000E+00  0.00000000000E+00  0.18332149709E+03  0.49435716008E+03  0.45911025955E+03 0.  0.
      99925    2    3    3    0    0 -0.24914505263E+02 -0.11246982616E+03  0.13692095079E+03  0.31808829395E+03  0.26298787351E+03 0.  0.
         25    1    4    4    0    0 -0.70846585938E+01 -0.48347977710E+02  0.22940337177E+02  0.13624054648E+03  0.12509000000E+03 0.  0.
         25    1    3    3    0    0  0.24914505263E+02  0.11246982616E+03  0.46400546301E+02  0.17626886613E+03  0.12509000000E+03 0.  0.
         25    1    4    4    0    0 -0.17829846670E+02 -0.64121848448E+02  0.11398061361E+03  0.18184774747E+03  0.12509000000E+03 0.  0.
<mgrwt>
<rscale>  2 0.45911026E+03</rscale>
<asrwt>0</asrwt>
<pdfrwt beam="1">  1       21 0.49829313E-01 0.45911026E+03</pdfrwt>
<pdfrwt beam="2">  1       21 0.22870269E-01 0.45911026E+03</pdfrwt>
<totfact> 0.63569211E+04</totfact>
</mgrwt>
</event>
<event>
 7    0  0.4707675E-002  0.4353705E+03  0.7546771E-02  0.1032177E+00
         21   -1    0    0  502  501  0.00000000000E+00  0.00000000000E+00  0.36033956552E+03  0.36033956552E+03  0.00000000000E+00 0. -1.
         21   -1    0    0  501  502 -0.00000000000E+00 -0.00000000000E+00 -0.13150614242E+03  0.13150614242E+03  0.00000000000E+00 0. -1.
      99926    2    1    2    0    0  0.00000000000E+00  0.00000000000E+00  0.22883342310E+03  0.49184570794E+03  0.43537049153E+03 0.  0.
      99925    2    3    3    0    0  0.43098917880E+02  0.17125905572E+02  0.54867194274E+02  0.27261393507E+03  0.26297744243E+03 0.  0.
         25    1    3    3    0    0 -0.43098917880E+02 -0.17125905572E+02  0.17396622882E+03  0.21923177287E+03  0.12509000000E+03 0.  0.
         25    1    4    4    0    0  0.15025528384E+02  0.20729483839E+02 -0.11513710547E+02  0.12820121542E+03  0.12509000000E+03 0.  0.
         25    1    4    4    0    0  0.28073389495E+02 -0.36035782671E+01  0.66380904822E+02  0.14441271966E+03  0.12509000000E+03 0.  0.
<mgrwt>
<rscale>  2 0.43537049E+03</rscale>
<asrwt>0</asrwt>
<pdfrwt beam="1">  1       21 0.52991113E-01 0.43537049E+03</pdfrwt>
<pdfrwt beam="2">  1       21 0.19339139E-01 0.43537049E+03</pdfrwt>
<totfact> 0.77191375E+04</totfact>
</mgrwt>
</event>
<event>
 7    0  0.4707675E-002  0.4512424E+03  0.7546771E-02  0.1027352E+00
         21   -1    0    0  502  501  0.00000000000E+00  0.00000000000E+00  0.33902810057E+03  0.33902810057E+03  0.00000000000E+00 0. -1.
         21   -1    0    0  501  502 -0.00000000000E+00 -0.00000000000E+00 -0.15014960139E+03  0.15014960139E+03  0.00000000000E+00 0. -1.
      99926    2    1    2    0    0  0.00000000000E+00  0.00000000000E+00  0.18887849918E+03  0.48917770196E+03  0.45124243666E+03 0.  0.
      99925    2    3    3    0    0 -0.19599884848E+02  0.49191179277E+02  0.15313124398E+02  0.26877721414E+03  0.26306419646E+03 0.  0.
         25    1    4    4    0    0  0.18702269913E+02  0.50344008791E+02  0.21422910087E+02  0.13780690584E+03  0.12509000000E+03 0.  0.
         25    1    4    4    0    0 -0.38302154762E+02 -0.11528295138E+01 -0.61097856890E+01  0.13097030830E+03  0.12509000000E+03 0.  0.
         25    1    3    3    0    0  0.19599884848E+02 -0.49191179277E+02  0.17356537479E+03  0.22040048782E+03  0.12509000000E+03 0.  0.
<mgrwt>
<rscale>  2 0.45124244E+03</rscale>
<asrwt>0</asrwt>
<pdfrwt beam="1">  1       21 0.49857074E-01 0.45124244E+03</pdfrwt>
<pdfrwt beam="2">  1       21 0.22080824E-01 0.45124244E+03</pdfrwt>
<totfact> 0.68045104E+04</totfact>
</mgrwt>
</event>
<event>
 7    0  0.4707675E-002  0.4524552E+03  0.7546771E-02  0.1026992E+00
         21   -1    0    0  502  501  0.00000000000E+00  0.00000000000E+00  0.39756200801E+03  0.39756200801E+03  0.00000000000E+00 0.  1.
         21   -1    0    0  501  502 -0.00000000000E+00 -0.00000000000E+00 -0.12873195878E+03  0.12873195878E+03  0.00000000000E+00 0.  1.
      99926    2    1    2    0    0  0.17763568394E-14  0.00000000000E+00  0.26883004922E+03  0.52629396679E+03  0.45245523990E+03 0.  0.
      99925    2    3    3    0    0  0.10070490419E+02 -0.10341880440E+03  0.12494220381E+03  0.30915787113E+03  0.26300412755E+03 0.  0.
         25    1    3    3    0    0 -0.10070490419E+02  0.10341880440E+03  0.14388784541E+03  0.21713609566E+03  0.12509000000E+03 0.  0.
         25    1    4    4    0    0  0.18819690338E+02 -0.11297852425E+02  0.61768264231E+02  0.14122552453E+03  0.12509000000E+03 0.  0.
         25    1    4    4    0    0 -0.87491999187E+01 -0.92120951976E+02  0.63173939583E+02  0.16793234660E+03  0.12509000000E+03 0.  0.
<mgrwt>
<rscale>  2 0.45245524E+03</rscale>
<asrwt>0</asrwt>
<pdfrwt beam="1">  1       21 0.58465001E-01 0.45245524E+03</pdfrwt>
<pdfrwt beam="2">  1       21 0.18931170E-01 0.45245524E+03</pdfrwt>
<totfact> 0.64754458E+04</totfact>
</mgrwt>
</event>
<event>
 7    0  0.4707675E-002  0.4543237E+03  0.7546771E-02  0.1026440E+00
         21   -1    0    0  502  501  0.00000000000E+00  0.00000000000E+00  0.14873742780E+03  0.14873742780E+03  0.00000000000E+00 0.  1.
         21   -1    0    0  501  502 -0.00000000000E+00 -0.00000000000E+00 -0.34693689576E+03  0.34693689576E+03  0.00000000000E+00 0.  1.
      99926    2    1    2    0    0 -0.14210854715E-13 -0.14210854715E-13 -0.19819946796E+03  0.49567432356E+03  0.45432367970E+03 0.  0.
      99925    2    3    3    0    0 -0.78174543937E+02 -0.77635195249E+02 -0.15006030044E+03  0.32217109473E+03  0.26294036901E+03 0.  0.
         25    1    3    3    0    0  0.78174543937E+02  0.77635195249E+02 -0.48139167526E+02  0.17350322882E+03  0.12509000000E+03 0.  0.
         25    1    4    4    0    0 -0.12610831468E+02 -0.48747114305E+02 -0.10573476500E+03  0.17135537007E+03  0.12509000000E+03 0.  0.
         25    1    4    4    0    0 -0.65563712468E+02 -0.28888080944E+02 -0.44325535434E+02  0.15081572466E+03  0.12509000000E+03 0.  0.
<mgrwt>
<rscale>  2 0.45432368E+03</rscale>
<asrwt>0</asrwt>
<pdfrwt beam="1">  1       21 0.21873152E-01 0.45432368E+03</pdfrwt>
<pdfrwt beam="2">  1       21 0.51020131E-01 0.45432368E+03</pdfrwt>
<totfact> 0.65928887E+04</totfact>
</mgrwt>
</event>
<event>
 6    0  0.4707675E-002  0.4543058E+03  0.7546771E-02  0.1026446E+00
         21   -1    0    0  502  501  0.00000000000E+00  0.00000000000E+00  0.25438084779E+02  0.25438084779E+02  0.00000000000E+00 0.  1.
         21   -1    0    0  501  502 -0.00000000000E+00 -0.00000000000E+00 -0.20283930047E+04  0.20283930047E+04  0.00000000000E+00 0.  1.
      99926    2    1    2    0    0  0.00000000000E+00  0.00000000000E+00 -0.20029549199E+04  0.20538310895E+04  0.45430577025E+03 0.  0.
         25    1    3    3    0    0  0.40919552740E+02 -0.26616074772E+02 -0.77656504023E+03  0.78808857056E+03  0.12509000000E+03 0.  0.
         25    1    3    3    0    0  0.69207527723E+02 -0.54917805339E+01 -0.53017024406E+03  0.54913371535E+03  0.12509000000E+03 0.  0.
         25    1    3    3    0    0 -0.11012708046E+03  0.32107855305E+02 -0.69621963566E+03  0.71660880360E+03  0.12509000000E+03 0.  0.
<mgrwt>
<rscale>  2 0.45430577E+03</rscale>
<asrwt>0</asrwt>
<pdfrwt beam="1">  1       21 0.37408945E-02 0.45430577E+03</pdfrwt>
<pdfrwt beam="2">  1       21 0.29829311E+00 0.45430577E+03</pdfrwt>
<totfact> 0.12920206E+04</totfact>
</mgrwt>
</event>
<event>
 7    0  0.4707675E-002  0.4521699E+03  0.7546771E-02  0.1027077E+00
         21   -1    0    0  502  501  0.00000000000E+00  0.00000000000E+00  0.29077248614E+03  0.29077248614E+03  0.00000000000E+00 0.  1.
         21   -1    0    0  501  502 -0.00000000000E+00 -0.00000000000E+00 -0.17578829335E+03  0.17578829335E+03  0.00000000000E+00 0.  1.
      99926    2    1    2    0    0 -0.14210854715E-13 -0.14210854715E-13  0.11498419279E+03  0.46656077949E+03  0.45216987556E+03 0.  0.
      99925    2    3    3    0    0 -0.68409360016E+02 -0.83666536215E+02  0.49636126833E+02  0.28880305773E+03  0.26317965584E+03 0.  0.
         25    1    4    4    0    0 -0.68344302755E+02 -0.47720304141E+02  0.23806226573E+01  0.15033744248E+03  0.12509000000E+03 0.  0.
         25    1    3    3    0    0  0.68409360016E+02  0.83666536215E+02  0.65348065961E+02  0.17775772176E+03  0.12509000000E+03 0.  0.
         25    1    4    4    0    0 -0.65057261128E-01 -0.35946232074E+02  0.47255504176E+02  0.13846561525E+03  0.12509000000E+03 0.  0.
<mgrwt>
<rscale>  2 0.45216988E+03</rscale>
<asrwt>0</asrwt>
<pdfrwt beam="1">  1       21 0.42760660E-01 0.45216988E+03</pdfrwt>
<pdfrwt beam="2">  1       21 0.25851220E-01 0.45216988E+03</pdfrwt>
<totfact> 0.69233721E+04</totfact>
</mgrwt>
</event>
<event>
 7    0  0.4707675E-002  0.4518448E+03  0.7546771E-02  0.1027173E+00
         21   -1    0    0  502  501  0.00000000000E+00  0.00000000000E+00  0.62086406827E+03  0.62086406827E+03  0.00000000000E+00 0.  1.
         21   -1    0    0  501  502 -0.00000000000E+00 -0.00000000000E+00 -0.82209498969E+02  0.82209498969E+02  0.00000000000E+00 0.  1.
      99926    2    1    2    0    0  0.00000000000E+00  0.00000000000E+00  0.53865456930E+03  0.70307356724E+03  0.45184476972E+03 0.  0.
      99925    2    3    3    0    0  0.84618274696E+02 -0.67811996981E+02  0.37165172572E+03  0.46792217513E+03  0.26280684428E+03 0.  0.
         25    1    4    4    0    0  0.84099805153E+02 -0.31282173621E+02  0.20514382123E+03  0.25648167011E+03  0.12509000000E+03 0.  0.
         25    1    4    4    0    0  0.51846954294E+00 -0.36529823360E+02  0.16650790449E+03  0.21144050502E+03  0.12509000000E+03 0.  0.
         25    1    3    3    0    0 -0.84618274696E+02  0.67811996981E+02  0.16700284358E+03  0.23515139211E+03  0.12509000000E+03 0.  0.
<mgrwt>
<rscale>  2 0.45184477E+03</rscale>
<asrwt>0</asrwt>
<pdfrwt beam="1">  1       21 0.91303536E-01 0.45184477E+03</pdfrwt>
<pdfrwt beam="2">  1       21 0.12089633E-01 0.45184477E+03</pdfrwt>
<totfact> 0.54066342E+04</totfact>
</mgrwt>
</event>
<event>
 7    0  0.4707675E-002  0.4530429E+03  0.7546771E-02  0.1026818E+00
         21   -1    0    0  502  501  0.00000000000E+00  0.00000000000E+00  0.37207284231E+03  0.37207284231E+03  0.00000000000E+00 0. -1.
         21   -1    0    0  501  502 -0.00000000000E+00 -0.00000000000E+00 -0.13790838753E+03  0.13790838753E+03  0.00000000000E+00 0. -1.
      99926    2    1    2    0    0  0.14210854715E-13  0.00000000000E+00  0.23416445478E+03  0.50998122984E+03  0.45304289301E+03 0.  0.
      99925    2    3    3    0    0  0.90824542618E+02 -0.32950145757E+02  0.85621603016E+02  0.29307734200E+03  0.26311301725E+03 0.  0.
         25    1    4    4    0    0  0.27407241303E+02  0.10541252670E+02  0.12657509288E+02  0.12911233684E+03  0.12509000000E+03 0.  0.
         25    1    3    3    0    0 -0.90824542618E+02  0.32950145757E+02  0.14854285177E+03  0.21690388783E+03  0.12509000000E+03 0.  0.
         25    1    4    4    0    0  0.63417301315E+02 -0.43491398427E+02  0.72964093728E+02  0.16396500516E+03  0.12509000000E+03 0.  0.
<mgrwt>
<rscale>  2 0.45304289E+03</rscale>
<asrwt>0</asrwt>
<pdfrwt beam="1">  1       21 0.54716594E-01 0.45304289E+03</pdfrwt>
<pdfrwt beam="2">  1       21 0.20280645E-01 0.45304289E+03</pdfrwt>
<totfact> 0.65587768E+04</totfact>
</mgrwt>
</event>
<event>
 6    0  0.4707675E-002  0.4438405E+03  0.7546771E-02  0.1029575E+00
         21   -1    0    0  502  501  0.00000000000E+00  0.00000000000E+00  0.37565120464E+03  0.37565120464E+03  0.00000000000E+00 0.  1.
         21   -1    0    0  501  502 -0.00000000000E+00 -0.00000000000E+00 -0.13110191551E+03  0.13110191551E+03  0.00000000000E+00 0.  1.
      99926    2    1    2    0    0  0.00000000000E+00  0.00000000000E+00  0.24454928913E+03  0.50675312015E+03  0.44384047806E+03 0.  0.
         25    1    3    3    0    0 -0.63533496671E+01 -0.30006765572E+00  0.46900300365E+02  0.13374453771E+03  0.12509000000E+03 0.  0.
         25    1    3    3    0    0 -0.62603269990E+02  0.70456888712E+02  0.86763613417E+02  0.17904964477E+03  0.12509000000E+03 0.  0.
         25    1    3    3    0    0  0.68956619657E+02 -0.70156821057E+02  0.11088537534E+03  0.19395893767E+03  0.12509000000E+03 0.  0.
<mgrwt>
<rscale>  2 0.44384048E+03</rscale>
<asrwt>0</asrwt>
<pdfrwt beam="1">  1       21 0.55242824E-01 0.44384048E+03</pdfrwt>
<pdfrwt beam="2">  1       21 0.19279694E-01 0.44384048E+03</pdfrwt>
<totfact> 0.70869871E+04</totfact>
</mgrwt>
</event>
<event>
 7    0  0.4707675E-002  0.4270882E+03  0.7546771E-02  0.1034784E+00
         21   -1    0    0  502  501  0.00000000000E+00  0.00000000000E+00  0.27890369319E+03  0.27890369319E+03  0.00000000000E+00 0.  1.
         21   -1    0    0  501  502 -0.00000000000E+00 -0.00000000000E+00 -0.16350121288E+03  0.16350121288E+03  0.00000000000E+00 0.  1.
      99926    2    1    2    0    0  0.00000000000E+00  0.00000000000E+00  0.11540248030E+03  0.44240490607E+03  0.42708824434E+03 0.  0.
      99925    2    3    3    0    0  0.47725915061E+02  0.45675878879E+02  0.12889117640E+03  0.30030106410E+03  0.26306604658E+03 0.  0.
         25    1    4    4    0    0  0.35723082721E+02  0.18412368527E+02  0.22274566536E+02  0.13326221658E+03  0.12509000000E+03 0.  0.
         25    1    3    3    0    0 -0.47725915061E+02 -0.45675878879E+02 -0.13488696101E+02  0.14210384197E+03  0.12509000000E+03 0.  0.
         25    1    4    4    0    0  0.12002832340E+02  0.27263510353E+02  0.10661660987E+03  0.16703884752E+03  0.12509000000E+03 0.  0.
<mgrwt>
<rscale>  2 0.42708824E+03</rscale>
<asrwt>0</asrwt>
<pdfrwt beam="1">  1       21 0.41015249E-01 0.42708824E+03</pdfrwt>
<pdfrwt beam="2">  1       21 0.24044296E-01 0.42708824E+03</pdfrwt>
<totfact> 0.87337063E+04</totfact>
</mgrwt>
</event>
<event>
 7    0  0.4707675E-002  0.4527390E+03  0.7546771E-02  0.1026908E+00
         21   -1    0    0  502  501  0.00000000000E+00  0.00000000000E+00  0.22104125047E+02  0.22104125047E+02  0.00000000000E+00 0. -1.
         21   -1    0    0  501  502 -0.00000000000E+00 -0.00000000000E+00 -0.23182614131E+04  0.23182614131E+04  0.00000000000E+00 0. -1.
      99926    2    1    2    0    0 -0.88817841970E-15  0.00000000000E+00 -0.22961572880E+04  0.23403655381E+04  0.45273895422E+03 0.  0.
      99925    2    3    3    0    0  0.43168580452E+01 -0.69594393949E+02 -0.18951987478E+04  0.19145988484E+04  0.26277070231E+03 0.  0.
         25    1    3    3    0    0 -0.43168580452E+01  0.69594393949E+02 -0.40095854028E+03  0.42576668969E+03  0.12509000000E+03 0.  0.
         25    1    4    4    0    0  0.62501793056E+00 -0.75213021675E+02 -0.95449134939E+03  0.96558719618E+03  0.12509000000E+03 0.  0.
         25    1    4    4    0    0  0.36918401147E+01  0.56186277256E+01 -0.94070739837E+03  0.94901165225E+03  0.12509000000E+03 0.  0.
<mgrwt>
<rscale>  2 0.45273895E+03</rscale>
<asrwt>0</asrwt>
<pdfrwt beam="1">  1       21 0.32506076E-02 0.45273895E+03</pdfrwt>
<pdfrwt beam="2">  1       21 0.34092069E+00 0.45273895E+03</pdfrwt>
<totfact> 0.90645025E+03</totfact>
</mgrwt>
</event>
<event>
 7    0  0.4707675E-002  0.4544892E+03  0.7546771E-02  0.1026392E+00
         21   -1    0    0  502  501  0.00000000000E+00  0.00000000000E+00  0.56281335763E+03  0.56281335763E+03  0.00000000000E+00 0.  1.
         21   -1    0    0  501  502 -0.00000000000E+00 -0.00000000000E+00 -0.91753504942E+02  0.91753504942E+02  0.00000000000E+00 0.  1.
      99926    2    1    2    0    0  0.00000000000E+00 -0.14210854715E-13  0.47105985269E+03  0.65456686258E+03  0.45448915583E+03 0.  0.
      99925    2    3    3    0    0 -0.50099551358E+02  0.95608168556E+02  0.24950536665E+03  0.37818888711E+03  0.26291256988E+03 0.  0.
         25    1    4    4    0    0 -0.21962206893E+02  0.81595281161E+02  0.16682227090E+03  0.22498290292E+03  0.12509000000E+03 0.  0.
         25    1    3    3    0    0  0.50099551358E+02 -0.95608168556E+02  0.22155448604E+03  0.27637797547E+03  0.12509000000E+03 0.  0.
         25    1    4    4    0    0 -0.28137344465E+02  0.14012887395E+02  0.82683095757E+02  0.15320598419E+03  0.12509000000E+03 0.  0.
<mgrwt>
<rscale>  2 0.45448916E+03</rscale>
<asrwt>0</asrwt>
<pdfrwt beam="1">  1       21 0.82766669E-01 0.45448916E+03</pdfrwt>
<pdfrwt beam="2">  1       21 0.13493163E-01 0.45448916E+03</pdfrwt>
<totfact> 0.55663113E+04</totfact>
</mgrwt>
</event>
<event>
 7    0  0.4707675E-002  0.4418531E+03  0.7546771E-02  0.1030180E+00
         21   -1    0    0  502  501  0.00000000000E+00  0.00000000000E+00  0.12243678879E+04  0.12243678879E+04  0.00000000000E+00 0.  1.
         21   -1    0    0  501  502 -0.00000000000E+00 -0.00000000000E+00 -0.39864284347E+02  0.39864284347E+02  0.00000000000E+00 0.  1.
      99926    2    1    2    0    0  0.00000000000E+00  0.00000000000E+00  0.11845036035E+04  0.12642321722E+04  0.44185314133E+03 0.  0.
      99925    2    3    3    0    0  0.68294875553E+02  0.30457962137E+02  0.94607757723E+03  0.98479281278E+03  0.26298711849E+03 0.  0.
         25    1    3    3    0    0 -0.68294875553E+02 -0.30457962137E+02  0.23842602629E+03  0.27943935942E+03  0.12509000000E+03 0.  0.
         25    1    4    4    0    0  0.25178811578E+02  0.94442396366E+01  0.60428828012E+03  0.61768519474E+03  0.12509000000E+03 0.  0.
         25    1    4    4    0    0  0.43116063974E+02  0.21013722500E+02  0.34178929711E+03  0.36710761804E+03  0.12509000000E+03 0.  0.
<mgrwt>
<rscale>  2 0.44185314E+03</rscale>
<asrwt>0</asrwt>
<pdfrwt beam="1">  1       21 0.18005408E+00 0.44185314E+03</pdfrwt>
<pdfrwt beam="2">  1       21 0.58623956E-02 0.44185314E+03</pdfrwt>
<totfact> 0.33465743E+04</totfact>
</mgrwt>
</event>
<event>
 7    0  0.4707675E-002  0.4402436E+03  0.7546771E-02  0.1030672E+00
         21   -1    0    0  502  501  0.00000000000E+00  0.00000000000E+00  0.53506233910E+02  0.53506233910E+02  0.00000000000E+00 0. -1.
         21   -1    0    0  501  502 -0.00000000000E+00 -0.00000000000E+00 -0.90556956605E+03  0.90556956605E+03  0.00000000000E+00 0. -1.
      99926    2    1    2    0    0 -0.14210854715E-13  0.35527136788E-14 -0.85206333214E+03  0.95907579996E+03  0.44024364628E+03 0.  0.
      99925    2    3    3    0    0 -0.75610715050E+02  0.29096938000E+02 -0.42109477540E+03  0.50306591297E+03  0.26304161438E+03 0.  0.
         25    1    3    3    0    0  0.75610715050E+02 -0.29096938000E+02 -0.43096855675E+03  0.45600988699E+03  0.12509000000E+03 0.  0.
         25    1    4    4    0    0 -0.40231112575E+02  0.10148271397E+02 -0.13717541078E+03  0.19022652616E+03  0.12509000000E+03 0.  0.
         25    1    4    4    0    0 -0.35379602475E+02  0.18948666603E+02 -0.28391936462E+03  0.31283938681E+03  0.12509000000E+03 0.  0.
<mgrwt>
<rscale>  2 0.44024365E+03</rscale>
<asrwt>0</asrwt>
<pdfrwt beam="1">  1       21 0.78685642E-02 0.44024365E+03</pdfrwt>
<pdfrwt beam="2">  1       21 0.13317199E+00 0.44024365E+03</pdfrwt>
<totfact> 0.45840284E+04</totfact>
</mgrwt>
</event>
<event>
 7    0  0.4707675E-002  0.4418862E+03  0.7546771E-02  0.1030170E+00
         21   -1    0    0  502  501  0.00000000000E+00  0.00000000000E+00  0.18091829795E+03  0.18091829795E+03  0.00000000000E+00 0. -1.
         21   -1    0    0  501  502 -0.00000000000E+00 -0.00000000000E+00 -0.26982265906E+03  0.26982265906E+03  0.00000000000E+00 0. -1.
      99926    2    1    2    0    0  0.00000000000E+00  0.00000000000E+00 -0.88904361106E+02  0.45074095701E+03  0.44188621262E+03 0.  0.
      99925    2    3    3    0    0  0.17097330709E+02  0.78562816604E+02 -0.11810024153E+03  0.29920105334E+03  0.26288622710E+03 0.  0.
         25    1    4    4    0    0 -0.13904594241E+02  0.38573814939E+02 -0.21814550072E+02  0.13343410222E+03  0.12509000000E+03 0.  0.
         25    1    4    4    0    0  0.31001924951E+02  0.39989001665E+02 -0.96285691460E+02  0.16576695112E+03  0.12509000000E+03 0.  0.
         25    1    3    3    0    0 -0.17097330709E+02 -0.78562816604E+02  0.29195880426E+02  0.15153990367E+03  0.12509000000E+03 0.  0.
<mgrwt>
<rscale>  2 0.44188621E+03</rscale>
<asrwt>0</asrwt>
<pdfrwt beam="1">  1       21 0.26605632E-01 0.44188621E+03</pdfrwt>
<pdfrwt beam="2">  1       21 0.39679802E-01 0.44188621E+03</pdfrwt>
<totfact> 0.76554046E+04</totfact>
</mgrwt>
</event>
<event>
 7    0  0.4707675E-002  0.4501193E+03  0.7546771E-02  0.1027686E+00
         21   -1    0    0  502  501  0.00000000000E+00  0.00000000000E+00  0.52695942546E+03  0.52695942546E+03  0.00000000000E+00 0.  1.
         21   -1    0    0  501  502 -0.00000000000E+00 -0.00000000000E+00 -0.96120954267E+02  0.96120954267E+02  0.00000000000E+00 0.  1.
      99926    2    1    2    0    0  0.14210854715E-13  0.00000000000E+00  0.43083847119E+03  0.62308037973E+03  0.45011928568E+03 0.  0.
      99925    2    3    3    0    0 -0.67760453545E+02  0.45793389742E+02  0.17324673794E+03  0.32527251760E+03  0.26286739031E+03 0.  0.
         25    1    4    4    0    0 -0.17533749546E+01  0.11640091845E+01  0.98263184088E+02  0.15908359654E+03  0.12509000000E+03 0.  0.
         25    1    3    3    0    0  0.67760453545E+02 -0.45793389742E+02  0.25759173325E+03  0.29780786213E+03  0.12509000000E+03 0.  0.
         25    1    4    4    0    0 -0.66007078590E+02  0.44629380558E+02  0.74983553857E+02  0.16618892106E+03  0.12509000000E+03 0.  0.
<mgrwt>
<rscale>  2 0.45011929E+03</rscale>
<asrwt>0</asrwt>
<pdfrwt beam="1">  1       21 0.77494032E-01 0.45011929E+03</pdfrwt>
<pdfrwt beam="2">  1       21 0.14135435E-01 0.45011929E+03</pdfrwt>
<totfact> 0.59541138E+04</totfact>
</mgrwt>
</event>
<event>
 7    0  0.4707675E-002  0.4702368E+03  0.7546771E-02  0.1021853E+00
         21   -1    0    0  502  501  0.00000000000E+00  0.00000000000E+00  0.48035144491E+03  0.48035144491E+03  0.00000000000E+00 0.  1.
         21   -1    0    0  501  502 -0.00000000000E+00 -0.00000000000E+00 -0.11508376423E+03  0.11508376423E+03  0.00000000000E+00 0.  1.
      99926    2    1    2    0    0  0.00000000000E+00  0.00000000000E+00  0.36526768068E+03  0.59543520914E+03  0.47023675924E+03 0.  0.
      99925    2    3    3    0    0 -0.84402308028E+02  0.17932203738E+02  0.10908870766E+03  0.29757536316E+03  0.26306926291E+03 0.  0.
         25    1    4    4    0    0 -0.46645716520E+01 -0.93555700940E+01  0.58475897162E+02  0.13847824222E+03  0.12509000000E+03 0.  0.
         25    1    3    3    0    0  0.84402308028E+02 -0.17932203738E+02  0.25617897302E+03  0.29785984599E+03  0.12509000000E+03 0.  0.
         25    1    4    4    0    0 -0.79737736376E+02  0.27287773832E+02  0.50612810494E+02  0.15909712093E+03  0.12509000000E+03 0.  0.
<mgrwt>
<rscale>  2 0.47023676E+03</rscale>
<asrwt>0</asrwt>
<pdfrwt beam="1">  1       21 0.70639917E-01 0.47023676E+03</pdfrwt>
<pdfrwt beam="2">  1       21 0.16924083E-01 0.47023676E+03</pdfrwt>
<totfact> 0.52364101E+04</totfact>
</mgrwt>
</event>
<event>
 7    0  0.4707675E-002  0.4512928E+03  0.7546771E-02  0.1027337E+00
         21   -1    0    0  502  501  0.00000000000E+00  0.00000000000E+00  0.96162721052E+03  0.96162721052E+03  0.00000000000E+00 0. -1.
         21   -1    0    0  501  502 -0.00000000000E+00 -0.00000000000E+00 -0.52948059236E+02  0.52948059236E+02  0.00000000000E+00 0. -1.
      99926    2    1    2    0    0  0.00000000000E+00  0.35527136788E-14  0.90867915128E+03  0.10145752698E+04  0.45129278526E+03 0.  0.
      99925    2    3    3    0    0 -0.86981611925E+01  0.58646005453E+01  0.32828564989E+03  0.42076201956E+03  0.26298128761E+03 0.  0.
         25    1    4    4    0    0 -0.25935426697E+02 -0.31352439872E+02  0.16258850169E+03  0.20913667977E+03  0.12509000000E+03 0.  0.
         25    1    4    4    0    0  0.17237265504E+02  0.37217040417E+02  0.16569714820E+03  0.21162533979E+03  0.12509000000E+03 0.  0.
         25    1    3    3    0    0  0.86981611925E+01 -0.58646005453E+01  0.58039350139E+03  0.59381325020E+03  0.12509000000E+03 0.  0.
<mgrwt>
<rscale>  2 0.45129279E+03</rscale>
<asrwt>0</asrwt>
<pdfrwt beam="1">  1       21 0.14141576E+00 0.45129279E+03</pdfrwt>
<pdfrwt beam="2">  1       21 0.77864799E-02 0.45129279E+03</pdfrwt>
<totfact> 0.39742636E+04</totfact>
</mgrwt>
</event>
<event>
 7    0  0.4707675E-002  0.4530244E+03  0.7546771E-02  0.1026824E+00
         21   -1    0    0  502  501  0.00000000000E+00  0.00000000000E+00  0.48024557452E+03  0.48024557452E+03  0.00000000000E+00 0.  1.
         21   -1    0    0  501  502 -0.00000000000E+00 -0.00000000000E+00 -0.10683654760E+03  0.10683654760E+03  0.00000000000E+00 0.  1.
      99926    2    1    2    0    0  0.00000000000E+00  0.00000000000E+00  0.37340902692E+03  0.58708212212E+03  0.45302441073E+03 0.  0.
      99925    2    3    3    0    0  0.45554576693E+02  0.93662988428E+02  0.18477881404E+03  0.33792987916E+03  0.26306922711E+03 0.  0.
         25    1    3    3    0    0 -0.45554576693E+02 -0.93662988428E+02  0.18863021288E+03  0.24915224296E+03  0.12509000000E+03 0.  0.
         25    1    4    4    0    0  0.14284164689E+02  0.42241118996E+01  0.85139143384E+02  0.15204625059E+03  0.12509000000E+03 0.  0.
         25    1    4    4    0    0  0.31270412004E+02  0.89438876529E+02  0.99639670657E+02  0.18588362857E+03  0.12509000000E+03 0.  0.
<mgrwt>
<rscale>  2 0.45302441E+03</rscale>
<asrwt>0</asrwt>
<pdfrwt beam="1">  1       21 0.70624348E-01 0.45302441E+03</pdfrwt>
<pdfrwt beam="2">  1       21 0.15711257E-01 0.45302441E+03</pdfrwt>
<totfact> 0.60418461E+04</totfact>
</mgrwt>
</event>
<event>
 7    0  0.4707675E-002  0.4578586E+03  0.7546771E-02  0.1025404E+00
         21   -1    0    0  502  501  0.00000000000E+00  0.00000000000E+00  0.27995555832E+03  0.27995555832E+03  0.00000000000E+00 0.  1.
         21   -1    0    0  501  502 -0.00000000000E+00 -0.00000000000E+00 -0.18720339327E+03  0.18720339327E+03  0.00000000000E+00 0.  1.
      99926    2    1    2    0    0  0.14210854715E-13 -0.88817841970E-15  0.92752165056E+02  0.46715895159E+03  0.45785862657E+03 0.  0.
      99925    2    3    3    0    0  0.83576000015E+02 -0.47133283966E+01  0.13989934502E+03  0.30943283478E+03  0.26300131038E+03 0.  0.
         25    1    4    4    0    0  0.13387567791E+02  0.26949651281E+02  0.56488710076E+02  0.14051332016E+03  0.12509000000E+03 0.  0.
         25    1    3    3    0    0 -0.83576000015E+02  0.47133283966E+01 -0.47147179963E+02  0.15772611680E+03  0.12509000000E+03 0.  0.
         25    1    4    4    0    0  0.70188432224E+02 -0.31662979678E+02  0.83410634943E+02  0.16891951463E+03  0.12509000000E+03 0.  0.
<mgrwt>
<rscale>  2 0.45785863E+03</rscale>
<asrwt>0</asrwt>
<pdfrwt beam="1">  1       21 0.41169935E-01 0.45785863E+03</pdfrwt>
<pdfrwt beam="2">  1       21 0.27529911E-01 0.45785863E+03</pdfrwt>
<totfact> 0.66134643E+04</totfact>
</mgrwt>
</event>
<event>
 7    0  0.4707675E-002  0.4430123E+03  0.7546771E-02  0.1029827E+00
         21   -1    0    0  502  501  0.00000000000E+00  0.00000000000E+00  0.11263589620E+03  0.11263589620E+03  0.00000000000E+00 0.  1.
         21   -1    0    0  501  502 -0.00000000000E+00 -0.00000000000E+00 -0.43560683269E+03  0.43560683269E+03  0.00000000000E+00 0.  1.
      99926    2    1    2    0    0 -0.35527136788E-14  0.00000000000E+00 -0.32297093649E+03  0.54824272888E+03  0.44301226163E+03 0.  0.
      99925    2    3    3    0    0 -0.29607698981E+02  0.88338014871E+02 -0.15557466972E+03  0.31944316827E+03  0.26298334393E+03 0.  0.
         25    1    4    4    0    0  0.19388410607E+02  0.64151245123E+02 -0.68959864749E+02  0.15777916137E+03  0.12509000000E+03 0.  0.
         25    1    4    4    0    0 -0.48996109588E+02  0.24186769748E+02 -0.86614804971E+02  0.16166400690E+03  0.12509000000E+03 0.  0.
         25    1    3    3    0    0  0.29607698981E+02 -0.88338014871E+02 -0.16739626677E+03  0.22879956062E+03  0.12509000000E+03 0.  0.
<mgrwt>
<rscale>  2 0.44301226E+03</rscale>
<asrwt>0</asrwt>
<pdfrwt beam="1">  1       21 0.16564102E-01 0.44301226E+03</pdfrwt>
<pdfrwt beam="2">  1       21 0.64059828E-01 0.44301226E+03</pdfrwt>
<totfact> 0.68227414E+04</totfact>
</mgrwt>
</event>
<event>
 7    0  0.4707675E-002  0.4571608E+03  0.7546771E-02  0.1025608E+00
         21   -1    0    0  502  501  0.00000000000E+00  0.00000000000E+00  0.37999492245E+03  0.37999492245E+03  0.00000000000E+00 0. -1.
         21   -1    0    0  501  502 -0.00000000000E+00 -0.00000000000E+00 -0.13749922306E+03  0.13749922306E+03  0.00000000000E+00 0. -1.
      99926    2    1    2    0    0 -0.14210854715E-13 -0.71054273576E-14  0.24249569939E+03  0.51749414551E+03  0.45716083211E+03 0.  0.
      99925    2    3    3    0    0  0.10010296119E+03  0.56404592815E+02  0.16152165078E+03  0.32932829957E+03  0.26299392445E+03 0.  0.
         25    1    3    3    0    0 -0.10010296119E+03 -0.56404592815E+02  0.80974048602E+02  0.18816584594E+03  0.12509000000E+03 0.  0.
         25    1    4    4    0    0  0.12432898365E+02  0.68230857246E+01  0.61288669564E+02  0.14001764381E+03  0.12509000000E+03 0.  0.
         25    1    4    4    0    0  0.87670062827E+02  0.49581507091E+02  0.10023298122E+03  0.18931065576E+03  0.12509000000E+03 0.  0.
<mgrwt>
<rscale>  2 0.45716083E+03</rscale>
<asrwt>0</asrwt>
<pdfrwt beam="1">  1       21 0.55881606E-01 0.45716083E+03</pdfrwt>
<pdfrwt beam="2">  1       21 0.20220474E-01 0.45716083E+03</pdfrwt>
<totfact> 0.62971681E+04</totfact>
</mgrwt>
</event>
<event>
 7    0  0.4707675E-002  0.4510129E+03  0.7546771E-02  0.1027420E+00
         21   -1    0    0  502  501  0.00000000000E+00  0.00000000000E+00  0.38632024516E+03  0.38632024516E+03  0.00000000000E+00 0.  1.
         21   -1    0    0  501  502 -0.00000000000E+00 -0.00000000000E+00 -0.13163474937E+03  0.13163474937E+03  0.00000000000E+00 0.  1.
      99926    2    1    2    0    0  0.14210854715E-13 -0.44408920985E-15  0.25468549580E+03  0.51795499453E+03  0.45101294282E+03 0.  0.
      99925    2    3    3    0    0 -0.10294752676E+03  0.33803640667E+01  0.20307178657E+03  0.34789293760E+03  0.26302419167E+03 0.  0.
         25    1    4    4    0    0 -0.94338045120E+02  0.84254406186E+01  0.10859721891E+03  0.19081802552E+03  0.12509000000E+03 0.  0.
         25    1    3    3    0    0  0.10294752676E+03 -0.33803640667E+01  0.51613709229E+02  0.17006205693E+03  0.12509000000E+03 0.  0.
         25    1    4    4    0    0 -0.86094816387E+01 -0.50450765519E+01  0.94474567655E+02  0.15707491208E+03  0.12509000000E+03 0.  0.
<mgrwt>
<rscale>  2 0.45101294E+03</rscale>
<asrwt>0</asrwt>
<pdfrwt beam="1">  1       21 0.56811800E-01 0.45101294E+03</pdfrwt>
<pdfrwt beam="2">  1       21 0.19358051E-01 0.45101294E+03</pdfrwt>
<totfact> 0.66092845E+04</totfact>
</mgrwt>
</event>
<event>
 7    0  0.4707675E-002  0.4407417E+03  0.7546771E-02  0.1030519E+00
         21   -1    0    0  502  501  0.00000000000E+00  0.00000000000E+00  0.12737950409E+04  0.12737950409E+04  0.00000000000E+00 0.  1.
         21   -1    0    0  501  502 -0.00000000000E+00 -0.00000000000E+00 -0.38124895296E+02  0.38124895296E+02  0.00000000000E+00 0.  1.
      99926    2    1    2    0    0 -0.35527136788E-14  0.00000000000E+00  0.12356701456E+04  0.13119199361E+04  0.44074165930E+03 0.  0.
      99925    2    3    3    0    0  0.19024565379E+02  0.15006115460E+02  0.10743942592E+04  0.11063851770E+04  0.26301714423E+03 0.  0.
         25    1    3    3    0    0 -0.19024565379E+02 -0.15006115460E+02  0.16127588640E+03  0.20553475916E+03  0.12509000000E+03 0.  0.
         25    1    4    4    0    0  0.35646606247E+02  0.18873220370E+02  0.42599948148E+03  0.44581380116E+03  0.12509000000E+03 0.  0.
         25    1    4    4    0    0 -0.16622040868E+02 -0.38671049106E+01  0.64839477768E+03  0.66057137583E+03  0.12509000000E+03 0.  0.
<mgrwt>
<rscale>  2 0.44074166E+03</rscale>
<asrwt>0</asrwt>
<pdfrwt beam="1">  1       21 0.18732277E+00 0.44074166E+03</pdfrwt>
<pdfrwt beam="2">  1       21 0.56066031E-02 0.44074166E+03</pdfrwt>
<totfact> 0.32194972E+04</totfact>
</mgrwt>
</event>
<event>
 7    0  0.4707675E-002  0.4532287E+03  0.7546771E-02  0.1026764E+00
         21   -1    0    0  502  501  0.00000000000E+00  0.00000000000E+00  0.28867295225E+03  0.28867295225E+03  0.00000000000E+00 0.  1.
         21   -1    0    0  501  502 -0.00000000000E+00 -0.00000000000E+00 -0.17789706768E+03  0.17789706768E+03  0.00000000000E+00 0.  1.
      99926    2    1    2    0    0  0.00000000000E+00 -0.71054273576E-14  0.11077588456E+03  0.46657001993E+03  0.45322873573E+03 0.  0.
      99925    2    3    3    0    0  0.77925477504E+02 -0.47230718897E+02  0.36703410711E+01  0.27836208599E+03  0.26299973129E+03 0.  0.
         25    1    4    4    0    0  0.28540289810E+02 -0.56764481191E+02  0.22956892220E+02  0.14216638656E+03  0.12509000000E+03 0.  0.
         25    1    4    4    0    0  0.49385187694E+02  0.95337622940E+01 -0.19286551149E+02  0.13619569943E+03  0.12509000000E+03 0.  0.
         25    1    3    3    0    0 -0.77925477504E+02  0.47230718897E+02  0.10710554349E+03  0.18820793394E+03  0.12509000000E+03 0.  0.
<mgrwt>
<rscale>  2 0.45322874E+03</rscale>
<asrwt>0</asrwt>
<pdfrwt beam="1">  1       21 0.42451905E-01 0.45322874E+03</pdfrwt>
<pdfrwt beam="2">  1       21 0.26161333E-01 0.45322874E+03</pdfrwt>
<totfact> 0.68651303E+04</totfact>
</mgrwt>
</event>
<event>
 7    0  0.4707675E-002  0.4572000E+03  0.7546771E-02  0.1025596E+00
         21   -1    0    0  502  501  0.00000000000E+00  0.00000000000E+00  0.19814101475E+03  0.19814101475E+03  0.00000000000E+00 0. -1.
         21   -1    0    0  501  502 -0.00000000000E+00 -0.00000000000E+00 -0.26374128908E+03  0.26374128908E+03  0.00000000000E+00 0. -1.
      99926    2    1    2    0    0  0.00000000000E+00 -0.17763568394E-14 -0.65600274332E+02  0.46188230384E+03  0.45720002910E+03 0.  0.
      99925    2    3    3    0    0 -0.10880575138E+03 -0.89024210904E+01 -0.78848607609E+02  0.29532609390E+03  0.26283541273E+03 0.  0.
         25    1    3    3    0    0  0.10880575138E+03  0.89024210904E+01  0.13248333276E+02  0.16655620994E+03  0.12509000000E+03 0.  0.
         25    1    4    4    0    0 -0.45873241941E+02 -0.13419501431E+02 -0.78502328508E+02  0.15522422822E+03  0.12509000000E+03 0.  0.
         25    1    4    4    0    0 -0.62932509435E+02  0.45170803402E+01 -0.34627910121E+00  0.14010186568E+03  0.12509000000E+03 0.  0.
<mgrwt>
<rscale>  2 0.45720003E+03</rscale>
<asrwt>0</asrwt>
<pdfrwt beam="1">  1       21 0.29138385E-01 0.45720003E+03</pdfrwt>
<pdfrwt beam="2">  1       21 0.38785484E-01 0.45720003E+03</pdfrwt>
<totfact> 0.66862810E+04</totfact>
</mgrwt>
</event>
<event>
 7    0  0.4707675E-002  0.4579370E+03  0.7546771E-02  0.1025381E+00
         21   -1    0    0  502  501  0.00000000000E+00  0.00000000000E+00  0.19429647666E+02  0.19429647666E+02  0.00000000000E+00 0. -1.
         21   -1    0    0  501  502 -0.00000000000E+00 -0.00000000000E+00 -0.26982766182E+04  0.26982766182E+04  0.00000000000E+00 0. -1.
      99926    2    1    2    0    0  0.71054273576E-14 -0.62172489379E-14 -0.26788469705E+04  0.27177062659E+04  0.45793695634E+03 0.  0.
      99925    2    3    3    0    0  0.38282806390E+02  0.54766285494E+01 -0.10313090008E+04  0.10649738506E+04  0.26282214625E+03 0.  0.
         25    1    4    4    0    0  0.36195148329E+02 -0.33649727204E+02 -0.53454632349E+03  0.55120746816E+03  0.12509000000E+03 0.  0.
         25    1    3    3    0    0 -0.38282806390E+02 -0.54766285494E+01 -0.16475379697E+04  0.16527324153E+04  0.12509000000E+03 0.  0.
         25    1    4    4    0    0  0.20876580607E+01  0.39126355754E+02 -0.49676267732E+03  0.51376638242E+03  0.12509000000E+03 0.  0.
<mgrwt>
<rscale>  2 0.45793696E+03</rscale>
<asrwt>0</asrwt>
<pdfrwt beam="1">  1       21 0.28573032E-02 0.45793696E+03</pdfrwt>
<pdfrwt beam="2">  1       21 0.39680509E+00 0.45793696E+03</pdfrwt>
<totfact> 0.50351661E+03</totfact>
</mgrwt>
</event>
<event>
 7    0  0.4707675E-002  0.4463569E+03  0.7546771E-02  0.1028814E+00
         21   -1    0    0  502  501  0.00000000000E+00  0.00000000000E+00  0.71580311990E+03  0.71580311990E+03  0.00000000000E+00 0.  1.
         21   -1    0    0  501  502 -0.00000000000E+00 -0.00000000000E+00 -0.69584233350E+02  0.69584233350E+02  0.00000000000E+00 0.  1.
      99926    2    1    2    0    0  0.00000000000E+00  0.00000000000E+00  0.64621888655E+03  0.78538735325E+03  0.44635685870E+03 0.  0.
      99925    2    3    3    0    0  0.52763313139E+02 -0.34620862094E+02  0.55733433447E+03  0.61946404867E+03  0.26292884191E+03 0.  0.
         25    1    4    4    0    0  0.52420516615E+02 -0.21055206102E+02  0.36163606996E+03  0.38680665385E+03  0.12509000000E+03 0.  0.
         25    1    3    3    0    0 -0.52763313139E+02  0.34620862094E+02  0.88884552088E+02  0.16592330459E+03  0.12509000000E+03 0.  0.
         25    1    4    4    0    0  0.34279652337E+00 -0.13565655993E+02  0.19569826451E+03  0.23265739482E+03  0.12509000000E+03 0.  0.
<mgrwt>
<rscale>  2 0.44635686E+03</rscale>
<asrwt>0</asrwt>
<pdfrwt beam="1">  1       21 0.10526516E+00 0.44635686E+03</pdfrwt>
<pdfrwt beam="2">  1       21 0.10232976E-01 0.44635686E+03</pdfrwt>
<totfact> 0.51912904E+04</totfact>
</mgrwt>
</event>
<event>
 7    0  0.4707675E-002  0.4552351E+03  0.7546771E-02  0.1026172E+00
         21   -1    0    0  502  501  0.00000000000E+00  0.00000000000E+00  0.62829490101E+03  0.62829490101E+03  0.00000000000E+00 0.  1.
         21   -1    0    0  501  502 -0.00000000000E+00 -0.00000000000E+00 -0.82460861645E+02  0.82460861645E+02  0.00000000000E+00 0.  1.
      99926    2    1    2    0    0  0.44408920985E-15  0.00000000000E+00  0.54583403937E+03  0.71075576266E+03  0.45523505535E+03 0.  0.
      99925    2    3    3    0    0  0.14373477810E+01  0.79286104147E+02  0.21731983631E+03  0.35039838173E+03  0.26317819512E+03 0.  0.
         25    1    4    4    0    0 -0.14084107753E+02  0.24800425617E+02  0.15024412631E+03  0.19757081969E+03  0.12509000000E+03 0.  0.
         25    1    4    4    0    0  0.15521455534E+02  0.54485678530E+02  0.67075709999E+02  0.15282756204E+03  0.12509000000E+03 0.  0.
         25    1    3    3    0    0 -0.14373477810E+01 -0.79286104147E+02  0.32851420306E+03  0.36035738093E+03  0.12509000000E+03 0.  0.
<mgrwt>
<rscale>  2 0.45523506E+03</rscale>
<asrwt>0</asrwt>
<pdfrwt beam="1">  1       21 0.92396307E-01 0.45523506E+03</pdfrwt>
<pdfrwt beam="2">  1       21 0.12126598E-01 0.45523506E+03</pdfrwt>
<totfact> 0.52226242E+04</totfact>
</mgrwt>
</event>
<event>
 7    0  0.4707675E-002  0.4265126E+03  0.7546771E-02  0.1034967E+00
         21   -1    0    0  502  501  0.00000000000E+00  0.00000000000E+00  0.34314356716E+02  0.34314356716E+02  0.00000000000E+00 0. -1.
         21   -1    0    0  501  502 -0.00000000000E+00 -0.00000000000E+00 -0.13253417365E+04  0.13253417365E+04  0.00000000000E+00 0. -1.
      99926    2    1    2    0    0 -0.71054273576E-14  0.00000000000E+00 -0.12910273798E+04  0.13596560932E+04  0.42651259826E+03 0.  0.
      99925    2    3    3    0    0 -0.40515292748E+02  0.40671961191E+02 -0.64333381546E+03  0.69750040251E+03  0.26331106321E+03 0.  0.
         25    1    4    4    0    0 -0.37836652517E+02  0.19207583293E+02 -0.42376688785E+03  0.44387658968E+03  0.12509000000E+03 0.  0.
         25    1    3    3    0    0  0.40515292748E+02 -0.40671961191E+02 -0.64769356435E+03  0.66215569074E+03  0.12509000000E+03 0.  0.
         25    1    4    4    0    0 -0.26786402311E+01  0.21464377898E+02 -0.21956692761E+03  0.25362381283E+03  0.12509000000E+03 0.  0.
<mgrwt>
<rscale>  2 0.42651260E+03</rscale>
<asrwt>0</asrwt>
<pdfrwt beam="1">  1       21 0.50462282E-02 0.42651260E+03</pdfrwt>
<pdfrwt beam="2">  1       21 0.19490323E+00 0.42651260E+03</pdfrwt>
<totfact> 0.34446678E+04</totfact>
</mgrwt>
</event>
<event>
 7    0  0.4707675E-002  0.4534832E+03  0.7546771E-02  0.1026688E+00
         21   -1    0    0  502  501  0.00000000000E+00  0.00000000000E+00  0.13643006864E+04  0.13643006864E+04  0.00000000000E+00 0.  1.
         21   -1    0    0  501  502 -0.00000000000E+00 -0.00000000000E+00 -0.37683595418E+02  0.37683595418E+02  0.00000000000E+00 0.  1.
      99926    2    1    2    0    0  0.00000000000E+00  0.00000000000E+00  0.13266170909E+04  0.14019842818E+04  0.45348320848E+03 0.  0.
      99925    2    3    3    0    0  0.80212408898E+02 -0.35972066046E+02  0.62273910354E+03  0.68169284817E+03  0.26300784797E+03 0.  0.
         25    1    4    4    0    0  0.29866411737E+02 -0.18109796747E+02  0.20798675831E+03  0.24520596856E+03  0.12509000000E+03 0.  0.
         25    1    4    4    0    0  0.50345997161E+02 -0.17862269299E+02  0.41475234523E+03  0.43648687961E+03  0.12509000000E+03 0.  0.
         25    1    3    3    0    0 -0.80212408898E+02  0.35972066046E+02  0.70387798739E+03  0.72029143360E+03  0.12509000000E+03 0.  0.
<mgrwt>
<rscale>  2 0.45348321E+03</rscale>
<asrwt>0</asrwt>
<pdfrwt beam="1">  1       21 0.20063242E+00 0.45348321E+03</pdfrwt>
<pdfrwt beam="2">  1       21 0.55417061E-02 0.45348321E+03</pdfrwt>
<totfact> 0.26591232E+04</totfact>
</mgrwt>
</event>
<event>
 7    0  0.4707675E-002  0.4545232E+03  0.7546771E-02  0.1026382E+00
         21   -1    0    0  502  501  0.00000000000E+00  0.00000000000E+00  0.47288463317E+03  0.47288463317E+03  0.00000000000E+00 0.  1.
         21   -1    0    0  501  502 -0.00000000000E+00 -0.00000000000E+00 -0.10921869800E+03  0.10921869800E+03  0.00000000000E+00 0.  1.
      99926    2    1    2    0    0  0.00000000000E+00 -0.35527136788E-14  0.36366593517E+03  0.58210333117E+03  0.45452324007E+03 0.  0.
      99925    2    3    3    0    0  0.45921001328E+02 -0.88119264883E+01  0.97385495432E+02  0.28421212772E+03  0.26288060105E+03 0.  0.
         25    1    4    4    0    0  0.51621564139E+02  0.24275932648E+02  0.51096532021E+02  0.14667130079E+03  0.12509000000E+03 0.  0.
         25    1    4    4    0    0 -0.57005628115E+01 -0.33087859136E+02  0.46288963411E+02  0.13754082693E+03  0.12509000000E+03 0.  0.
         25    1    3    3    0    0 -0.45921001328E+02  0.88119264883E+01  0.26628043973E+03  0.29789120345E+03  0.12509000000E+03 0.  0.
<mgrwt>
<rscale>  2 0.45452324E+03</rscale>
<asrwt>0</asrwt>
<pdfrwt beam="1">  1       21 0.69541857E-01 0.45452324E+03</pdfrwt>
<pdfrwt beam="2">  1       21 0.16061573E-01 0.45452324E+03</pdfrwt>
<totfact> 0.60019488E+04</totfact>
</mgrwt>
</event>
<event>
 7    0  0.4707675E-002  0.4554487E+03  0.7546771E-02  0.1026110E+00
         21   -1    0    0  502  501  0.00000000000E+00  0.00000000000E+00  0.12378439610E+03  0.12378439610E+03  0.00000000000E+00 0.  1.
         21   -1    0    0  501  502 -0.00000000000E+00 -0.00000000000E+00 -0.41894123132E+03  0.41894123132E+03  0.00000000000E+00 0.  1.
      99926    2    1    2    0    0  0.00000000000E+00  0.00000000000E+00 -0.29515683522E+03  0.54272562742E+03  0.45544873399E+03 0.  0.
      99925    2    3    3    0    0  0.12738259407E+02  0.17856082055E+02 -0.52760228668E+02  0.26907489038E+03  0.26293830452E+03 0.  0.
         25    1    4    4    0    0  0.26359377788E+02 -0.11180763612E+02 -0.55730761336E+02  0.13990443928E+03  0.12509000000E+03 0.  0.
         25    1    4    4    0    0 -0.13621118381E+02  0.29036845666E+02  0.29705326680E+01  0.12917045110E+03  0.12509000000E+03 0.  0.
         25    1    3    3    0    0 -0.12738259407E+02 -0.17856082055E+02 -0.24239660655E+03  0.27365073704E+03  0.12509000000E+03 0.  0.
<mgrwt>
<rscale>  2 0.45544873E+03</rscale>
<asrwt>0</asrwt>
<pdfrwt beam="1">  1       21 0.18203588E-01 0.45544873E+03</pdfrwt>
<pdfrwt beam="2">  1       21 0.61609005E-01 0.45544873E+03</pdfrwt>
<totfact> 0.62128870E+04</totfact>
</mgrwt>
</event>
<event>
 7    0  0.4707675E-002  0.4571055E+03  0.7546771E-02  0.1025624E+00
         21   -1    0    0  502  501  0.00000000000E+00  0.00000000000E+00  0.26799108935E+03  0.26799108935E+03  0.00000000000E+00 0. -1.
         21   -1    0    0  501  502 -0.00000000000E+00 -0.00000000000E+00 -0.19491827469E+03  0.19491827469E+03  0.00000000000E+00 0. -1.
      99926    2    1    2    0    0  0.00000000000E+00  0.71054273576E-14  0.73072814661E+02  0.46290936405E+03  0.45710550541E+03 0.  0.
      99925    2    3    3    0    0  0.88774100197E+02  0.45191736297E+02 -0.12638692247E+02  0.28147864886E+03  0.26295885482E+03 0.  0.
         25    1    4    4    0    0  0.77748002704E+02  0.49948092309E+02 -0.80307820602E+01  0.15572914117E+03  0.12509000000E+03 0.  0.
         25    1    3    3    0    0 -0.88774100197E+02 -0.45191736297E+02  0.85711506908E+02  0.18143071518E+03  0.12509000000E+03 0.  0.
         25    1    4    4    0    0  0.11026097493E+02 -0.47563560115E+01 -0.46079101870E+01  0.12574950769E+03  0.12509000000E+03 0.  0.
<mgrwt>
<rscale>  2 0.45710551E+03</rscale>
<asrwt>0</asrwt>
<pdfrwt beam="1">  1       21 0.39410454E-01 0.45710551E+03</pdfrwt>
<pdfrwt beam="2">  1       21 0.28664452E-01 0.45710551E+03</pdfrwt>
<totfact> 0.66839683E+04</totfact>
</mgrwt>
</event>
<event>
 7    0  0.4707675E-002  0.4547075E+03  0.7546771E-02  0.1026327E+00
         21   -1    0    0  502  501  0.00000000000E+00  0.00000000000E+00  0.35876750131E+03  0.35876750131E+03  0.00000000000E+00 0. -1.
         21   -1    0    0  501  502 -0.00000000000E+00 -0.00000000000E+00 -0.14407582044E+03  0.14407582044E+03  0.00000000000E+00 0. -1.
      99926    2    1    2    0    0 -0.14210854715E-13  0.00000000000E+00  0.21469168087E+03  0.50284332175E+03  0.45470747563E+03 0.  0.
      99925    2    3    3    0    0  0.82761693590E+02  0.14666143125E+02  0.51760174117E+02  0.28090013607E+03  0.26298512722E+03 0.  0.
         25    1    3    3    0    0 -0.82761693590E+02 -0.14666143125E+02  0.16293150675E+03  0.22194318568E+03  0.12509000000E+03 0.  0.
         25    1    4    4    0    0  0.71978883164E+02 -0.10811656178E+02  0.48874039152E+02  0.15275480789E+03  0.12509000000E+03 0.  0.
         25    1    4    4    0    0  0.10782810426E+02  0.25477799303E+02  0.28861349649E+01  0.12814532817E+03  0.12509000000E+03 0.  0.
<mgrwt>
<rscale>  2 0.45470748E+03</rscale>
<asrwt>0</asrwt>
<pdfrwt beam="1">  1       21 0.52759926E-01 0.45470748E+03</pdfrwt>
<pdfrwt beam="2">  1       21 0.21187621E-01 0.45470748E+03</pdfrwt>
<totfact> 0.65222681E+04</totfact>
</mgrwt>
</event>
<event>
 7    0  0.4707675E-002  0.4426136E+03  0.7546771E-02  0.1029948E+00
         21   -1    0    0  502  501  0.00000000000E+00  0.00000000000E+00  0.58457352883E+02  0.58457352883E+02  0.00000000000E+00 0.  1.
         21   -1    0    0  501  502 -0.00000000000E+00 -0.00000000000E+00 -0.83781928516E+03  0.83781928516E+03  0.00000000000E+00 0.  1.
      99926    2    1    2    0    0  0.00000000000E+00  0.00000000000E+00 -0.77936193228E+03  0.89627663805E+03  0.44261359041E+03 0.  0.
      99925    2    3    3    0    0  0.70188723293E+02  0.38538169031E+02 -0.62121823731E+03  0.67932368529E+03  0.26297704022E+03 0.  0.
         25    1    3    3    0    0 -0.70188723293E+02 -0.38538169031E+02 -0.15814369497E+03  0.21695295276E+03  0.12509000000E+03 0.  0.
         25    1    4    4    0    0  0.50997866239E+02  0.71435258228E+01 -0.22866693913E+03  0.26568381485E+03  0.12509000000E+03 0.  0.
         25    1    4    4    0    0  0.19190857054E+02  0.31394643209E+02 -0.39255129818E+03  0.41363987044E+03  0.12509000000E+03 0.  0.
<mgrwt>
<rscale>  2 0.44261359E+03</rscale>
<asrwt>0</asrwt>
<pdfrwt beam="1">  1       21 0.85966701E-02 0.44261359E+03</pdfrwt>
<pdfrwt beam="2">  1       21 0.12320871E+00 0.44261359E+03</pdfrwt>
<totfact> 0.47869959E+04</totfact>
</mgrwt>
</event>
<event>
 7    0  0.4707675E-002  0.4580439E+03  0.7546771E-02  0.1025350E+00
         21   -1    0    0  502  501  0.00000000000E+00  0.00000000000E+00  0.27623263704E+03  0.27623263704E+03  0.00000000000E+00 0. -1.
         21   -1    0    0  501  502 -0.00000000000E+00 -0.00000000000E+00 -0.18987998846E+03  0.18987998846E+03  0.00000000000E+00 0. -1.
      99926    2    1    2    0    0  0.00000000000E+00  0.00000000000E+00  0.86352648584E+02  0.46611262550E+03  0.45804388407E+03 0.  0.
      99925    2    3    3    0    0 -0.22443447290E+02  0.27593157408E+02 -0.58098311392E+02  0.27174524501E+03  0.26306838224E+03 0.  0.
         25    1    3    3    0    0  0.22443447290E+02 -0.27593157408E+02  0.14445095998E+03  0.19436738049E+03  0.12509000000E+03 0.  0.
         25    1    4    4    0    0  0.13931667691E+02  0.21509971852E+02  0.30125052818E+01  0.12772373915E+03  0.12509000000E+03 0.  0.
         25    1    4    4    0    0 -0.36375114981E+02  0.60831855568E+01 -0.61110816673E+02  0.14402150586E+03  0.12509000000E+03 0.  0.
<mgrwt>
<rscale>  2 0.45804388E+03</rscale>
<asrwt>0</asrwt>
<pdfrwt beam="1">  1       21 0.40622447E-01 0.45804388E+03</pdfrwt>
<pdfrwt beam="2">  1       21 0.27923528E-01 0.45804388E+03</pdfrwt>
<totfact> 0.66113393E+04</totfact>
</mgrwt>
</event>
<event>
 6    0  0.4707675E-002  0.4593454E+03  0.7546771E-02  0.1024971E+00
         21   -1    0    0  502  501  0.00000000000E+00  0.00000000000E+00  0.61211556042E+02  0.61211556042E+02  0.00000000000E+00 0. -1.
         21   -1    0    0  501  502 -0.00000000000E+00 -0.00000000000E+00 -0.86175787008E+03  0.86175787008E+03  0.00000000000E+00 0. -1.
      99926    2    1    2    0    0 -0.14210854715E-13  0.00000000000E+00 -0.80054631404E+03  0.92296942612E+03  0.45934536096E+03 0.  0.
         25    1    3    3    0    0  0.80102548823E+02 -0.65565124199E+02 -0.19367093831E+03  0.25272741103E+03  0.12509000000E+03 0.  0.
         25    1    3    3    0    0 -0.69801851352E+02  0.46843036915E+02 -0.25531619915E+03  0.29648008062E+03  0.12509000000E+03 0.  0.
         25    1    3    3    0    0 -0.10300697471E+02  0.18722087284E+02 -0.35155917658E+03  0.37376193447E+03  0.12509000000E+03 0.  0.
<mgrwt>
<rscale>  2 0.45934536E+03</rscale>
<asrwt>0</asrwt>
<pdfrwt beam="1">  1       21 0.90017008E-02 0.45934536E+03</pdfrwt>
<pdfrwt beam="2">  1       21 0.12672908E+00 0.45934536E+03</pdfrwt>
<totfact> 0.40848515E+04</totfact>
</mgrwt>
</event>
<event>
 7    0  0.4707675E-002  0.4562643E+03  0.7546771E-02  0.1025870E+00
         21   -1    0    0  502  501  0.00000000000E+00  0.00000000000E+00  0.13776746615E+04  0.13776746615E+04  0.00000000000E+00 0. -1.
         21   -1    0    0  501  502 -0.00000000000E+00 -0.00000000000E+00 -0.37776896019E+02  0.37776896019E+02  0.00000000000E+00 0. -1.
      99926    2    1    2    0    0 -0.17763568394E-14  0.14210854715E-13  0.13398977655E+04  0.14154515575E+04  0.45626427620E+03 0.  0.
      99925    2    3    3    0    0  0.10964143102E+02 -0.76832369160E+02  0.11026994928E+04  0.11362850229E+04  0.26300961288E+03 0.  0.
         25    1    3    3    0    0 -0.10964143102E+02  0.76832369160E+02  0.23719827265E+03  0.27916653459E+03  0.12509000000E+03 0.  0.
         25    1    4    4    0    0  0.45645771935E+02 -0.39451094156E+02  0.58362940247E+03  0.59992558943E+03  0.12509000000E+03 0.  0.
         25    1    4    4    0    0 -0.34681628833E+02 -0.37381275005E+02  0.51907009034E+03  0.53635943348E+03  0.12509000000E+03 0.  0.
<mgrwt>
<rscale>  2 0.45626428E+03</rscale>
<asrwt>0</asrwt>
<pdfrwt beam="1">  1       21 0.20259918E+00 0.45626428E+03</pdfrwt>
<pdfrwt beam="2">  1       21 0.55554268E-02 0.45626428E+03</pdfrwt>
<totfact> 0.25670038E+04</totfact>
</mgrwt>
</event>
<event>
 7    0  0.4707675E-002  0.4557428E+03  0.7546771E-02  0.1026023E+00
         21   -1    0    0  502  501  0.00000000000E+00  0.00000000000E+00  0.12273135432E+03  0.12273135432E+03  0.00000000000E+00 0. -1.
         21   -1    0    0  501  502 -0.00000000000E+00 -0.00000000000E+00 -0.42308159838E+03  0.42308159838E+03  0.00000000000E+00 0. -1.
      99926    2    1    2    0    0 -0.22204460493E-14 -0.35527136788E-14 -0.30035024406E+03  0.54581295269E+03  0.45574281148E+03 0.  0.
      99925    2    3    3    0    0 -0.23907848097E+01  0.30282465128E+02 -0.57348714562E+02  0.27082205287E+03  0.26293148483E+03 0.  0.
         25    1    3    3    0    0  0.23907848097E+01 -0.30282465128E+02 -0.24300152950E+03  0.27499089982E+03  0.12509000000E+03 0.  0.
         25    1    4    4    0    0  0.38552115988E+02  0.21145850631E+02 -0.24178553972E+02  0.13477953561E+03  0.12509000000E+03 0.  0.
         25    1    4    4    0    0 -0.40942900797E+02  0.91366144965E+01 -0.33170160590E+02  0.13604251726E+03  0.12509000000E+03 0.  0.
<mgrwt>
<rscale>  2 0.45574281E+03</rscale>
<asrwt>0</asrwt>
<pdfrwt beam="1">  1       21 0.18048729E-01 0.45574281E+03</pdfrwt>
<pdfrwt beam="2">  1       21 0.62217882E-01 0.45574281E+03</pdfrwt>
<totfact> 0.61780121E+04</totfact>
</mgrwt>
</event>
<event>
 7    0  0.4707675E-002  0.4557402E+03  0.7546771E-02  0.1026024E+00
         21   -1    0    0  502  501  0.00000000000E+00  0.00000000000E+00  0.85329799931E+02  0.85329799931E+02  0.00000000000E+00 0. -1.
         21   -1    0    0  501  502 -0.00000000000E+00 -0.00000000000E+00 -0.60851882783E+03  0.60851882783E+03  0.00000000000E+00 0. -1.
      99926    2    1    2    0    0  0.00000000000E+00  0.00000000000E+00 -0.52318902790E+03  0.69384862776E+03  0.45574023229E+03 0.  0.
      99925    2    3    3    0    0 -0.57830741563E+02  0.89063704469E+02 -0.39140344633E+03  0.48339272802E+03  0.26304967893E+03 0.  0.
         25    1    3    3    0    0  0.57830741563E+02 -0.89063704469E+02 -0.13178558157E+03  0.21045589974E+03  0.12509000000E+03 0.  0.
         25    1    4    4    0    0 -0.44084001237E+02  0.69196624161E+01 -0.16819840409E+03  0.21431167055E+03  0.12509000000E+03 0.  0.
         25    1    4    4    0    0 -0.13746740326E+02  0.82144042053E+02 -0.22320504223E+03  0.26908105748E+03  0.12509000000E+03 0.  0.
<mgrwt>
<rscale>  2 0.45574023E+03</rscale>
<asrwt>0</asrwt>
<pdfrwt beam="1">  1       21 0.12548500E-01 0.45574023E+03</pdfrwt>
<pdfrwt beam="2">  1       21 0.89488062E-01 0.45574023E+03</pdfrwt>
<totfact> 0.52929189E+04</totfact>
</mgrwt>
</event>
<event>
 7    0  0.4707675E-002  0.4528094E+03  0.7546771E-02  0.1026888E+00
         21   -1    0    0  502  501  0.00000000000E+00  0.00000000000E+00  0.17636607372E+03  0.17636607372E+03  0.00000000000E+00 0.  1.
         21   -1    0    0  501  502 -0.00000000000E+00 -0.00000000000E+00 -0.29064031906E+03  0.29064031906E+03  0.00000000000E+00 0.  1.
      99926    2    1    2    0    0 -0.35527136788E-14  0.00000000000E+00 -0.11427424534E+03  0.46700639279E+03  0.45280941659E+03 0.  0.
      99925    2    3    3    0    0  0.27673459693E+02 -0.28743253635E+02  0.35009798399E+02  0.26819686380E+03  0.26289137827E+03 0.  0.
         25    1    3    3    0    0 -0.27673459693E+02  0.28743253635E+02 -0.14928404374E+03  0.19880952899E+03  0.12509000000E+03 0.  0.
         25    1    4    4    0    0 -0.20309059166E+01 -0.36310840957E+02 -0.12623347649E+02  0.13087955820E+03  0.12509000000E+03 0.  0.
         25    1    4    4    0    0  0.29704365610E+02  0.75675873214E+01  0.47633146048E+02  0.13731730560E+03  0.12509000000E+03 0.  0.
<mgrwt>
<rscale>  2 0.45280942E+03</rscale>
<asrwt>0</asrwt>
<pdfrwt beam="1">  1       21 0.25936188E-01 0.45280942E+03</pdfrwt>
<pdfrwt beam="2">  1       21 0.42741223E-01 0.45280942E+03</pdfrwt>
<totfact> 0.68847677E+04</totfact>
</mgrwt>
</event>
<event>
 7    0  0.4707675E-002  0.4369500E+03  0.7546771E-02  0.1031687E+00
         21   -1    0    0  502  501  0.00000000000E+00  0.00000000000E+00  0.62127368330E+03  0.62127368330E+03  0.00000000000E+00 0. -1.
         21   -1    0    0  501  502 -0.00000000000E+00 -0.00000000000E+00 -0.76828166514E+02  0.76828166514E+02  0.00000000000E+00 0. -1.
      99926    2    1    2    0    0  0.00000000000E+00  0.14210854715E-13  0.54444551679E+03  0.69810184981E+03  0.43694996506E+03 0.  0.
      99925    2    3    3    0    0  0.78004941629E+01 -0.94860868250E+02  0.35348005249E+03  0.45076655373E+03  0.26302643673E+03 0.  0.
         25    1    4    4    0    0  0.28718084035E+00 -0.65737362640E+02  0.12552656748E+03  0.18901299046E+03  0.12509000000E+03 0.  0.
         25    1    4    4    0    0  0.75133133226E+01 -0.29123505609E+02  0.22795348502E+03  0.26175356327E+03  0.12509000000E+03 0.  0.
         25    1    3    3    0    0 -0.78004941629E+01  0.94860868250E+02  0.19096546429E+03  0.24733529608E+03  0.12509000000E+03 0.  0.
<mgrwt>
<rscale>  2 0.43694997E+03</rscale>
<asrwt>0</asrwt>
<pdfrwt beam="1">  1       21 0.91363774E-01 0.43694997E+03</pdfrwt>
<pdfrwt beam="2">  1       21 0.11298260E-01 0.43694997E+03</pdfrwt>
<totfact> 0.61254798E+04</totfact>
</mgrwt>
</event>
<event>
 7    0  0.4707675E-002  0.4706892E+03  0.7546771E-02  0.1021726E+00
         21   -1    0    0  502  501  0.00000000000E+00  0.00000000000E+00  0.14459241669E+03  0.14459241669E+03  0.00000000000E+00 0.  1.
         21   -1    0    0  501  502 -0.00000000000E+00 -0.00000000000E+00 -0.38305667081E+03  0.38305667081E+03  0.00000000000E+00 0.  1.
      99926    2    1    2    0    0  0.14210854715E-13  0.00000000000E+00 -0.23846425411E+03  0.52764908750E+03  0.47068923829E+03 0.  0.
      99925    2    3    3    0    0 -0.92936737849E+02 -0.78745098281E+02 -0.18953862601E+03  0.34632271619E+03  0.26301426816E+03 0.  0.
         25    1    4    4    0    0 -0.38926576529E+02 -0.65670567912E+02 -0.61609430503E+02  0.15896896514E+03  0.12509000000E+03 0.  0.
         25    1    3    3    0    0  0.92936737849E+02  0.78745098281E+02 -0.48925628100E+02  0.18132637130E+03  0.12509000000E+03 0.  0.
         25    1    4    4    0    0 -0.54010161320E+02 -0.13074530369E+02 -0.12792919551E+03  0.18735375106E+03  0.12509000000E+03 0.  0.
<mgrwt>
<rscale>  2 0.47068924E+03</rscale>
<asrwt>0</asrwt>
<pdfrwt beam="1">  1       21 0.21263591E-01 0.47068924E+03</pdfrwt>
<pdfrwt beam="2">  1       21 0.56331864E-01 0.47068924E+03</pdfrwt>
<totfact> 0.56058894E+04</totfact>
</mgrwt>
</event>
<event>
 7    0  0.4707675E-002  0.4585797E+03  0.7546771E-02  0.1025194E+00
         21   -1    0    0  502  501  0.00000000000E+00  0.00000000000E+00  0.32081946435E+03  0.32081946435E+03  0.00000000000E+00 0. -1.
         21   -1    0    0  501  502 -0.00000000000E+00 -0.00000000000E+00 -0.16387358799E+03  0.16387358799E+03  0.00000000000E+00 0. -1.
      99926    2    1    2    0    0  0.00000000000E+00  0.00000000000E+00  0.15694587636E+03  0.48469305233E+03  0.45857970613E+03 0.  0.
      99925    2    3    3    0    0 -0.79528579858E+02  0.78746348895E+02  0.64329750844E+02  0.29298745178E+03  0.26301624964E+03 0.  0.
         25    1    4    4    0    0 -0.19865081279E+02  0.55485308940E+02  0.64209847981E+02  0.15245869487E+03  0.12509000000E+03 0.  0.
         25    1    4    4    0    0 -0.59663498579E+02  0.23261039955E+02  0.11990286246E+00  0.14052875691E+03  0.12509000000E+03 0.  0.
         25    1    3    3    0    0  0.79528579858E+02 -0.78746348895E+02  0.92616125517E+02  0.19170560056E+03  0.12509000000E+03 0.  0.
<mgrwt>
<rscale>  2 0.45857971E+03</rscale>
<asrwt>0</asrwt>
<pdfrwt beam="1">  1       21 0.47179333E-01 0.45857971E+03</pdfrwt>
<pdfrwt beam="2">  1       21 0.24099057E-01 0.45857971E+03</pdfrwt>
<totfact> 0.64507434E+04</totfact>
</mgrwt>
</event>
<event>
 7    0  0.4707675E-002  0.4312965E+03  0.7546771E-02  0.1033451E+00
         21   -1    0    0  502  501  0.00000000000E+00  0.00000000000E+00  0.71011265022E+02  0.71011265022E+02  0.00000000000E+00 0. -1.
         21   -1    0    0  501  502 -0.00000000000E+00 -0.00000000000E+00 -0.65488450695E+03  0.65488450695E+03  0.00000000000E+00 0. -1.
      99926    2    1    2    0    0 -0.14210854715E-13  0.00000000000E+00 -0.58387324193E+03  0.72589577198E+03  0.43129654430E+03 0.  0.
      99925    2    3    3    0    0  0.73219885303E+02  0.50732821881E+02 -0.37136884699E+03  0.46371149177E+03  0.26301816717E+03 0.  0.
         25    1    4    4    0    0  0.55693217602E+02  0.61299858783E+02 -0.18243179019E+03  0.23619541347E+03  0.12509000000E+03 0.  0.
         25    1    4    4    0    0  0.17526667701E+02 -0.10567036902E+02 -0.18893705680E+03  0.22751607830E+03  0.12509000000E+03 0.  0.
         25    1    3    3    0    0 -0.73219885303E+02 -0.50732821881E+02 -0.21250439494E+03  0.26218428021E+03  0.12509000000E+03 0.  0.
<mgrwt>
<rscale>  2 0.43129654E+03</rscale>
<asrwt>0</asrwt>
<pdfrwt beam="1">  1       21 0.10442833E-01 0.43129654E+03</pdfrwt>
<pdfrwt beam="2">  1       21 0.96306548E-01 0.43129654E+03</pdfrwt>
<totfact> 0.62355352E+04</totfact>
</mgrwt>
</event>
<event>
 7    0  0.4707675E-002  0.4557521E+03  0.7546771E-02  0.1026020E+00
         21   -1    0    0  502  501  0.00000000000E+00  0.00000000000E+00  0.20695591992E+03  0.20695591992E+03  0.00000000000E+00 0. -1.
         21   -1    0    0  501  502 -0.00000000000E+00 -0.00000000000E+00 -0.25091087194E+03  0.25091087194E+03  0.00000000000E+00 0. -1.
      99926    2    1    2    0    0  0.71054273576E-14  0.00000000000E+00 -0.43954952023E+02  0.45786679186E+03  0.45575208313E+03 0.  0.
      99925    2    3    3    0    0 -0.37232450443E+02 -0.63166141425E+02 -0.11518758501E+03  0.29631861672E+03  0.26298350916E+03 0.  0.
         25    1    4    4    0    0 -0.99575407270E+01 -0.51681270238E+01 -0.21542264765E+02  0.12742621169E+03  0.12509000000E+03 0.  0.
         25    1    4    4    0    0 -0.27274909716E+02 -0.57998014401E+02 -0.93645320243E+02  0.16889240503E+03  0.12509000000E+03 0.  0.
         25    1    3    3    0    0  0.37232450443E+02  0.63166141425E+02  0.71232632986E+02  0.16154817514E+03  0.12509000000E+03 0.  0.
<mgrwt>
<rscale>  2 0.45575208E+03</rscale>
<asrwt>0</asrwt>
<pdfrwt beam="1">  1       21 0.30434695E-01 0.45575208E+03</pdfrwt>
<pdfrwt beam="2">  1       21 0.36898657E-01 0.45575208E+03</pdfrwt>
<totfact> 0.67927764E+04</totfact>
</mgrwt>
</event>
<event>
 7    0  0.4707675E-002  0.4568041E+03  0.7546771E-02  0.1025712E+00
         21   -1    0    0  502  501  0.00000000000E+00  0.00000000000E+00  0.51058626502E+02  0.51058626502E+02  0.00000000000E+00 0.  1.
         21   -1    0    0  501  502 -0.00000000000E+00 -0.00000000000E+00 -0.10217175354E+04  0.10217175354E+04  0.00000000000E+00 0.  1.
      99926    2    1    2    0    0  0.71054273576E-14  0.00000000000E+00 -0.97065890885E+03  0.10727761619E+04  0.45680408942E+03 0.  0.
      99925    2    3    3    0    0 -0.32637813860E+02  0.35300707910E+02 -0.36487566216E+03  0.45234710310E+03  0.26300624703E+03 0.  0.
         25    1    3    3    0    0  0.32637813860E+02 -0.35300707910E+02 -0.60578324669E+03  0.62042905875E+03  0.12509000000E+03 0.  0.
         25    1    4    4    0    0  0.10822980243E+01  0.29972995546E+02 -0.12336721713E+03  0.17823167562E+03  0.12509000000E+03 0.  0.
         25    1    4    4    0    0 -0.33720111884E+02  0.53277123645E+01 -0.24150844503E+03  0.27411542749E+03  0.12509000000E+03 0.  0.
<mgrwt>
<rscale>  2 0.45680409E+03</rscale>
<asrwt>0</asrwt>
<pdfrwt beam="1">  1       21 0.75086214E-02 0.45680409E+03</pdfrwt>
<pdfrwt beam="2">  1       21 0.15025258E+00 0.45680409E+03</pdfrwt>
<totfact> 0.35943917E+04</totfact>
</mgrwt>
</event>
<event>
 7    0  0.4707675E-002  0.4512967E+03  0.7546771E-02  0.1027336E+00
         21   -1    0    0  502  501  0.00000000000E+00  0.00000000000E+00  0.48848857544E+03  0.48848857544E+03  0.00000000000E+00 0. -1.
         21   -1    0    0  501  502 -0.00000000000E+00 -0.00000000000E+00 -0.10423411799E+03  0.10423411799E+03  0.00000000000E+00 0. -1.
      99926    2    1    2    0    0  0.00000000000E+00 -0.88817841970E-15  0.38425445745E+03  0.59272269343E+03  0.45129669093E+03 0.  0.
      99925    2    3    3    0    0 -0.79798201626E+02  0.42637195447E+01  0.14395658180E+03  0.31027533652E+03  0.26298546485E+03 0.  0.
         25    1    4    4    0    0 -0.63283887964E+02  0.26175196716E+02  0.10266147066E+03  0.17571817509E+03  0.12509000000E+03 0.  0.
         25    1    4    4    0    0 -0.16514313662E+02 -0.21911477172E+02  0.41295111141E+02  0.13455716143E+03  0.12509000000E+03 0.  0.
         25    1    3    3    0    0  0.79798201626E+02 -0.42637195447E+01  0.24029787565E+03  0.28244735691E+03  0.12509000000E+03 0.  0.
<mgrwt>
<rscale>  2 0.45129669E+03</rscale>
<asrwt>0</asrwt>
<pdfrwt beam="1">  1       21 0.71836554E-01 0.45129669E+03</pdfrwt>
<pdfrwt beam="2">  1       21 0.15328547E-01 0.45129669E+03</pdfrwt>
<totfact> 0.60891048E+04</totfact>
</mgrwt>
</event>
<event>
 7    0  0.4707675E-002  0.4422330E+03  0.7546771E-02  0.1030064E+00
         21   -1    0    0  502  501  0.00000000000E+00  0.00000000000E+00  0.22617578112E+03  0.22617578112E+03  0.00000000000E+00 0. -1.
         21   -1    0    0  501  502 -0.00000000000E+00 -0.00000000000E+00 -0.21617034392E+03  0.21617034392E+03  0.00000000000E+00 0. -1.
      99926    2    1    2    0    0  0.00000000000E+00  0.00000000000E+00  0.10005437206E+02  0.44234612504E+03  0.44223295396E+03 0.  0.
      99925    2    3    3    0    0  0.37661539385E+02 -0.15715915888E+02  0.98923509614E+02  0.28354022697E+03  0.26257154834E+03 0.  0.
         25    1    3    3    0    0 -0.37661539385E+02  0.15715915888E+02 -0.88918072408E+02  0.15880589807E+03  0.12509000000E+03 0.  0.
         25    1    4    4    0    0  0.21722990208E+02  0.31856936829E+02  0.46005233537E+02  0.13874704444E+03  0.12509000000E+03 0.  0.
         25    1    4    4    0    0  0.15938549177E+02 -0.47572852717E+02  0.52918276077E+02  0.14479318253E+03  0.12509000000E+03 0.  0.
<mgrwt>
<rscale>  2 0.44223295E+03</rscale>
<asrwt>0</asrwt>
<pdfrwt beam="1">  1       21 0.33261144E-01 0.44223295E+03</pdfrwt>
<pdfrwt beam="2">  1       21 0.31789757E-01 0.44223295E+03</pdfrwt>
<totfact> 0.77036406E+04</totfact>
</mgrwt>
</event>
<event>
 7    0  0.4707675E-002  0.4562042E+03  0.7546771E-02  0.1025888E+00
         21   -1    0    0  502  501  0.00000000000E+00  0.00000000000E+00  0.37223140440E+03  0.37223140440E+03  0.00000000000E+00 0.  1.
         21   -1    0    0  501  502 -0.00000000000E+00 -0.00000000000E+00 -0.13978013706E+03  0.13978013706E+03  0.00000000000E+00 0.  1.
      99926    2    1    2    0    0  0.44408920985E-15  0.00000000000E+00  0.23245126735E+03  0.51201154146E+03  0.45620415046E+03 0.  0.
      99925    2    3    3    0    0 -0.12846177714E+01 -0.52183048982E+02  0.26032273497E+03  0.37363145745E+03  0.26288366022E+03 0.  0.
         25    1    4    4    0    0  0.31705750745E+02 -0.16386770238E+02  0.15913022934E+03  0.20553276834E+03  0.12509000000E+03 0.  0.
         25    1    3    3    0    0  0.12846177714E+01  0.52183048982E+02 -0.27871467621E+02  0.13838008401E+03  0.12509000000E+03 0.  0.
         25    1    4    4    0    0 -0.32990368516E+02 -0.35796278744E+02  0.10119250563E+03  0.16809868911E+03  0.12509000000E+03 0.  0.
<mgrwt>
<rscale>  2 0.45620415E+03</rscale>
<asrwt>0</asrwt>
<pdfrwt beam="1">  1       21 0.54739912E-01 0.45620415E+03</pdfrwt>
<pdfrwt beam="2">  1       21 0.20555903E-01 0.45620415E+03</pdfrwt>
<totfact> 0.63822704E+04</totfact>
</mgrwt>
</event>
<event>
 7    0  0.4707675E-002  0.4570474E+03  0.7546771E-02  0.1025641E+00
         21   -1    0    0  502  501  0.00000000000E+00  0.00000000000E+00  0.31194093948E+03  0.31194093948E+03  0.00000000000E+00 0. -1.
         21   -1    0    0  501  502 -0.00000000000E+00 -0.00000000000E+00 -0.16741338156E+03  0.16741338156E+03  0.00000000000E+00 0. -1.
      99926    2    1    2    0    0  0.00000000000E+00  0.00000000000E+00  0.14452755792E+03  0.47935432104E+03  0.45704742653E+03 0.  0.
      99925    2    3    3    0    0 -0.37240085597E+02  0.79222417300E+02  0.16920253303E+03  0.32469541287E+03  0.26293458992E+03 0.  0.
         25    1    4    4    0    0 -0.56995817742E+02  0.35550231288E+02  0.72086088698E+02  0.15923647342E+03  0.12509000000E+03 0.  0.
         25    1    3    3    0    0  0.37240085597E+02 -0.79222417300E+02 -0.24674975115E+02  0.15465890817E+03  0.12509000000E+03 0.  0.
         25    1    4    4    0    0  0.19755732145E+02  0.43672186012E+02  0.97116444333E+02  0.16545893945E+03  0.12509000000E+03 0.  0.
<mgrwt>
<rscale>  2 0.45704743E+03</rscale>
<asrwt>0</asrwt>
<pdfrwt beam="1">  1       21 0.45873668E-01 0.45704743E+03</pdfrwt>
<pdfrwt beam="2">  1       21 0.24619615E-01 0.45704743E+03</pdfrwt>
<totfact> 0.65673408E+04</totfact>
</mgrwt>
</event>
<event>
 7    0  0.4707675E-002  0.4531746E+03  0.7546771E-02  0.1026780E+00
         21   -1    0    0  502  501  0.00000000000E+00  0.00000000000E+00  0.34642701092E+03  0.34642701092E+03  0.00000000000E+00 0.  1.
         21   -1    0    0  501  502 -0.00000000000E+00 -0.00000000000E+00 -0.14820380659E+03  0.14820380659E+03  0.00000000000E+00 0.  1.
      99926    2    1    2    0    0  0.00000000000E+00  0.00000000000E+00  0.19822320433E+03  0.49463081751E+03  0.45317458766E+03 0.  0.
      99925    2    3    3    0    0  0.42492384048E+02  0.70311824643E+02  0.20714398780E+03  0.34470935853E+03  0.26299535127E+03 0.  0.
         25    1    3    3    0    0 -0.42492384048E+02 -0.70311824643E+02 -0.89207834752E+01  0.14992145899E+03  0.12509000000E+03 0.  0.
         25    1    4    4    0    0 -0.19409800171E+02  0.38357868124E+02  0.10356537876E+03  0.16799214913E+03  0.12509000000E+03 0.  0.
         25    1    4    4    0    0  0.61902184219E+02  0.31953956519E+02  0.10357860904E+03  0.17671720940E+03  0.12509000000E+03 0.  0.
<mgrwt>
<rscale>  2 0.45317459E+03</rscale>
<asrwt>0</asrwt>
<pdfrwt beam="1">  1       21 0.50945149E-01 0.45317459E+03</pdfrwt>
<pdfrwt beam="2">  1       21 0.21794677E-01 0.45317459E+03</pdfrwt>
<totfact> 0.66609547E+04</totfact>
</mgrwt>
</event>
<event>
 7    0  0.4707675E-002  0.4141142E+03  0.7546771E-02  0.1038999E+00
         21   -1    0    0  502  501  0.00000000000E+00  0.00000000000E+00  0.19440401129E+03  0.19440401129E+03  0.00000000000E+00 0. -1.
         21   -1    0    0  501  502 -0.00000000000E+00 -0.00000000000E+00 -0.22053369675E+03  0.22053369675E+03  0.00000000000E+00 0. -1.
      99926    2    1    2    0    0 -0.71054273576E-14  0.00000000000E+00 -0.26129685455E+02  0.41493770804E+03  0.41411416432E+03 0.  0.
      99925    2    3    3    0    0 -0.42967244106E+02 -0.82430035145E+01 -0.69177213158E+02  0.27560096157E+03  0.26316586410E+03 0.  0.
         25    1    3    3    0    0  0.42967244106E+02  0.82430035145E+01  0.43047527703E+02  0.13933674646E+03  0.12509000000E+03 0.  0.
         25    1    4    4    0    0 -0.54507533004E+02  0.96643384113E+01 -0.56772229070E+02  0.14810491108E+03  0.12509000000E+03 0.  0.
         25    1    4    4    0    0  0.11540288898E+02 -0.17907341926E+02 -0.12404984088E+02  0.12749605050E+03  0.12509000000E+03 0.  0.
<mgrwt>
<rscale>  2 0.41411416E+03</rscale>
<asrwt>0</asrwt>
<pdfrwt beam="1">  1       21 0.28588825E-01 0.41411416E+03</pdfrwt>
<pdfrwt beam="2">  1       21 0.32431426E-01 0.41411416E+03</pdfrwt>
<totfact> 0.10061709E+05</totfact>
</mgrwt>
</event>
<event>
 7    0  0.4707675E-002  0.4698900E+03  0.7546771E-02  0.1021951E+00
         21   -1    0    0  502  501  0.00000000000E+00  0.00000000000E+00  0.18634863014E+03  0.18634863014E+03  0.00000000000E+00 0. -1.
         21   -1    0    0  501  502 -0.00000000000E+00 -0.00000000000E+00 -0.29621442231E+03  0.29621442231E+03  0.00000000000E+00 0. -1.
      99926    2    1    2    0    0  0.00000000000E+00  0.00000000000E+00 -0.10986579217E+03  0.48256305244E+03  0.46988999489E+03 0.  0.
      99925    2    3    3    0    0 -0.27856386078E+02 -0.11004880861E+03 -0.12649813716E+03  0.31282542691E+03  0.26262378129E+03 0.  0.
         25    1    4    4    0    0 -0.44503732551E+02 -0.35767529650E+02 -0.80517713471E+02  0.15934399477E+03  0.12509000000E+03 0.  0.
         25    1    3    3    0    0  0.27856386078E+02  0.11004880861E+03  0.16632344990E+02  0.16973762553E+03  0.12509000000E+03 0.  0.
         25    1    4    4    0    0  0.16647346473E+02 -0.74281278959E+02 -0.45980423689E+02  0.15348143214E+03  0.12509000000E+03 0.  0.
<mgrwt>
<rscale>  2 0.46988999E+03</rscale>
<asrwt>0</asrwt>
<pdfrwt beam="1">  1       21 0.27404211E-01 0.46988999E+03</pdfrwt>
<pdfrwt beam="2">  1       21 0.43560944E-01 0.46988999E+03</pdfrwt>
<totfact> 0.59202740E+04</totfact>
</mgrwt>
</event>
<event>
 7    0  0.4707675E-002  0.4709824E+03  0.7546771E-02  0.1021643E+00
         21   -1    0    0  502  501  0.00000000000E+00  0.00000000000E+00  0.21652352386E+03  0.21652352386E+03  0.00000000000E+00 0. -1.
         21   -1    0    0  501  502 -0.00000000000E+00 -0.00000000000E+00 -0.25612047010E+03  0.25612047010E+03  0.00000000000E+00 0. -1.
      99926    2    1    2    0    0  0.00000000000E+00  0.00000000000E+00 -0.39596946232E+02  0.47264399396E+03  0.47098240612E+03 0.  0.
      99925    2    3    3    0    0  0.96209923787E+02 -0.39763282420E+02  0.49157134775E+02  0.28727338394E+03  0.26319594442E+03 0.  0.
         25    1    4    4    0    0  0.88213243351E+02 -0.37128522494E+02  0.32149910089E+02  0.16075207092E+03  0.12509000000E+03 0.  0.
         25    1    3    3    0    0 -0.96209923787E+02  0.39763282420E+02 -0.88754081008E+02  0.18537061002E+03  0.12509000000E+03 0.  0.
         25    1    4    4    0    0  0.79966804366E+01 -0.26347599257E+01  0.17007224686E+02  0.12652131302E+03  0.12509000000E+03 0.  0.
<mgrwt>
<rscale>  2 0.47098241E+03</rscale>
<asrwt>0</asrwt>
<pdfrwt beam="1">  1       21 0.31841695E-01 0.47098241E+03</pdfrwt>
<pdfrwt beam="2">  1       21 0.37664775E-01 0.47098241E+03</pdfrwt>
<totfact> 0.59336804E+04</totfact>
</mgrwt>
</event>
<event>
 7    0  0.4707675E-002  0.4695521E+03  0.7546771E-02  0.1022047E+00
         21   -1    0    0  502  501  0.00000000000E+00  0.00000000000E+00  0.37887153605E+03  0.37887153605E+03  0.00000000000E+00 0. -1.
         21   -1    0    0  501  502 -0.00000000000E+00 -0.00000000000E+00 -0.14548414666E+03  0.14548414666E+03  0.00000000000E+00 0. -1.
      99926    2    1    2    0    0  0.35527136788E-14 -0.14210854715E-13  0.23338738939E+03  0.52435568271E+03  0.46955213604E+03 0.  0.
      99925    2    3    3    0    0 -0.17290938930E+02  0.98885402137E+02  0.23086292149E+03  0.36394626789E+03  0.26283435480E+03 0.  0.
         25    1    3    3    0    0  0.17290938930E+02 -0.98885402137E+02  0.25244679039E+01  0.16040941482E+03  0.12509000000E+03 0.  0.
         25    1    4    4    0    0  0.27596370720E+02  0.32288049382E+02  0.96844454945E+02  0.16379998279E+03  0.12509000000E+03 0.  0.
         25    1    4    4    0    0 -0.44887309650E+02  0.66597352755E+02  0.13401846654E+03  0.20014628509E+03  0.12509000000E+03 0.  0.
<mgrwt>
<rscale>  2 0.46955214E+03</rscale>
<asrwt>0</asrwt>
<pdfrwt beam="1">  1       21 0.55716402E-01 0.46955214E+03</pdfrwt>
<pdfrwt beam="2">  1       21 0.21394728E-01 0.46955214E+03</pdfrwt>
<totfact> 0.56749982E+04</totfact>
</mgrwt>
</event>
<event>
 7    0  0.4707675E-002  0.4532755E+03  0.7546771E-02  0.1026750E+00
         21   -1    0    0  502  501  0.00000000000E+00  0.00000000000E+00  0.34652511374E+03  0.34652511374E+03  0.00000000000E+00 0. -1.
         21   -1    0    0  501  502 -0.00000000000E+00 -0.00000000000E+00 -0.14822786619E+03  0.14822786619E+03  0.00000000000E+00 0. -1.
      99926    2    1    2    0    0  0.71054273576E-14  0.00000000000E+00  0.19829724755E+03  0.49475297993E+03  0.45327553735E+03 0.  0.
      99925    2    3    3    0    0  0.44052886890E+02  0.10149402561E+03  0.14045444097E+03  0.31801873749E+03  0.26299576674E+03 0.  0.
         25    1    3    3    0    0 -0.44052886890E+02 -0.10149402561E+03  0.57842806572E+02  0.17673424244E+03  0.12509000000E+03 0.  0.
         25    1    4    4    0    0  0.42738185010E+02  0.36421147251E+02  0.10477803307E+03  0.17256591998E+03  0.12509000000E+03 0.  0.
         25    1    4    4    0    0  0.13147018792E+01  0.65072878363E+02  0.35676407910E+02  0.14545281751E+03  0.12509000000E+03 0.  0.
<mgrwt>
<rscale>  2 0.45327554E+03</rscale>
<asrwt>0</asrwt>
<pdfrwt beam="1">  1       21 0.50959575E-01 0.45327554E+03</pdfrwt>
<pdfrwt beam="2">  1       21 0.21798216E-01 0.45327554E+03</pdfrwt>
<totfact> 0.66547220E+04</totfact>
</mgrwt>
</event>
<event>
 7    0  0.4707675E-002  0.4553606E+03  0.7546771E-02  0.1026135E+00
         21   -1    0    0  502  501  0.00000000000E+00  0.00000000000E+00  0.70546409457E+02  0.70546409457E+02  0.00000000000E+00 0. -1.
         21   -1    0    0  501  502 -0.00000000000E+00 -0.00000000000E+00 -0.73481149887E+03  0.73481149887E+03  0.00000000000E+00 0. -1.
      99926    2    1    2    0    0 -0.14210854715E-13  0.00000000000E+00 -0.66426508942E+03  0.80535790833E+03  0.45536057305E+03 0.  0.
      99925    2    3    3    0    0  0.10519552119E+03 -0.41002307042E+02 -0.41241408726E+03  0.50233361517E+03  0.26364065448E+03 0.  0.
         25    1    3    3    0    0 -0.10519552119E+03  0.41002307042E+02 -0.25185100215E+03  0.30302429316E+03  0.12509000000E+03 0.  0.
         25    1    4    4    0    0  0.63830642453E+02  0.16425983592E+02 -0.23171089968E+03  0.27144357237E+03  0.12509000000E+03 0.  0.
         25    1    4    4    0    0  0.41364878737E+02 -0.57428290634E+02 -0.18070318759E+03  0.23089004279E+03  0.12509000000E+03 0.  0.
<mgrwt>
<rscale>  2 0.45536057E+03</rscale>
<asrwt>0</asrwt>
<pdfrwt beam="1">  1       21 0.10374472E-01 0.45536057E+03</pdfrwt>
<pdfrwt beam="2">  1       21 0.10806052E+00 0.45536057E+03</pdfrwt>
<totfact> 0.47372554E+04</totfact>
</mgrwt>
</event>
<event>
 7    0  0.4707675E-002  0.4472964E+03  0.7546771E-02  0.1028531E+00
         21   -1    0    0  502  501  0.00000000000E+00  0.00000000000E+00  0.97663669394E+02  0.97663669394E+02  0.00000000000E+00 0.  1.
         21   -1    0    0  501  502 -0.00000000000E+00 -0.00000000000E+00 -0.51215070657E+03  0.51215070657E+03  0.00000000000E+00 0.  1.
      99926    2    1    2    0    0 -0.17763568394E-14  0.00000000000E+00 -0.41448703718E+03  0.60981437597E+03  0.44729639966E+03 0.  0.
      99925    2    3    3    0    0 -0.78839595013E+01 -0.54338799997E+02 -0.38589462424E+03  0.47024397732E+03  0.26305869151E+03 0.  0.
         25    1    3    3    0    0  0.78839595013E+01  0.54338799997E+02 -0.28592412940E+02  0.13957039865E+03  0.12509000000E+03 0.  0.
         25    1    4    4    0    0  0.32154287664E+02 -0.33247259199E+02 -0.22413075024E+03  0.26080908681E+03  0.12509000000E+03 0.  0.
         25    1    4    4    0    0 -0.40038247165E+02 -0.21091540798E+02 -0.16176387400E+03  0.20943489050E+03  0.12509000000E+03 0.  0.
<mgrwt>
<rscale>  2 0.44729640E+03</rscale>
<asrwt>0</asrwt>
<pdfrwt beam="1">  1       21 0.14362305E-01 0.44729640E+03</pdfrwt>
<pdfrwt beam="2">  1       21 0.75316278E-01 0.44729640E+03</pdfrwt>
<totfact> 0.61750693E+04</totfact>
</mgrwt>
</event>
<event>
 6    0  0.4707675E-002  0.4659103E+03  0.7546771E-02  0.1023081E+00
         21   -1    0    0  502  501  0.00000000000E+00  0.00000000000E+00  0.49420490122E+02  0.49420490122E+02  0.00000000000E+00 0.  1.
         21   -1    0    0  501  502 -0.00000000000E+00 -0.00000000000E+00 -0.10980891152E+04  0.10980891152E+04  0.00000000000E+00 0.  1.
      99926    2    1    2    0    0  0.00000000000E+00  0.00000000000E+00 -0.10486686250E+04  0.11475096053E+04  0.46591030153E+03 0.  0.
         25    1    3    3    0    0 -0.71013315294E+02  0.23059718188E+02 -0.43920929659E+03  0.46273853942E+03  0.12509000000E+03 0.  0.
         25    1    3    3    0    0  0.52303890961E+02 -0.51148505286E+02 -0.15493803434E+03  0.21214421790E+03  0.12509000000E+03 0.  0.
         25    1    3    3    0    0  0.18709424333E+02  0.28088787098E+02 -0.45452129410E+03  0.47262684796E+03  0.12509000000E+03 0.  0.
<mgrwt>
<rscale>  2 0.46591030E+03</rscale>
<asrwt>0</asrwt>
<pdfrwt beam="1">  1       21 0.72677190E-02 0.46591030E+03</pdfrwt>
<pdfrwt beam="2">  1       21 0.16148370E+00 0.46591030E+03</pdfrwt>
<totfact> 0.31132818E+04</totfact>
</mgrwt>
</event>
<event>
 7    0  0.4707675E-002  0.4498298E+03  0.7546771E-02  0.1027773E+00
         21   -1    0    0  502  501  0.00000000000E+00  0.00000000000E+00  0.45009763361E+03  0.45009763361E+03  0.00000000000E+00 0.  1.
         21   -1    0    0  501  502 -0.00000000000E+00 -0.00000000000E+00 -0.11239053108E+03  0.11239053108E+03  0.00000000000E+00 0.  1.
      99926    2    1    2    0    0  0.00000000000E+00  0.00000000000E+00  0.33770710253E+03  0.56248816469E+03  0.44982979928E+03 0.  0.
      99925    2    3    3    0    0  0.65528970316E+02  0.64380653486E+02  0.14217948147E+03  0.31285348523E+03  0.26310337089E+03 0.  0.
         25    1    4    4    0    0  0.50334541008E+02  0.24599446911E+02  0.31862329228E+02  0.14071750044E+03  0.12509000000E+03 0.  0.
         25    1    4    4    0    0  0.15194429308E+02  0.39781206575E+02  0.11031715225E+03  0.17213598479E+03  0.12509000000E+03 0.  0.
         25    1    3    3    0    0 -0.65528970316E+02 -0.64380653486E+02  0.19552762106E+03  0.24963467946E+03  0.12509000000E+03 0.  0.
<mgrwt>
<rscale>  2 0.44982980E+03</rscale>
<asrwt>0</asrwt>
<pdfrwt beam="1">  1       21 0.66190828E-01 0.44982980E+03</pdfrwt>
<pdfrwt beam="2">  1       21 0.16528020E-01 0.44982980E+03</pdfrwt>
<totfact> 0.63610307E+04</totfact>
</mgrwt>
</event>
<event>
 7    0  0.4707675E-002  0.4541456E+03  0.7546771E-02  0.1026493E+00
         21   -1    0    0  502  501  0.00000000000E+00  0.00000000000E+00  0.32372100445E+03  0.32372100445E+03  0.00000000000E+00 0. -1.
         21   -1    0    0  501  502 -0.00000000000E+00 -0.00000000000E+00 -0.15927931289E+03  0.15927931289E+03  0.00000000000E+00 0. -1.
      99926    2    1    2    0    0  0.00000000000E+00  0.00000000000E+00  0.16444169156E+03  0.48300031734E+03  0.45414561170E+03 0.  0.
      99925    2    3    3    0    0  0.97391866609E+02  0.54487830025E+02  0.93110194695E+02  0.30081966565E+03  0.26337969471E+03 0.  0.
         25    1    3    3    0    0 -0.97391866609E+02 -0.54487830025E+02  0.71331496864E+02  0.18218065168E+03  0.12509000000E+03 0.  0.
         25    1    4    4    0    0  0.63284412453E+02  0.48687335255E+02  0.14559094985E+02  0.14911354338E+03  0.12509000000E+03 0.  0.
         25    1    4    4    0    0  0.34107454156E+02  0.58004947703E+01  0.78551099710E+02  0.15170612227E+03  0.12509000000E+03 0.  0.
<mgrwt>
<rscale>  2 0.45414561E+03</rscale>
<asrwt>0</asrwt>
<pdfrwt beam="1">  1       21 0.47606030E-01 0.45414561E+03</pdfrwt>
<pdfrwt beam="2">  1       21 0.23423428E-01 0.45414561E+03</pdfrwt>
<totfact> 0.66935164E+04</totfact>
</mgrwt>
</event>
<event>
 7    0  0.4707675E-002  0.4808805E+03  0.7546771E-02  0.1018893E+00
         21   -1    0    0  502  501  0.00000000000E+00  0.00000000000E+00  0.18611363223E+04  0.18611363223E+04  0.00000000000E+00 0.  1.
         21   -1    0    0  501  502 -0.00000000000E+00 -0.00000000000E+00 -0.31062478256E+02  0.31062478256E+02  0.00000000000E+00 0.  1.
      99926    2    1    2    0    0 -0.14210854715E-13 -0.35527136788E-14  0.18300738440E+04  0.18921988005E+04  0.48088046973E+03 0.  0.
      99925    2    3    3    0    0  0.12310483834E+03 -0.24764969411E+02  0.13294379078E+04  0.13611131637E+04  0.26354466173E+03 0.  0.
         25    1    4    4    0    0  0.77068579272E+02 -0.43808645571E+02  0.81825204102E+03  0.83249184624E+03  0.12509000000E+03 0.  0.
         25    1    3    3    0    0 -0.12310483834E+03  0.24764969411E+02  0.50063593619E+03  0.53108563682E+03  0.12509000000E+03 0.  0.
         25    1    4    4    0    0  0.46036259065E+02  0.19043676160E+02  0.51118586681E+03  0.52862131746E+03  0.12509000000E+03 0.  0.
<mgrwt>
<rscale>  2 0.48088047E+03</rscale>
<asrwt>0</asrwt>
<pdfrwt beam="1">  1       21 0.27369644E+00 0.48088047E+03</pdfrwt>
<pdfrwt beam="2">  1       21 0.45680128E-02 0.48088047E+03</pdfrwt>
<totfact> 0.12783185E+04</totfact>
</mgrwt>
</event>
<event>
 7    0  0.4707675E-002  0.4528882E+03  0.7546771E-02  0.1026864E+00
         21   -1    0    0  502  501  0.00000000000E+00  0.00000000000E+00  0.31940388287E+03  0.31940388287E+03  0.00000000000E+00 0.  1.
         21   -1    0    0  501  502 -0.00000000000E+00 -0.00000000000E+00 -0.16053944330E+03  0.16053944330E+03  0.00000000000E+00 0.  1.
      99926    2    1    2    0    0  0.00000000000E+00  0.00000000000E+00  0.15886443957E+03  0.47994332617E+03  0.45288816078E+03 0.  0.
      99925    2    3    3    0    0 -0.79427981972E+02 -0.53161936373E+02  0.16024229662E+03  0.32251269894E+03  0.26306244801E+03 0.  0.
         25    1    4    4    0    0 -0.35941625483E+02 -0.13313281280E+02  0.12232894778E+03  0.17911148334E+03  0.12509000000E+03 0.  0.
         25    1    4    4    0    0 -0.43486356490E+02 -0.39848655093E+02  0.37913348839E+02  0.14340121559E+03  0.12509000000E+03 0.  0.
         25    1    3    3    0    0  0.79427981972E+02  0.53161936373E+02 -0.13778570495E+01  0.15743062723E+03  0.12509000000E+03 0.  0.
<mgrwt>
<rscale>  2 0.45288816E+03</rscale>
<asrwt>0</asrwt>
<pdfrwt beam="1">  1       21 0.46971159E-01 0.45288816E+03</pdfrwt>
<pdfrwt beam="2">  1       21 0.23608742E-01 0.45288816E+03</pdfrwt>
<totfact> 0.67834230E+04</totfact>
</mgrwt>
</event>
<event>
 7    0  0.4707675E-002  0.4225855E+03  0.7546771E-02  0.1036228E+00
         21   -1    0    0  502  501  0.00000000000E+00  0.00000000000E+00  0.11663122637E+04  0.11663122637E+04  0.00000000000E+00 0.  1.
         21   -1    0    0  501  502 -0.00000000000E+00 -0.00000000000E+00 -0.38278453111E+02  0.38278453111E+02  0.00000000000E+00 0.  1.
      99926    2    1    2    0    0 -0.71054273576E-14  0.00000000000E+00  0.11280338106E+04  0.12045907168E+04  0.42258551465E+03 0.  0.
      99925    2    3    3    0    0  0.52832450891E+02  0.58202232800E+02  0.70494436538E+03  0.75644904890E+03  0.26284945793E+03 0.  0.
         25    1    4    4    0    0 -0.50268861100E+01  0.37228724795E+02  0.27442916485E+03  0.30392453365E+03  0.12509000000E+03 0.  0.
         25    1    3    3    0    0 -0.52832450891E+02 -0.58202232800E+02  0.42308944520E+03  0.44814166791E+03  0.12509000000E+03 0.  0.
         25    1    4    4    0    0  0.57859337001E+02  0.20973508005E+02  0.43051520053E+03  0.45252451525E+03  0.12509000000E+03 0.  0.
<mgrwt>
<rscale>  2 0.42258551E+03</rscale>
<asrwt>0</asrwt>
<pdfrwt beam="1">  1       21 0.17151649E+00 0.42258551E+03</pdfrwt>
<pdfrwt beam="2">  1       21 0.56291850E-02 0.42258551E+03</pdfrwt>
<totfact> 0.41549250E+04</totfact>
</mgrwt>
</event>
<event>
 7    0  0.4707675E-002  0.4549064E+03  0.7546771E-02  0.1026269E+00
         21   -1    0    0  502  501  0.00000000000E+00  0.00000000000E+00  0.18226582762E+03  0.18226582762E+03  0.00000000000E+00 0.  1.
         21   -1    0    0  501  502 -0.00000000000E+00 -0.00000000000E+00 -0.28384346179E+03  0.28384346179E+03  0.00000000000E+00 0.  1.
      99926    2    1    2    0    0  0.00000000000E+00  0.00000000000E+00 -0.10157763416E+03  0.46610928941E+03  0.45490642325E+03 0.  0.
      99925    2    3    3    0    0  0.24903991734E+02  0.33391556027E+02  0.43184878620E+02  0.27030607691E+03  0.26356258584E+03 0.  0.
         25    1    4    4    0    0  0.23378634950E+02  0.54531563024E+02  0.81626349886E+01  0.13868809844E+03  0.12509000000E+03 0.  0.
         25    1    3    3    0    0 -0.24903991734E+02 -0.33391556027E+02 -0.14476251278E+03  0.19580321250E+03  0.12509000000E+03 0.  0.
         25    1    4    4    0    0  0.15253567841E+01 -0.21140006997E+02  0.35022243631E+02  0.13161797848E+03  0.12509000000E+03 0.  0.
<mgrwt>
<rscale>  2 0.45490642E+03</rscale>
<asrwt>0</asrwt>
<pdfrwt beam="1">  1       21 0.26803798E-01 0.45490642E+03</pdfrwt>
<pdfrwt beam="2">  1       21 0.41741685E-01 0.45490642E+03</pdfrwt>
<totfact> 0.67776879E+04</totfact>
</mgrwt>
</event>
<event>
 7    0  0.4707675E-002  0.4176347E+03  0.7546771E-02  0.1037839E+00
         21   -1    0    0  502  501  0.00000000000E+00  0.00000000000E+00  0.65760925195E+03  0.65760925195E+03  0.00000000000E+00 0. -1.
         21   -1    0    0  501  502 -0.00000000000E+00 -0.00000000000E+00 -0.66307901282E+02  0.66307901282E+02  0.00000000000E+00 0. -1.
      99926    2    1    2    0    0  0.71054273576E-14  0.00000000000E+00  0.59130135067E+03  0.72391715324E+03  0.41763471772E+03 0.  0.
      99925    2    3    3    0    0 -0.46248589450E+02  0.55822292888E+02  0.37475955399E+03  0.46354642097E+03  0.26301235841E+03 0.  0.
         25    1    4    4    0    0 -0.54558241026E+02  0.54330180647E+02  0.21689209514E+03  0.26195049003E+03  0.12509000000E+03 0.  0.
         25    1    3    3    0    0  0.46248589450E+02 -0.55822292888E+02  0.21654179668E+03  0.26037073226E+03  0.12509000000E+03 0.  0.
         25    1    4    4    0    0  0.83096515751E+01  0.14921122412E+01  0.15786745885E+03  0.20159593094E+03  0.12509000000E+03 0.  0.
<mgrwt>
<rscale>  2 0.41763472E+03</rscale>
<asrwt>0</asrwt>
<pdfrwt beam="1">  1       21 0.96707240E-01 0.41763472E+03</pdfrwt>
<pdfrwt beam="2">  1       21 0.97511623E-02 0.41763472E+03</pdfrwt>
<totfact> 0.70049216E+04</totfact>
</mgrwt>
</event>
<event>
 7    0  0.4707675E-002  0.4116519E+03  0.7546771E-02  0.1039818E+00
         21   -1    0    0  502  501  0.00000000000E+00  0.00000000000E+00  0.49351914538E+03  0.49351914538E+03  0.00000000000E+00 0. -1.
         21   -1    0    0  501  502 -0.00000000000E+00 -0.00000000000E+00 -0.85841273297E+02  0.85841273297E+02  0.00000000000E+00 0. -1.
      99926    2    1    2    0    0  0.71054273576E-14  0.00000000000E+00  0.40767787208E+03  0.57936041868E+03  0.41165185211E+03 0.  0.
      99925    2    3    3    0    0 -0.53527485896E+02 -0.10149085488E+02  0.31691792774E+03  0.41549135119E+03  0.26311194254E+03 0.  0.
         25    1    3    3    0    0  0.53527485896E+02  0.10149085488E+02  0.90759944339E+02  0.16386906749E+03  0.12509000000E+03 0.  0.
         25    1    4    4    0    0  0.10735354295E+02 -0.22343905410E+02  0.15233499101E+03  0.19866543616E+03  0.12509000000E+03 0.  0.
         25    1    4    4    0    0 -0.64262840191E+02  0.12194819923E+02  0.16458293674E+03  0.21682591503E+03  0.12509000000E+03 0.  0.
<mgrwt>
<rscale>  2 0.41165185E+03</rscale>
<asrwt>0</asrwt>
<pdfrwt beam="1">  1       21 0.72576344E-01 0.41165185E+03</pdfrwt>
<pdfrwt beam="2">  1       21 0.12623717E-01 0.41165185E+03</pdfrwt>
<totfact> 0.85797168E+04</totfact>
</mgrwt>
</event>
<event>
 7    0  0.4707675E-002  0.4561280E+03  0.7546771E-02  0.1025910E+00
         21   -1    0    0  502  501  0.00000000000E+00  0.00000000000E+00  0.94016143743E+02  0.94016143743E+02  0.00000000000E+00 0.  1.
         21   -1    0    0  501  502 -0.00000000000E+00 -0.00000000000E+00 -0.55323670507E+03  0.55323670507E+03  0.00000000000E+00 0.  1.
      99926    2    1    2    0    0  0.00000000000E+00  0.71054273576E-14 -0.45922056132E+03  0.64725284881E+03  0.45612797146E+03 0.  0.
      99925    2    3    3    0    0 -0.10167658893E+03  0.42599595503E+02 -0.24602247742E+03  0.37659848369E+03  0.26295722894E+03 0.  0.
         25    1    4    4    0    0 -0.78476210316E+02 -0.61387224396E+01 -0.11150634623E+03  0.18514149413E+03  0.12509000000E+03 0.  0.
         25    1    3    3    0    0  0.10167658893E+03 -0.42599595503E+02 -0.21319808391E+03  0.27065436512E+03  0.12509000000E+03 0.  0.
         25    1    4    4    0    0 -0.23200378618E+02  0.48738317942E+02 -0.13451613119E+03  0.19145698957E+03  0.12509000000E+03 0.  0.
<mgrwt>
<rscale>  2 0.45612797E+03</rscale>
<asrwt>0</asrwt>
<pdfrwt beam="1">  1       21 0.13825904E-01 0.45612797E+03</pdfrwt>
<pdfrwt beam="2">  1       21 0.81358336E-01 0.45612797E+03</pdfrwt>
<totfact> 0.55365661E+04</totfact>
</mgrwt>
</event>
<event>
 7    0  0.4707675E-002  0.4399920E+03  0.7546771E-02  0.1030749E+00
         21   -1    0    0  502  501  0.00000000000E+00  0.00000000000E+00  0.25237234385E+03  0.25237234385E+03  0.00000000000E+00 0.  1.
         21   -1    0    0  501  502 -0.00000000000E+00 -0.00000000000E+00 -0.19177312210E+03  0.19177312210E+03  0.00000000000E+00 0.  1.
      99926    2    1    2    0    0  0.71054273576E-14  0.00000000000E+00  0.60599221747E+02  0.44414546594E+03  0.43999196497E+03 0.  0.
      99925    2    3    3    0    0 -0.53929747805E+02  0.53667220218E+02  0.10147342750E+03  0.29213626550E+03  0.26316943764E+03 0.  0.
         25    1    4    4    0    0 -0.51390665847E+02  0.60822317137E+02  0.47698983187E+02  0.15576602934E+03  0.12509000000E+03 0.  0.
         25    1    3    3    0    0  0.53929747805E+02 -0.53667220218E+02 -0.40874205755E+02  0.15200920045E+03  0.12509000000E+03 0.  0.
         25    1    4    4    0    0 -0.25390819579E+01 -0.71550969194E+01  0.53774444316E+02  0.13637023616E+03  0.12509000000E+03 0.  0.
<mgrwt>
<rscale>  2 0.43999196E+03</rscale>
<asrwt>0</asrwt>
<pdfrwt beam="1">  1       21 0.37113580E-01 0.43999196E+03</pdfrwt>
<pdfrwt beam="2">  1       21 0.28201930E-01 0.43999196E+03</pdfrwt>
<totfact> 0.78313354E+04</totfact>
</mgrwt>
</event>
<event>
 7    0  0.4707675E-002  0.4544927E+03  0.7546771E-02  0.1026391E+00
         21   -1    0    0  502  501  0.00000000000E+00  0.00000000000E+00  0.28787492211E+03  0.28787492211E+03  0.00000000000E+00 0.  1.
         21   -1    0    0  501  502 -0.00000000000E+00 -0.00000000000E+00 -0.17938660273E+03  0.17938660273E+03  0.00000000000E+00 0.  1.
      99926    2    1    2    0    0  0.00000000000E+00  0.71054273576E-14  0.10848831938E+03  0.46726152484E+03  0.45449270308E+03 0.  0.
      99925    2    3    3    0    0 -0.15689496873E+02 -0.52813760577E+02  0.16940644234E+03  0.31761534405E+03  0.26295533927E+03 0.  0.
         25    1    3    3    0    0  0.15689496873E+02  0.52813760577E+02 -0.60918122963E+02  0.14964618079E+03  0.12509000000E+03 0.  0.
         25    1    4    4    0    0 -0.97692357063E+01 -0.21485557532E+02  0.36703915606E+02  0.13248302785E+03  0.12509000000E+03 0.  0.
         25    1    4    4    0    0 -0.59202611665E+01 -0.31328203045E+02  0.13270252673E+03  0.18513231620E+03  0.12509000000E+03 0.  0.
<mgrwt>
<rscale>  2 0.45449270E+03</rscale>
<asrwt>0</asrwt>
<pdfrwt beam="1">  1       21 0.42334547E-01 0.45449270E+03</pdfrwt>
<pdfrwt beam="2">  1       21 0.26380383E-01 0.45449270E+03</pdfrwt>
<totfact> 0.67912961E+04</totfact>
</mgrwt>
</event>
<event>
 7    0  0.4707675E-002  0.4584120E+03  0.7546771E-02  0.1025243E+00
         21   -1    0    0  502  501  0.00000000000E+00  0.00000000000E+00  0.46333210144E+03  0.46333210144E+03  0.00000000000E+00 0.  1.
         21   -1    0    0  501  502 -0.00000000000E+00 -0.00000000000E+00 -0.11338605475E+03  0.11338605475E+03  0.00000000000E+00 0.  1.
      99926    2    1    2    0    0  0.00000000000E+00  0.00000000000E+00  0.34994604669E+03  0.57671815619E+03  0.45841203746E+03 0.  0.
      99925    2    3    3    0    0  0.75613965313E+02 -0.21530811727E+02  0.11110325264E+03  0.29587222695E+03  0.26270781170E+03 0.  0.
         25    1    4    4    0    0  0.34582000298E+02  0.24224792704E+02  0.75244853425E+02  0.15196069029E+03  0.12509000000E+03 0.  0.
         25    1    3    3    0    0 -0.75613965313E+02  0.21530811727E+02  0.23884279405E+03  0.28084592924E+03  0.12509000000E+03 0.  0.
         25    1    4    4    0    0  0.41031965015E+02 -0.45755604431E+02  0.35858399215E+02  0.14391153666E+03  0.12509000000E+03 0.  0.
<mgrwt>
<rscale>  2 0.45841204E+03</rscale>
<asrwt>0</asrwt>
<pdfrwt beam="1">  1       21 0.68137073E-01 0.45841204E+03</pdfrwt>
<pdfrwt beam="2">  1       21 0.16674420E-01 0.45841204E+03</pdfrwt>
<totfact> 0.58539421E+04</totfact>
</mgrwt>
</event>
<event>
 7    0  0.4707675E-002  0.4573416E+03  0.7546771E-02  0.1025555E+00
         21   -1    0    0  502  501  0.00000000000E+00  0.00000000000E+00  0.39646332290E+02  0.39646332290E+02  0.00000000000E+00 0.  1.
         21   -1    0    0  501  502 -0.00000000000E+00 -0.00000000000E+00 -0.13189196965E+04  0.13189196965E+04  0.00000000000E+00 0.  1.
      99926    2    1    2    0    0 -0.71054273576E-14  0.00000000000E+00 -0.12792733642E+04  0.13585660288E+04  0.45734157280E+03 0.  0.
      99925    2    3    3    0    0 -0.62886131758E+02 -0.31939866611E+02 -0.10747337301E+04  0.11086484611E+04  0.26281932751E+03 0.  0.
         25    1    4    4    0    0 -0.70459563922E+02 -0.10473619853E+02 -0.61839021874E+03  0.63492378881E+03  0.12509000000E+03 0.  0.
         25    1    4    4    0    0  0.75734321643E+01 -0.21466246758E+02 -0.45634351139E+03  0.47372467227E+03  0.12509000000E+03 0.  0.
         25    1    3    3    0    0  0.62886131758E+02  0.31939866611E+02 -0.20453963410E+03  0.24991756774E+03  0.12509000000E+03 0.  0.
<mgrwt>
<rscale>  2 0.45734157E+03</rscale>
<asrwt>0</asrwt>
<pdfrwt beam="1">  1       21 0.58303433E-02 0.45734157E+03</pdfrwt>
<pdfrwt beam="2">  1       21 0.19395877E+00 0.45734157E+03</pdfrwt>
<totfact> 0.26963275E+04</totfact>
</mgrwt>
</event>
<event>
 7    0  0.4707675E-002  0.4542147E+03  0.7546771E-02  0.1026473E+00
         21   -1    0    0  502  501  0.00000000000E+00  0.00000000000E+00  0.76128086834E+02  0.76128086834E+02  0.00000000000E+00 0. -1.
         21   -1    0    0  501  502 -0.00000000000E+00 -0.00000000000E+00 -0.67751267855E+03  0.67751267855E+03  0.00000000000E+00 0. -1.
      99926    2    1    2    0    0  0.00000000000E+00 -0.35527136788E-14 -0.60138459172E+03  0.75364076539E+03  0.45421468063E+03 0.  0.
      99925    2    3    3    0    0  0.70408890906E+02  0.17342129368E+02 -0.52112686541E+03  0.58827156601E+03  0.26311986652E+03 0.  0.
         25    1    3    3    0    0 -0.70408890906E+02 -0.17342129368E+02 -0.80257726309E+02  0.16536919937E+03  0.12509000000E+03 0.  0.
         25    1    4    4    0    0  0.24134146089E+02  0.43773928254E+02 -0.22165676837E+03  0.25937973103E+03  0.12509000000E+03 0.  0.
         25    1    4    4    0    0  0.46274744817E+02 -0.26431798886E+02 -0.29947009704E+03  0.32889183498E+03  0.12509000000E+03 0.  0.
<mgrwt>
<rscale>  2 0.45421468E+03</rscale>
<asrwt>0</asrwt>
<pdfrwt beam="1">  1       21 0.11195307E-01 0.45421468E+03</pdfrwt>
<pdfrwt beam="2">  1       21 0.99634213E-01 0.45421468E+03</pdfrwt>
<totfact> 0.50395818E+04</totfact>
</mgrwt>
</event>
<event>
 7    0  0.4707675E-002  0.4409833E+03  0.7546771E-02  0.1030446E+00
         21   -1    0    0  502  501  0.00000000000E+00  0.00000000000E+00  0.17556959176E+04  0.17556959176E+04  0.00000000000E+00 0. -1.
         21   -1    0    0  501  502 -0.00000000000E+00 -0.00000000000E+00 -0.27690762063E+02  0.27690762063E+02  0.00000000000E+00 0. -1.
      99926    2    1    2    0    0 -0.35527136788E-14  0.00000000000E+00  0.17280051556E+04  0.17833866797E+04  0.44098325551E+03 0.  0.
      99925    2    3    3    0    0 -0.52004855547E+01 -0.72435757528E+02  0.13751491593E+04  0.14020353374E+04  0.26342720657E+03 0.  0.
         25    1    4    4    0    0 -0.33149814513E+02 -0.37816166978E+02  0.83465201327E+03  0.84547055777E+03  0.12509000000E+03 0.  0.
         25    1    4    4    0    0  0.27949328958E+02 -0.34619590549E+02  0.54049714601E+03  0.55656477968E+03  0.12509000000E+03 0.  0.
         25    1    3    3    0    0  0.52004855547E+01  0.72435757528E+02  0.35285599630E+03  0.38135134226E+03  0.12509000000E+03 0.  0.
<mgrwt>
<rscale>  2 0.44098326E+03</rscale>
<asrwt>0</asrwt>
<pdfrwt beam="1">  1       21 0.25819050E+00 0.44098326E+03</pdfrwt>
<pdfrwt beam="2">  1       21 0.40721721E-02 0.44098326E+03</pdfrwt>
<totfact> 0.19631333E+04</totfact>
</mgrwt>
</event>
<event>
 7    0  0.4707675E-002  0.4547556E+03  0.7546771E-02  0.1026313E+00
         21   -1    0    0  502  501  0.00000000000E+00  0.00000000000E+00  0.19481644415E+03  0.19481644415E+03  0.00000000000E+00 0.  1.
         21   -1    0    0  501  502 -0.00000000000E+00 -0.00000000000E+00 -0.26538143884E+03  0.26538143884E+03  0.00000000000E+00 0.  1.
      99926    2    1    2    0    0 -0.71054273576E-14  0.00000000000E+00 -0.70564994685E+02  0.46019788299E+03  0.45475561902E+03 0.  0.
      99925    2    3    3    0    0 -0.16329572876E+02 -0.11010830856E+03 -0.25064789973E+02  0.28668053143E+03  0.26299617647E+03 0.  0.
         25    1    3    3    0    0  0.16329572876E+02  0.11010830856E+03 -0.45500204712E+02  0.17351735156E+03  0.12509000000E+03 0.  0.
         25    1    4    4    0    0  0.27986362488E+02 -0.57684720262E+02  0.58377589873E+01  0.14068529051E+03  0.12509000000E+03 0.  0.
         25    1    4    4    0    0 -0.44315935363E+02 -0.52423588296E+02 -0.30902548960E+02  0.14599524091E+03  0.12509000000E+03 0.  0.
<mgrwt>
<rscale>  2 0.45475562E+03</rscale>
<asrwt>0</asrwt>
<pdfrwt beam="1">  1       21 0.28649477E-01 0.45475562E+03</pdfrwt>
<pdfrwt beam="2">  1       21 0.39026682E-01 0.45475562E+03</pdfrwt>
<totfact> 0.68299142E+04</totfact>
</mgrwt>
</event>
<event>
 7    0  0.4707675E-002  0.4560778E+03  0.7546771E-02  0.1025925E+00
         21   -1    0    0  502  501  0.00000000000E+00  0.00000000000E+00  0.25299895837E+03  0.25299895837E+03  0.00000000000E+00 0.  1.
         21   -1    0    0  501  502 -0.00000000000E+00 -0.00000000000E+00 -0.20554128847E+03  0.20554128847E+03  0.00000000000E+00 0.  1.
      99926    2    1    2    0    0  0.00000000000E+00 -0.71054273576E-14  0.47457669902E+02  0.45854024685E+03  0.45607776480E+03 0.  0.
      99925    2    3    3    0    0  0.83775059342E+02 -0.60586686498E+02 -0.18919460577E+02  0.28320502876E+03  0.26297934364E+03 0.  0.
         25    1    3    3    0    0 -0.83775059342E+02  0.60586686498E+02  0.66377130479E+02  0.17533521808E+03  0.12509000000E+03 0.  0.
         25    1    4    4    0    0  0.44712781430E+02 -0.50397787233E+02 -0.45328944608E+02  0.14913547901E+03  0.12509000000E+03 0.  0.
         25    1    4    4    0    0  0.39062277913E+02 -0.10188899265E+02  0.26409484030E+02  0.13406954975E+03  0.12509000000E+03 0.  0.
<mgrwt>
<rscale>  2 0.45607776E+03</rscale>
<asrwt>0</asrwt>
<pdfrwt beam="1">  1       21 0.37205729E-01 0.45607776E+03</pdfrwt>
<pdfrwt beam="2">  1       21 0.30226660E-01 0.45607776E+03</pdfrwt>
<totfact> 0.67703133E+04</totfact>
</mgrwt>
</event>
<event>
 7    0  0.4707675E-002  0.4541902E+03  0.7546771E-02  0.1026480E+00
         21   -1    0    0  502  501  0.00000000000E+00  0.00000000000E+00  0.74062046942E+02  0.74062046942E+02  0.00000000000E+00 0. -1.
         21   -1    0    0  501  502 -0.00000000000E+00 -0.00000000000E+00 -0.69633765814E+03  0.69633765814E+03  0.00000000000E+00 0. -1.
      99926    2    1    2    0    0  0.00000000000E+00  0.14210854715E-13 -0.62227561120E+03  0.77039970509E+03  0.45419023470E+03 0.  0.
      99925    2    3    3    0    0 -0.33530762388E+02 -0.10729742449E+03 -0.39448358324E+03  0.48724998244E+03  0.26297946425E+03 0.  0.
         25    1    3    3    0    0  0.33530762388E+02  0.10729742449E+03 -0.22779202797E+03  0.28314972264E+03  0.12509000000E+03 0.  0.
         25    1    4    4    0    0  0.12583873067E+02 -0.39405535993E+02 -0.14152418836E+03  0.19335913250E+03  0.12509000000E+03 0.  0.
         25    1    4    4    0    0 -0.46114635455E+02 -0.67891888497E+02 -0.25295939487E+03  0.29389084995E+03  0.12509000000E+03 0.  0.
<mgrwt>
<rscale>  2 0.45419023E+03</rscale>
<asrwt>0</asrwt>
<pdfrwt beam="1">  1       21 0.10891478E-01 0.45419023E+03</pdfrwt>
<pdfrwt beam="2">  1       21 0.10240260E+00 0.45419023E+03</pdfrwt>
<totfact> 0.49544007E+04</totfact>
</mgrwt>
</event>
<event>
 7    0  0.4707675E-002  0.4644595E+03  0.7546771E-02  0.1023496E+00
         21   -1    0    0  502  501  0.00000000000E+00  0.00000000000E+00  0.59153660064E+03  0.59153660064E+03  0.00000000000E+00 0.  1.
         21   -1    0    0  501  502 -0.00000000000E+00 -0.00000000000E+00 -0.91170440417E+02  0.91170440417E+02  0.00000000000E+00 0.  1.
      99926    2    1    2    0    0  0.00000000000E+00  0.00000000000E+00  0.50036616023E+03  0.68270704106E+03  0.46445948113E+03 0.  0.
      99925    2    3    3    0    0  0.33870860284E+02  0.60866997517E+02  0.45900850016E+03  0.53367687395E+03  0.26319227953E+03 0.  0.
         25    1    4    4    0    0  0.32412230874E+02  0.55221024902E+02  0.18421425895E+03  0.23169444448E+03  0.12509000000E+03 0.  0.
         25    1    4    4    0    0  0.14586294099E+01  0.56459726149E+01  0.27479424121E+03  0.30198242947E+03  0.12509000000E+03 0.  0.
         25    1    3    3    0    0 -0.33870860284E+02 -0.60866997517E+02  0.41357660065E+02  0.14903016711E+03  0.12509000000E+03 0.  0.
<mgrwt>
<rscale>  2 0.46445948E+03</rscale>
<asrwt>0</asrwt>
<pdfrwt beam="1">  1       21 0.86990675E-01 0.46445948E+03</pdfrwt>
<pdfrwt beam="2">  1       21 0.13407418E-01 0.46445948E+03</pdfrwt>
<totfact> 0.50018715E+04</totfact>
</mgrwt>
</event>
<event>
 7    0  0.4707675E-002  0.4641680E+03  0.7546771E-02  0.1023579E+00
         21   -1    0    0  502  501  0.00000000000E+00  0.00000000000E+00  0.28142176310E+03  0.28142176310E+03  0.00000000000E+00 0. -1.
         21   -1    0    0  501  502 -0.00000000000E+00 -0.00000000000E+00 -0.19139590568E+03  0.19139590568E+03  0.00000000000E+00 0. -1.
      99926    2    1    2    0    0  0.14210854715E-13  0.00000000000E+00  0.90025857421E+02  0.47281766878E+03  0.46416795765E+03 0.  0.
      99925    2    3    3    0    0 -0.89557185858E+02 -0.81927395009E+02  0.46009884384E+02  0.29304697714E+03  0.26272996357E+03 0.  0.
         25    1    3    3    0    0  0.89557185858E+02  0.81927395009E+02  0.44015973037E+02  0.17977069164E+03  0.12509000000E+03 0.  0.
         25    1    4    4    0    0 -0.31691591167E+02 -0.57907142488E+02  0.57482916348E+02  0.15267412313E+03  0.12509000000E+03 0.  0.
         25    1    4    4    0    0 -0.57865594691E+02 -0.24020252521E+02 -0.11473031964E+02  0.14037285401E+03  0.12509000000E+03 0.  0.
<mgrwt>
<rscale>  2 0.46416796E+03</rscale>
<asrwt>0</asrwt>
<pdfrwt beam="1">  1       21 0.41385553E-01 0.46416796E+03</pdfrwt>
<pdfrwt beam="2">  1       21 0.28146457E-01 0.46416796E+03</pdfrwt>
<totfact> 0.62549504E+04</totfact>
</mgrwt>
</event>
<event>
 7    0  0.4707675E-002  0.4581870E+03  0.7546771E-02  0.1025308E+00
         21   -1    0    0  502  501  0.00000000000E+00  0.00000000000E+00  0.13393283798E+03  0.13393283798E+03  0.00000000000E+00 0. -1.
         21   -1    0    0  501  502 -0.00000000000E+00 -0.00000000000E+00 -0.39186671087E+03  0.39186671087E+03  0.00000000000E+00 0. -1.
      99926    2    1    2    0    0 -0.14210854715E-13  0.00000000000E+00 -0.25793387289E+03  0.52579954885E+03  0.45818695178E+03 0.  0.
      99925    2    3    3    0    0 -0.10724723106E+03 -0.44171676315E+02 -0.16773214630E+03  0.33283072976E+03  0.26303824097E+03 0.  0.
         25    1    3    3    0    0  0.10724723106E+03  0.44171676315E+02 -0.90201726589E+02  0.19296881908E+03  0.12509000000E+03 0.  0.
         25    1    4    4    0    0 -0.67059152877E+02 -0.60519962898E+02 -0.78023289033E+02  0.17290094744E+03  0.12509000000E+03 0.  0.
         25    1    4    4    0    0 -0.40188078183E+02  0.16348286583E+02 -0.89708857270E+02  0.15992978233E+03  0.12509000000E+03 0.  0.
<mgrwt>
<rscale>  2 0.45818695E+03</rscale>
<asrwt>0</asrwt>
<pdfrwt beam="1">  1       21 0.19696005E-01 0.45818695E+03</pdfrwt>
<pdfrwt beam="2">  1       21 0.57627458E-01 0.45818695E+03</pdfrwt>
<totfact> 0.61912697E+04</totfact>
</mgrwt>
</event>
<event>
 7    0  0.4707675E-002  0.4591453E+03  0.7546771E-02  0.1025029E+00
         21   -1    0    0  502  501  0.00000000000E+00  0.00000000000E+00  0.26446430775E+03  0.26446430775E+03  0.00000000000E+00 0.  1.
         21   -1    0    0  501  502 -0.00000000000E+00 -0.00000000000E+00 -0.19928432208E+03  0.19928432208E+03  0.00000000000E+00 0.  1.
      99926    2    1    2    0    0  0.00000000000E+00  0.00000000000E+00  0.65179985669E+02  0.46374862983E+03  0.45914525059E+03 0.  0.
      99925    2    3    3    0    0 -0.75864606808E+02  0.88711502272E+02  0.32156605990E+02  0.28949817529E+03  0.26296383209E+03 0.  0.
         25    1    4    4    0    0 -0.10320610016E+02  0.30681476791E+02  0.43656026851E+02  0.13638630719E+03  0.12509000000E+03 0.  0.
         25    1    4    4    0    0 -0.65543996791E+02  0.58030025481E+02 -0.11499420861E+02  0.15311186810E+03  0.12509000000E+03 0.  0.
         25    1    3    3    0    0  0.75864606808E+02 -0.88711502272E+02  0.33023379679E+02  0.17425045454E+03  0.12509000000E+03 0.  0.
<mgrwt>
<rscale>  2 0.45914525E+03</rscale>
<asrwt>0</asrwt>
<pdfrwt beam="1">  1       21 0.38891810E-01 0.45914525E+03</pdfrwt>
<pdfrwt beam="2">  1       21 0.29306518E-01 0.45914525E+03</pdfrwt>
<totfact> 0.65709065E+04</totfact>
</mgrwt>
</event>
<event>
 7    0  0.4707675E-002  0.4489425E+03  0.7546771E-02  0.1028038E+00
         21   -1    0    0  502  501  0.00000000000E+00  0.00000000000E+00  0.35654045340E+03  0.35654045340E+03  0.00000000000E+00 0.  1.
         21   -1    0    0  501  502 -0.00000000000E+00 -0.00000000000E+00 -0.14132291193E+03  0.14132291193E+03  0.00000000000E+00 0.  1.
      99926    2    1    2    0    0 -0.14210854715E-13 -0.71054273576E-14  0.21521754147E+03  0.49786336533E+03  0.44894246889E+03 0.  0.
      99925    2    3    3    0    0  0.87883541764E+02  0.47618147731E+02  0.18045127704E+03  0.33401219460E+03  0.26269845422E+03 0.  0.
         25    1    4    4    0    0  0.77126081878E+02  0.60314631351E+01  0.11344356239E+03  0.18574649660E+03  0.12509000000E+03 0.  0.
         25    1    4    4    0    0  0.10757459885E+02  0.41586684596E+02  0.67007714650E+02  0.14826569799E+03  0.12509000000E+03 0.  0.
         25    1    3    3    0    0 -0.87883541764E+02 -0.47618147731E+02  0.34766264430E+02  0.16385117073E+03  0.12509000000E+03 0.  0.
<mgrwt>
<rscale>  2 0.44894247E+03</rscale>
<asrwt>0</asrwt>
<pdfrwt beam="1">  1       21 0.52432420E-01 0.44894247E+03</pdfrwt>
<pdfrwt beam="2">  1       21 0.20782781E-01 0.44894247E+03</pdfrwt>
<totfact> 0.68663721E+04</totfact>
</mgrwt>
</event>
<event>
 7    0  0.4707675E-002  0.4571662E+03  0.7546771E-02  0.1025606E+00
         21   -1    0    0  502  501  0.00000000000E+00  0.00000000000E+00  0.34322466620E+03  0.34322466620E+03  0.00000000000E+00 0.  1.
         21   -1    0    0  501  502 -0.00000000000E+00 -0.00000000000E+00 -0.15223330238E+03  0.15223330238E+03  0.00000000000E+00 0.  1.
      99926    2    1    2    0    0 -0.14210854715E-13 -0.66613381478E-15  0.19099136381E+03  0.49545796858E+03  0.45716615970E+03 0.  0.
      99925    2    3    3    0    0  0.99548383440E+02  0.16993301370E+01  0.57074316540E+02  0.28690569211E+03  0.26295366548E+03 0.  0.
         25    1    3    3    0    0 -0.99548383440E+02 -0.16993301370E+01  0.13391704727E+03  0.20855227647E+03  0.12509000000E+03 0.  0.
         25    1    4    4    0    0  0.18245590540E+02  0.22328870330E+02  0.84782601184E+01  0.12865018080E+03  0.12509000000E+03 0.  0.
         25    1    4    4    0    0  0.81302792899E+02 -0.20629540193E+02  0.48596056422E+02  0.15825551131E+03  0.12509000000E+03 0.  0.
<mgrwt>
<rscale>  2 0.45716616E+03</rscale>
<asrwt>0</asrwt>
<pdfrwt beam="1">  1       21 0.50474216E-01 0.45716616E+03</pdfrwt>
<pdfrwt beam="2">  1       21 0.22387250E-01 0.45716616E+03</pdfrwt>
<totfact> 0.64475059E+04</totfact>
</mgrwt>
</event>
<event>
 7    0  0.4707675E-002  0.4480528E+03  0.7546771E-02  0.1028304E+00
         21   -1    0    0  502  501  0.00000000000E+00  0.00000000000E+00  0.84424242063E+03  0.84424242063E+03  0.00000000000E+00 0.  1.
         21   -1    0    0  501  502 -0.00000000000E+00 -0.00000000000E+00 -0.59447170665E+02  0.59447170665E+02  0.00000000000E+00 0.  1.
      99926    2    1    2    0    0  0.00000000000E+00  0.00000000000E+00  0.78479524996E+03  0.90368959130E+03  0.44805277931E+03 0.  0.
      99925    2    3    3    0    0 -0.99946912701E+02 -0.25822096486E+02  0.55325585390E+03  0.62099865395E+03  0.26247118377E+03 0.  0.
         25    1    4    4    0    0 -0.35704666147E+02 -0.25806642988E+02  0.34594331866E+03  0.37049304154E+03  0.12509000000E+03 0.  0.
         25    1    4    4    0    0 -0.64242246554E+02 -0.15453498205E-01  0.20731253524E+03  0.25050561241E+03  0.12509000000E+03 0.  0.
         25    1    3    3    0    0  0.99946912701E+02  0.25822096486E+02  0.23153939606E+03  0.28269093734E+03  0.12509000000E+03 0.  0.
<mgrwt>
<rscale>  2 0.44805278E+03</rscale>
<asrwt>0</asrwt>
<pdfrwt beam="1">  1       21 0.12415329E+00 0.44805278E+03</pdfrwt>
<pdfrwt beam="2">  1       21 0.87422315E-02 0.44805278E+03</pdfrwt>
<totfact> 0.45498374E+04</totfact>
</mgrwt>
</event>
<event>
 7    0  0.4707675E-002  0.4579862E+03  0.7546771E-02  0.1025367E+00
         21   -1    0    0  502  501  0.00000000000E+00  0.00000000000E+00  0.65095827183E+03  0.65095827183E+03  0.00000000000E+00 0.  1.
         21   -1    0    0  501  502 -0.00000000000E+00 -0.00000000000E+00 -0.80554825574E+02  0.80554825574E+02  0.00000000000E+00 0.  1.
      99926    2    1    2    0    0  0.00000000000E+00  0.00000000000E+00  0.57040344626E+03  0.73151309740E+03  0.45798615719E+03 0.  0.
      99925    2    3    3    0    0  0.17282823615E+02 -0.11168597477E+03  0.31667230009E+03  0.42688306673E+03  0.26301207969E+03 0.  0.
         25    1    3    3    0    0 -0.17282823615E+02  0.11168597477E+03  0.25373114617E+03  0.30463003067E+03  0.12509000000E+03 0.  0.
         25    1    4    4    0    0 -0.25735643926E+02 -0.70454965290E+02  0.13810889391E+03  0.20086761855E+03  0.12509000000E+03 0.  0.
         25    1    4    4    0    0  0.43018467541E+02 -0.41231009485E+02  0.17856340618E+03  0.22601544818E+03  0.12509000000E+03 0.  0.
<mgrwt>
<rscale>  2 0.45798616E+03</rscale>
<asrwt>0</asrwt>
<pdfrwt beam="1">  1       21 0.95729155E-01 0.45798616E+03</pdfrwt>
<pdfrwt beam="2">  1       21 0.11846298E-01 0.45798616E+03</pdfrwt>
<totfact> 0.50039832E+04</totfact>
</mgrwt>
</event>
<event>
 7    0  0.4707675E-002  0.4545261E+03  0.7546771E-02  0.1026381E+00
         21   -1    0    0  502  501  0.00000000000E+00  0.00000000000E+00  0.39495673252E+03  0.39495673252E+03  0.00000000000E+00 0. -1.
         21   -1    0    0  501  502 -0.00000000000E+00 -0.00000000000E+00 -0.13076998718E+03  0.13076998718E+03  0.00000000000E+00 0. -1.
      99926    2    1    2    0    0  0.00000000000E+00 -0.14210854715E-13  0.26418674534E+03  0.52572671970E+03  0.45452606899E+03 0.  0.
      99925    2    3    3    0    0  0.89083700444E+01 -0.10529537926E+03  0.12095766193E+03  0.30817545129E+03  0.26301117247E+03 0.  0.
         25    1    4    4    0    0 -0.23642135757E+02 -0.38046530003E+02  0.86209937874E+02  0.15838608056E+03  0.12509000000E+03 0.  0.
         25    1    3    3    0    0 -0.89083700444E+01  0.10529537926E+03  0.14322908342E+03  0.21755126841E+03  0.12509000000E+03 0.  0.
         25    1    4    4    0    0  0.32550505802E+02 -0.67248849259E+02  0.34747724052E+02  0.14978937072E+03  0.12509000000E+03 0.  0.
<mgrwt>
<rscale>  2 0.45452607E+03</rscale>
<asrwt>0</asrwt>
<pdfrwt beam="1">  1       21 0.58081872E-01 0.45452607E+03</pdfrwt>
<pdfrwt beam="2">  1       21 0.19230881E-01 0.45452607E+03</pdfrwt>
<totfact> 0.63735841E+04</totfact>
</mgrwt>
</event>
<event>
 7    0  0.4707675E-002  0.4539598E+03  0.7546771E-02  0.1026548E+00
         21   -1    0    0  502  501  0.00000000000E+00  0.00000000000E+00  0.50005739373E+03  0.50005739373E+03  0.00000000000E+00 0. -1.
         21   -1    0    0  501  502 -0.00000000000E+00 -0.00000000000E+00 -0.10302791557E+03  0.10302791557E+03  0.00000000000E+00 0. -1.
      99926    2    1    2    0    0  0.00000000000E+00  0.00000000000E+00  0.39702947817E+03  0.60308530930E+03  0.45395978210E+03 0.  0.
      99925    2    3    3    0    0  0.10878893741E+03  0.23476477607E+02  0.22735650594E+03  0.36471038716E+03  0.26255762759E+03 0.  0.
         25    1    4    4    0    0  0.61206178238E+02  0.26605086183E+02  0.16343351114E+03  0.21636091960E+03  0.12509000000E+03 0.  0.
         25    1    3    3    0    0 -0.10878893741E+03 -0.23476477607E+02  0.16967297222E+03  0.23837492214E+03  0.12509000000E+03 0.  0.
         25    1    4    4    0    0  0.47582759170E+02 -0.31286085755E+01  0.63922994802E+02  0.14834946756E+03  0.12509000000E+03 0.  0.
<mgrwt>
<rscale>  2 0.45395978E+03</rscale>
<asrwt>0</asrwt>
<pdfrwt beam="1">  1       21 0.73537851E-01 0.45395978E+03</pdfrwt>
<pdfrwt beam="2">  1       21 0.15151164E-01 0.45395978E+03</pdfrwt>
<totfact> 0.58971914E+04</totfact>
</mgrwt>
</event>
<event>
 7    0  0.4707675E-002  0.4527847E+03  0.7546771E-02  0.1026895E+00
         21   -1    0    0  502  501  0.00000000000E+00  0.00000000000E+00  0.68035497852E+03  0.68035497852E+03  0.00000000000E+00 0. -1.
         21   -1    0    0  501  502 -0.00000000000E+00 -0.00000000000E+00 -0.75333459166E+02  0.75333459166E+02  0.00000000000E+00 0. -1.
      99926    2    1    2    0    0  0.61062266354E-15  0.14210854715E-13  0.60502151936E+03  0.75568843769E+03  0.45278469052E+03 0.  0.
      99925    2    3    3    0    0  0.30148121576E+00 -0.11070135903E+03  0.39615518639E+03  0.48824211610E+03  0.26303336376E+03 0.  0.
         25    1    4    4    0    0 -0.71942857335E+01 -0.22137179312E+02  0.13628804482E+03  0.18645040015E+03  0.12509000000E+03 0.  0.
         25    1    4    4    0    0  0.74957669493E+01 -0.88564179718E+02  0.25986714157E+03  0.30179171596E+03  0.12509000000E+03 0.  0.
         25    1    3    3    0    0 -0.30148121576E+00  0.11070135903E+03  0.20886633297E+03  0.26744632158E+03  0.12509000000E+03 0.  0.
<mgrwt>
<rscale>  2 0.45278469E+03</rscale>
<asrwt>0</asrwt>
<pdfrwt beam="1">  1       21 0.10005220E+00 0.45278469E+03</pdfrwt>
<pdfrwt beam="2">  1       21 0.11078450E-01 0.45278469E+03</pdfrwt>
<totfact> 0.50860939E+04</totfact>
</mgrwt>
</event>
<event>
 7    0  0.4707675E-002  0.4564186E+03  0.7546771E-02  0.1025825E+00
         21   -1    0    0  502  501  0.00000000000E+00  0.00000000000E+00  0.27560026757E+03  0.27560026757E+03  0.00000000000E+00 0.  1.
         21   -1    0    0  501  502 -0.00000000000E+00 -0.00000000000E+00 -0.18896746424E+03  0.18896746424E+03  0.00000000000E+00 0.  1.
      99926    2    1    2    0    0  0.00000000000E+00  0.00000000000E+00  0.86632803336E+02  0.46456773181E+03  0.45641859605E+03 0.  0.
      99925    2    3    3    0    0 -0.58139556610E+02 -0.78452159991E+02 -0.64600829423E+01  0.28058745290E+03  0.26296888904E+03 0.  0.
         25    1    3    3    0    0  0.58139556610E+02  0.78452159991E+02  0.93092886278E+02  0.18398027890E+03  0.12509000000E+03 0.  0.
         25    1    4    4    0    0 -0.32815998379E+02 -0.21173578915E+02  0.33195704059E+02  0.13518384912E+03  0.12509000000E+03 0.  0.
         25    1    4    4    0    0 -0.25323558231E+02 -0.57278581077E+02 -0.39655787002E+02  0.14540360379E+03  0.12509000000E+03 0.  0.
<mgrwt>
<rscale>  2 0.45641860E+03</rscale>
<asrwt>0</asrwt>
<pdfrwt beam="1">  1       21 0.40529451E-01 0.45641860E+03</pdfrwt>
<pdfrwt beam="2">  1       21 0.27789333E-01 0.45641860E+03</pdfrwt>
<totfact> 0.67082598E+04</totfact>
</mgrwt>
</event>
<event>
 7    0  0.4707675E-002  0.4692505E+03  0.7546771E-02  0.1022132E+00
         21   -1    0    0  502  501  0.00000000000E+00  0.00000000000E+00  0.24338957319E+03  0.24338957319E+03  0.00000000000E+00 0. -1.
         21   -1    0    0  501  502 -0.00000000000E+00 -0.00000000000E+00 -0.22617649082E+03  0.22617649082E+03  0.00000000000E+00 0. -1.
      99926    2    1    2    0    0  0.00000000000E+00  0.00000000000E+00  0.17213082371E+02  0.46956606401E+03  0.46925046432E+03 0.  0.
      99925    2    3    3    0    0 -0.11952395069E+03 -0.27981848553E+02 -0.17955478433E+02  0.29081121959E+03  0.26302054595E+03 0.  0.
         25    1    4    4    0    0 -0.26313584074E+02 -0.34637094365E+02 -0.23810080162E+02  0.13456062214E+03  0.12509000000E+03 0.  0.
         25    1    3    3    0    0  0.11952395069E+03  0.27981848553E+02  0.35168560804E+02  0.17875484443E+03  0.12509000000E+03 0.  0.
         25    1    4    4    0    0 -0.93210366615E+02  0.66552458117E+01  0.58546017295E+01  0.15625059745E+03  0.12509000000E+03 0.  0.
<mgrwt>
<rscale>  2 0.46925046E+03</rscale>
<asrwt>0</asrwt>
<pdfrwt beam="1">  1       21 0.35792584E-01 0.46925046E+03</pdfrwt>
<pdfrwt beam="2">  1       21 0.33261249E-01 0.46925046E+03</pdfrwt>
<totfact> 0.60334044E+04</totfact>
</mgrwt>
</event>
<event>
 7    0  0.4707675E-002  0.4687904E+03  0.7546771E-02  0.1022262E+00
         21   -1    0    0  502  501  0.00000000000E+00  0.00000000000E+00  0.14936125140E+04  0.14936125140E+04  0.00000000000E+00 0.  1.
         21   -1    0    0  501  502 -0.00000000000E+00 -0.00000000000E+00 -0.36784041191E+02  0.36784041191E+02  0.00000000000E+00 0.  1.
      99926    2    1    2    0    0 -0.14210854715E-13  0.17763568394E-14  0.14568284728E+04  0.15303965552E+04  0.46879037635E+03 0.  0.
      99925    2    3    3    0    0  0.76129340240E+02  0.91716574864E+01  0.12307990095E+04  0.12609218400E+04  0.26301689882E+03 0.  0.
         25    1    3    3    0    0 -0.76129340240E+02 -0.91716574864E+01  0.22602946337E+03  0.26947471525E+03  0.12509000000E+03 0.  0.
         25    1    4    4    0    0  0.69501210779E+02  0.27023284698E+02  0.58593950315E+03  0.60376591960E+03  0.12509000000E+03 0.  0.
         25    1    4    4    0    0  0.66281294611E+01 -0.17851627211E+02  0.64485950633E+03  0.65715592038E+03  0.12509000000E+03 0.  0.
<mgrwt>
<rscale>  2 0.46879038E+03</rscale>
<asrwt>0</asrwt>
<pdfrwt beam="1">  1       21 0.21964886E+00 0.46879038E+03</pdfrwt>
<pdfrwt beam="2">  1       21 0.54094188E-02 0.46879038E+03</pdfrwt>
<totfact> 0.20732846E+04</totfact>
</mgrwt>
</event>
<event>
 7    0  0.4707675E-002  0.4588169E+03  0.7546771E-02  0.1025125E+00
         21   -1    0    0  502  501  0.00000000000E+00  0.00000000000E+00  0.23166553229E+03  0.23166553229E+03  0.00000000000E+00 0.  1.
         21   -1    0    0  501  502 -0.00000000000E+00 -0.00000000000E+00 -0.22717339815E+03  0.22717339815E+03  0.00000000000E+00 0.  1.
      99926    2    1    2    0    0  0.00000000000E+00  0.35527136788E-14  0.44921341382E+01  0.45883893043E+03  0.45881694042E+03 0.  0.
      99925    2    3    3    0    0 -0.29258749240E+02 -0.24274063843E+02  0.11319776999E+03  0.28881032123E+03  0.26296836679E+03 0.  0.
         25    1    3    3    0    0  0.29258749240E+02  0.24274063843E+02 -0.10870563585E+03  0.17002860921E+03  0.12509000000E+03 0.  0.
         25    1    4    4    0    0 -0.51775770482E+02  0.33934367248E+01  0.63350548157E+02  0.14950935046E+03  0.12509000000E+03 0.  0.
         25    1    4    4    0    0  0.22517021242E+02 -0.27667500567E+02  0.49847221835E+02  0.13930097077E+03  0.12509000000E+03 0.  0.
<mgrwt>
<rscale>  2 0.45881694E+03</rscale>
<asrwt>0</asrwt>
<pdfrwt beam="1">  1       21 0.34068461E-01 0.45881694E+03</pdfrwt>
<pdfrwt beam="2">  1       21 0.33407852E-01 0.45881694E+03</pdfrwt>
<totfact> 0.66225457E+04</totfact>
</mgrwt>
</event>
<event>
 7    0  0.4707675E-002  0.4551877E+03  0.7546771E-02  0.1026186E+00
         21   -1    0    0  502  501  0.00000000000E+00  0.00000000000E+00  0.24646016681E+03  0.24646016681E+03  0.00000000000E+00 0.  1.
         21   -1    0    0  501  502 -0.00000000000E+00 -0.00000000000E+00 -0.21017176321E+03  0.21017176321E+03  0.00000000000E+00 0.  1.
      99926    2    1    2    0    0  0.71054273576E-14  0.14210854715E-13  0.36288403598E+02  0.45663193003E+03  0.45518773191E+03 0.  0.
      99925    2    3    3    0    0 -0.52220203899E+02 -0.98434673571E+02  0.44030212579E+02  0.28893047397E+03  0.26291790451E+03 0.  0.
         25    1    3    3    0    0  0.52220203899E+02  0.98434673571E+02 -0.77418089806E+01  0.16770145605E+03  0.12509000000E+03 0.  0.
         25    1    4    4    0    0  0.14854572933E+02 -0.46568449671E+02  0.25182792506E+02  0.13664172123E+03  0.12509000000E+03 0.  0.
         25    1    4    4    0    0 -0.67074776832E+02 -0.51866223901E+02  0.18847420073E+02  0.15228875274E+03  0.12509000000E+03 0.  0.
<mgrwt>
<rscale>  2 0.45518773E+03</rscale>
<asrwt>0</asrwt>
<pdfrwt beam="1">  1       21 0.36244142E-01 0.45518773E+03</pdfrwt>
<pdfrwt beam="2">  1       21 0.30907612E-01 0.45518773E+03</pdfrwt>
<totfact> 0.68324039E+04</totfact>
</mgrwt>
</event>
<event>
 7    0  0.4707675E-002  0.4497946E+03  0.7546771E-02  0.1027783E+00
         21   -1    0    0  502  501  0.00000000000E+00  0.00000000000E+00  0.13672282596E+03  0.13672282596E+03  0.00000000000E+00 0.  1.
         21   -1    0    0  501  502 -0.00000000000E+00 -0.00000000000E+00 -0.36993676316E+03  0.36993676316E+03  0.00000000000E+00 0.  1.
      99926    2    1    2    0    0  0.00000000000E+00  0.00000000000E+00 -0.23321393720E+03  0.50665958911E+03  0.44979461840E+03 0.  0.
      99925    2    3    3    0    0 -0.70810436433E+01  0.98167661662E+02 -0.19813561875E+03  0.34367177515E+03  0.26299341179E+03 0.  0.
         25    1    3    3    0    0  0.70810436433E+01 -0.98167661662E+02 -0.35078318450E+02  0.16298781396E+03  0.12509000000E+03 0.  0.
         25    1    4    4    0    0  0.20572883614E+02  0.74190399769E+02 -0.77497721038E+02  0.16607487415E+03  0.12509000000E+03 0.  0.
         25    1    4    4    0    0 -0.27653927258E+02  0.23977261894E+02 -0.12063789771E+03  0.17759690100E+03  0.12509000000E+03 0.  0.
<mgrwt>
<rscale>  2 0.44979462E+03</rscale>
<asrwt>0</asrwt>
<pdfrwt beam="1">  1       21 0.20106298E-01 0.44979462E+03</pdfrwt>
<pdfrwt beam="2">  1       21 0.54402464E-01 0.44979462E+03</pdfrwt>
<totfact> 0.67553193E+04</totfact>
</mgrwt>
</event>
<event>
 7    0  0.4707675E-002  0.4617665E+03  0.7546771E-02  0.1024270E+00
         21   -1    0    0  502  501  0.00000000000E+00  0.00000000000E+00  0.23281682267E+03  0.23281682267E+03  0.00000000000E+00 0. -1.
         21   -1    0    0  501  502 -0.00000000000E+00 -0.00000000000E+00 -0.22896574912E+03  0.22896574912E+03  0.00000000000E+00 0. -1.
      99926    2    1    2    0    0 -0.71054273576E-14  0.71054273576E-14  0.38510735525E+01  0.46178257179E+03  0.46176651334E+03 0.  0.
      99925    2    3    3    0    0  0.33326565205E+02 -0.59265012723E+02  0.10046038282E+03  0.28972482445E+03  0.26310679145E+03 0.  0.
         25    1    4    4    0    0  0.33613529213E+02 -0.39928912765E+02  0.90034221409E+02  0.16272017867E+03  0.12509000000E+03 0.  0.
         25    1    4    4    0    0 -0.28696400779E+00 -0.19336099958E+02  0.10426161407E+02  0.12700464579E+03  0.12509000000E+03 0.  0.
         25    1    3    3    0    0 -0.33326565205E+02  0.59265012723E+02 -0.96609309264E+02  0.17205774733E+03  0.12509000000E+03 0.  0.
<mgrwt>
<rscale>  2 0.46176651E+03</rscale>
<asrwt>0</asrwt>
<pdfrwt beam="1">  1       21 0.34237768E-01 0.46176651E+03</pdfrwt>
<pdfrwt beam="2">  1       21 0.33671433E-01 0.46176651E+03</pdfrwt>
<totfact> 0.64498504E+04</totfact>
</mgrwt>
</event>
<event>
 7    0  0.4707675E-002  0.4564268E+03  0.7546771E-02  0.1025823E+00
         21   -1    0    0  502  501  0.00000000000E+00  0.00000000000E+00  0.46152010835E+03  0.46152010835E+03  0.00000000000E+00 0.  1.
         21   -1    0    0  501  502 -0.00000000000E+00 -0.00000000000E+00 -0.11284742193E+03  0.11284742193E+03  0.00000000000E+00 0.  1.
      99926    2    1    2    0    0  0.71054273576E-14  0.00000000000E+00  0.34867268642E+03  0.57436753028E+03  0.45642679324E+03 0.  0.
      99925    2    3    3    0    0 -0.54074780059E+02 -0.96431971062E+02  0.25666488876E+03  0.38374709641E+03  0.26298623918E+03 0.  0.
         25    1    3    3    0    0  0.54074780059E+02  0.96431971062E+02  0.92007797657E+02  0.19062043388E+03  0.12509000000E+03 0.  0.
         25    1    4    4    0    0  0.14324409106E+02 -0.44052511864E+02  0.11925746404E+03  0.17892921317E+03  0.12509000000E+03 0.  0.
         25    1    4    4    0    0 -0.68399189166E+02 -0.52379459198E+02  0.13740742472E+03  0.20481788324E+03  0.12509000000E+03 0.  0.
<mgrwt>
<rscale>  2 0.45642679E+03</rscale>
<asrwt>0</asrwt>
<pdfrwt beam="1">  1       21 0.67870604E-01 0.45642679E+03</pdfrwt>
<pdfrwt beam="2">  1       21 0.16595209E-01 0.45642679E+03</pdfrwt>
<totfact> 0.59609085E+04</totfact>
</mgrwt>
</event>
<event>
 7    0  0.4707675E-002  0.4485778E+03  0.7546771E-02  0.1028147E+00
         21   -1    0    0  502  501  0.00000000000E+00  0.00000000000E+00  0.13374858230E+03  0.13374858230E+03  0.00000000000E+00 0.  1.
         21   -1    0    0  501  502 -0.00000000000E+00 -0.00000000000E+00 -0.37611996947E+03  0.37611996947E+03  0.00000000000E+00 0.  1.
      99926    2    1    2    0    0  0.00000000000E+00  0.00000000000E+00 -0.24237138717E+03  0.50986855177E+03  0.44857780904E+03 0.  0.
      99925    2    3    3    0    0 -0.88096718631E+02  0.10943181794E+02 -0.22172838202E+03  0.35509637461E+03  0.26277209670E+03 0.  0.
         25    1    3    3    0    0  0.88096718631E+02 -0.10943181794E+02 -0.20643005152E+02  0.15477217716E+03  0.12509000000E+03 0.  0.
         25    1    4    4    0    0 -0.13277927729E+02  0.30924124578E+01 -0.67689465647E+02  0.14288190312E+03  0.12509000000E+03 0.  0.
         25    1    4    4    0    0 -0.74818790902E+02  0.78507693359E+01 -0.15403891637E+03  0.21221447149E+03  0.12509000000E+03 0.  0.
<mgrwt>
<rscale>  2 0.44857781E+03</rscale>
<asrwt>0</asrwt>
<pdfrwt beam="1">  1       21 0.19668909E-01 0.44857781E+03</pdfrwt>
<pdfrwt beam="2">  1       21 0.55311759E-01 0.44857781E+03</pdfrwt>
<totfact> 0.67981823E+04</totfact>
</mgrwt>
</event>
<event>
 7    0  0.4707675E-002  0.4510265E+03  0.7546771E-02  0.1027416E+00
         21   -1    0    0  502  501  0.00000000000E+00  0.00000000000E+00  0.18326964570E+04  0.18326964570E+04  0.00000000000E+00 0.  1.
         21   -1    0    0  501  502 -0.00000000000E+00 -0.00000000000E+00 -0.27749396835E+02  0.27749396835E+02  0.00000000000E+00 0.  1.
      99926    2    1    2    0    0 -0.71054273576E-14  0.00000000000E+00  0.18049470602E+04  0.18604458539E+04  0.45102647933E+03 0.  0.
      99925    2    3    3    0    0  0.59864450337E+02 -0.57534697574E+02  0.14337591520E+04  0.14600435997E+04  0.26299812411E+03 0.  0.
         25    1    3    3    0    0 -0.59864450337E+02  0.57534697574E+02  0.37118790820E+03  0.40040225415E+03  0.12509000000E+03 0.  0.
         25    1    4    4    0    0  0.11403384984E+02 -0.63400533086E+02  0.78955245906E+03  0.80199143293E+03  0.12509000000E+03 0.  0.
         25    1    4    4    0    0  0.48461065353E+02  0.58658355125E+01  0.64420669295E+03  0.65805216680E+03  0.12509000000E+03 0.  0.
<mgrwt>
<rscale>  2 0.45102648E+03</rscale>
<asrwt>0</asrwt>
<pdfrwt beam="1">  1       21 0.26951410E+00 0.45102648E+03</pdfrwt>
<pdfrwt beam="2">  1       21 0.40807949E-02 0.45102648E+03</pdfrwt>
<totfact> 0.16632063E+04</totfact>
</mgrwt>
</event>
<event>
 7    0  0.4707675E-002  0.4554469E+03  0.7546771E-02  0.1026110E+00
         21   -1    0    0  502  501  0.00000000000E+00  0.00000000000E+00  0.37277066977E+02  0.37277066977E+02  0.00000000000E+00 0. -1.
         21   -1    0    0  501  502 -0.00000000000E+00 -0.00000000000E+00 -0.13911493880E+04  0.13911493880E+04  0.00000000000E+00 0. -1.
      99926    2    1    2    0    0  0.00000000000E+00  0.00000000000E+00 -0.13538723210E+04  0.14284264549E+04  0.45544689662E+03 0.  0.
      99925    2    3    3    0    0 -0.24993164006E+01  0.50238389787E+02 -0.11710156016E+04  0.12012388005E+04  0.26299614889E+03 0.  0.
         25    1    4    4    0    0  0.50413537133E+01  0.64011728786E+02 -0.56325010797E+03  0.58053519178E+03  0.12509000000E+03 0.  0.
         25    1    3    3    0    0  0.24993164006E+01 -0.50238389787E+02 -0.18285671941E+03  0.22718765443E+03  0.12509000000E+03 0.  0.
         25    1    4    4    0    0 -0.75406701139E+01 -0.13773338999E+02 -0.60776549359E+03  0.62070360872E+03  0.12509000000E+03 0.  0.
<mgrwt>
<rscale>  2 0.45544690E+03</rscale>
<asrwt>0</asrwt>
<pdfrwt beam="1">  1       21 0.54819226E-02 0.45544690E+03</pdfrwt>
<pdfrwt beam="2">  1       21 0.20458076E+00 0.45544690E+03</pdfrwt>
<totfact> 0.25495616E+04</totfact>
</mgrwt>
</event>
<event>
 7    0  0.4707675E-002  0.4567444E+03  0.7546771E-02  0.1025730E+00
         21   -1    0    0  502  501  0.00000000000E+00  0.00000000000E+00  0.71967140442E+02  0.71967140442E+02  0.00000000000E+00 0.  1.
         21   -1    0    0  501  502 -0.00000000000E+00 -0.00000000000E+00 -0.72468980096E+03  0.72468980096E+03  0.00000000000E+00 0.  1.
      99926    2    1    2    0    0  0.00000000000E+00  0.00000000000E+00 -0.65272266052E+03  0.79665694141E+03  0.45674436037E+03 0.  0.
      99925    2    3    3    0    0 -0.20099248205E+02 -0.91559798032E+02 -0.29454666612E+03  0.40585682950E+03  0.26301112361E+03 0.  0.
         25    1    4    4    0    0 -0.32385685518E+01 -0.80779079909E+02 -0.12650471896E+03  0.19541417578E+03  0.12509000000E+03 0.  0.
         25    1    3    3    0    0  0.20099248205E+02  0.91559798032E+02 -0.35817599441E+03  0.39080011190E+03  0.12509000000E+03 0.  0.
         25    1    4    4    0    0 -0.16860679653E+02 -0.10780718123E+02 -0.16804194716E+03  0.21044265372E+03  0.12509000000E+03 0.  0.
<mgrwt>
<rscale>  2 0.45674436E+03</rscale>
<asrwt>0</asrwt>
<pdfrwt beam="1">  1       21 0.10583402E-01 0.45674436E+03</pdfrwt>
<pdfrwt beam="2">  1       21 0.10657203E+00 0.45674436E+03</pdfrwt>
<totfact> 0.47276404E+04</totfact>
</mgrwt>
</event>
<event>
 7    0  0.4707675E-002  0.4565741E+03  0.7546771E-02  0.1025780E+00
         21   -1    0    0  502  501  0.00000000000E+00  0.00000000000E+00  0.22260784342E+03  0.22260784342E+03  0.00000000000E+00 0.  1.
         21   -1    0    0  501  502 -0.00000000000E+00 -0.00000000000E+00 -0.23411113378E+03  0.23411113378E+03  0.00000000000E+00 0.  1.
      99926    2    1    2    0    0  0.14210854715E-13 -0.17763568394E-14 -0.11503290362E+02  0.45671897720E+03  0.45657408867E+03 0.  0.
      99925    2    3    3    0    0 -0.10249625729E+03 -0.98498894876E+01 -0.56077110946E+02  0.28868077719E+03  0.26379811536E+03 0.  0.
         25    1    4    4    0    0 -0.57257346702E+02  0.20288155675E+02 -0.61792870756E+02  0.15217056216E+03  0.12509000000E+03 0.  0.
         25    1    3    3    0    0  0.10249625729E+03  0.98498894876E+01  0.44573820584E+02  0.16803820001E+03  0.12509000000E+03 0.  0.
         25    1    4    4    0    0 -0.45238910588E+02 -0.30138045162E+02  0.57157598107E+01  0.13651021503E+03  0.12509000000E+03 0.  0.
<mgrwt>
<rscale>  2 0.45657409E+03</rscale>
<asrwt>0</asrwt>
<pdfrwt beam="1">  1       21 0.32736448E-01 0.45657409E+03</pdfrwt>
<pdfrwt beam="2">  1       21 0.34428108E-01 0.45657409E+03</pdfrwt>
<totfact> 0.67567439E+04</totfact>
</mgrwt>
</event>
<event>
 7    0  0.4707675E-002  0.4518111E+03  0.7546771E-02  0.1027183E+00
         21   -1    0    0  502  501  0.00000000000E+00  0.00000000000E+00  0.33405506465E+03  0.33405506465E+03  0.00000000000E+00 0. -1.
         21   -1    0    0  501  502 -0.00000000000E+00 -0.00000000000E+00 -0.15276918644E+03  0.15276918644E+03  0.00000000000E+00 0. -1.
      99926    2    1    2    0    0  0.14210854715E-13  0.00000000000E+00  0.18128587820E+03  0.48682425109E+03  0.45181111298E+03 0.  0.
      99925    2    3    3    0    0 -0.73640134389E+02  0.77016802785E+02  0.84490724742E+02  0.29611172623E+03  0.26303804770E+03 0.  0.
         25    1    4    4    0    0 -0.53120598883E+02  0.75481462264E+02  0.30999399327E+02  0.15851725468E+03  0.12509000000E+03 0.  0.
         25    1    4    4    0    0 -0.20519535506E+02  0.15353405215E+01  0.53491325415E+02  0.13759447156E+03  0.12509000000E+03 0.  0.
         25    1    3    3    0    0  0.73640134389E+02 -0.77016802785E+02  0.96795153462E+02  0.19071252486E+03  0.12509000000E+03 0.  0.
<mgrwt>
<rscale>  2 0.45181111E+03</rscale>
<asrwt>0</asrwt>
<pdfrwt beam="1">  1       21 0.49125745E-01 0.45181111E+03</pdfrwt>
<pdfrwt beam="2">  1       21 0.22466057E-01 0.45181111E+03</pdfrwt>
<totfact> 0.67909547E+04</totfact>
</mgrwt>
</event>
<event>
 7    0  0.4707675E-002  0.4570878E+03  0.7546771E-02  0.1025629E+00
         21   -1    0    0  502  501  0.00000000000E+00  0.00000000000E+00  0.92892021859E+03  0.92892021859E+03  0.00000000000E+00 0.  1.
         21   -1    0    0  501  502 -0.00000000000E+00 -0.00000000000E+00 -0.56229058241E+02  0.56229058241E+02  0.00000000000E+00 0.  1.
      99926    2    1    2    0    0 -0.14210854715E-13  0.00000000000E+00  0.87269116035E+03  0.98514927683E+03  0.45708777744E+03 0.  0.
      99925    2    3    3    0    0 -0.94102653326E+02  0.44388093766E+02  0.44164614385E+03  0.52441841550E+03  0.26294057486E+03 0.  0.
         25    1    3    3    0    0  0.94102653326E+02 -0.44388093766E+02  0.43104501650E+03  0.46073086133E+03  0.12509000000E+03 0.  0.
         25    1    4    4    0    0 -0.12356854557E+02  0.12025446972E+02  0.15872495050E+03  0.20282608620E+03  0.12509000000E+03 0.  0.
         25    1    4    4    0    0 -0.81745798769E+02  0.32362646794E+02  0.28292119334E+03  0.32159232930E+03  0.12509000000E+03 0.  0.
<mgrwt>
<rscale>  2 0.45708778E+03</rscale>
<asrwt>0</asrwt>
<pdfrwt beam="1">  1       21 0.13660590E+00 0.45708778E+03</pdfrwt>
<pdfrwt beam="2">  1       21 0.82689797E-02 0.45708778E+03</pdfrwt>
<totfact> 0.39106943E+04</totfact>
</mgrwt>
</event>
<event>
 7    0  0.4707675E-002  0.4598769E+03  0.7546771E-02  0.1024817E+00
         21   -1    0    0  502  501  0.00000000000E+00  0.00000000000E+00  0.25679911024E+03  0.25679911024E+03  0.00000000000E+00 0. -1.
         21   -1    0    0  501  502 -0.00000000000E+00 -0.00000000000E+00 -0.20588732428E+03  0.20588732428E+03  0.00000000000E+00 0. -1.
      99926    2    1    2    0    0 -0.77715611724E-15 -0.88817841970E-15  0.50911785960E+02  0.46268643452E+03  0.45987686041E+03 0.  0.
      99925    2    3    3    0    0 -0.70447460126E+00 -0.62610956113E+01 -0.86242292476E+02  0.27694885907E+03  0.26310309752E+03 0.  0.
         25    1    3    3    0    0  0.70447460126E+00  0.62610956113E+01  0.13715407844E+03  0.18573757545E+03  0.12509000000E+03 0.  0.
         25    1    4    4    0    0 -0.90116688994E+01  0.19161886883E+02 -0.82662439598E+01  0.12713861323E+03  0.12509000000E+03 0.  0.
         25    1    4    4    0    0  0.83071942981E+01 -0.25422982494E+02 -0.77976048516E+02  0.14981024584E+03  0.12509000000E+03 0.  0.
<mgrwt>
<rscale>  2 0.45987686E+03</rscale>
<asrwt>0</asrwt>
<pdfrwt beam="1">  1       21 0.37764575E-01 0.45987686E+03</pdfrwt>
<pdfrwt beam="2">  1       21 0.30277548E-01 0.45987686E+03</pdfrwt>
<totfact> 0.65404103E+04</totfact>
</mgrwt>
</event>
<event>
 7    0  0.4707675E-002  0.4561784E+03  0.7546771E-02  0.1025895E+00
         21   -1    0    0  502  501  0.00000000000E+00  0.00000000000E+00  0.13575175108E+03  0.13575175108E+03  0.00000000000E+00 0.  1.
         21   -1    0    0  501  502 -0.00000000000E+00 -0.00000000000E+00 -0.38323401841E+03  0.38323401841E+03  0.00000000000E+00 0.  1.
      99926    2    1    2    0    0  0.00000000000E+00  0.00000000000E+00 -0.24748226733E+03  0.51898576949E+03  0.45617842594E+03 0.  0.
      99925    2    3    3    0    0  0.49967218221E+02 -0.98813942378E+02 -0.18731803685E+03  0.34142405956E+03  0.26309964540E+03 0.  0.
         25    1    4    4    0    0 -0.43090002434E+01 -0.41896744816E+02 -0.54692295078E+02  0.14287288039E+03  0.12509000000E+03 0.  0.
         25    1    3    3    0    0 -0.49967218221E+02  0.98813942378E+02 -0.60164230481E+02  0.17756170993E+03  0.12509000000E+03 0.  0.
         25    1    4    4    0    0  0.54276218464E+02 -0.56917197562E+02 -0.13262574177E+03  0.19855117917E+03  0.12509000000E+03 0.  0.
<mgrwt>
<rscale>  2 0.45617843E+03</rscale>
<asrwt>0</asrwt>
<pdfrwt beam="1">  1       21 0.19963493E-01 0.45617843E+03</pdfrwt>
<pdfrwt beam="2">  1       21 0.56357942E-01 0.45617843E+03</pdfrwt>
<totfact> 0.63361923E+04</totfact>
</mgrwt>
</event>
<event>
 7    0  0.4707675E-002  0.4491153E+03  0.7546771E-02  0.1027986E+00
         21   -1    0    0  502  501  0.00000000000E+00  0.00000000000E+00  0.14344689420E+03  0.14344689420E+03  0.00000000000E+00 0. -1.
         21   -1    0    0  501  502 -0.00000000000E+00 -0.00000000000E+00 -0.35153175413E+03  0.35153175413E+03  0.00000000000E+00 0. -1.
      99926    2    1    2    0    0  0.14210854715E-13  0.00000000000E+00 -0.20808485993E+03  0.49497864833E+03  0.44911530076E+03 0.  0.
      99925    2    3    3    0    0 -0.10369665182E+03  0.19523086583E+02 -0.10839301070E+03  0.30335370368E+03  0.26294539027E+03 0.  0.
         25    1    4    4    0    0 -0.69480199543E+02  0.43534089427E+02 -0.74925369045E+02  0.16728429124E+03  0.12509000000E+03 0.  0.
         25    1    4    4    0    0 -0.34216452276E+02 -0.24011002844E+02 -0.33467641650E+02  0.13606941244E+03  0.12509000000E+03 0.  0.
         25    1    3    3    0    0  0.10369665182E+03 -0.19523086583E+02 -0.99691849231E+02  0.19162494465E+03  0.12509000000E+03 0.  0.
<mgrwt>
<rscale>  2 0.44911530E+03</rscale>
<asrwt>0</asrwt>
<pdfrwt beam="1">  1       21 0.21095132E-01 0.44911530E+03</pdfrwt>
<pdfrwt beam="2">  1       21 0.51695846E-01 0.44911530E+03</pdfrwt>
<totfact> 0.68782264E+04</totfact>
</mgrwt>
</event>
<event>
 7    0  0.4707675E-002  0.4552424E+03  0.7546771E-02  0.1026170E+00
         21   -1    0    0  502  501  0.00000000000E+00  0.00000000000E+00  0.18800574730E+03  0.18800574730E+03  0.00000000000E+00 0.  1.
         21   -1    0    0  501  502 -0.00000000000E+00 -0.00000000000E+00 -0.27558418215E+03  0.27558418215E+03  0.00000000000E+00 0.  1.
      99926    2    1    2    0    0 -0.35527136788E-14  0.00000000000E+00 -0.87578434855E+02  0.46358992945E+03  0.45524239745E+03 0.  0.
      99925    2    3    3    0    0 -0.26477399508E+02  0.10867291461E+03 -0.75081097185E+02  0.29532066131E+03  0.26280461713E+03 0.  0.
         25    1    3    3    0    0  0.26477399508E+02 -0.10867291461E+03 -0.12497337670E+02  0.16826926815E+03  0.12509000000E+03 0.  0.
         25    1    4    4    0    0 -0.49883925575E+02  0.74061990968E+02 -0.42928810447E+02  0.15957435697E+03  0.12509000000E+03 0.  0.
         25    1    4    4    0    0  0.23406526067E+02  0.34610923638E+02 -0.32152286738E+02  0.13574630433E+03  0.12509000000E+03 0.  0.
<mgrwt>
<rscale>  2 0.45524240E+03</rscale>
<asrwt>0</asrwt>
<pdfrwt beam="1">  1       21 0.27647904E-01 0.45524240E+03</pdfrwt>
<pdfrwt beam="2">  1       21 0.40527085E-01 0.45524240E+03</pdfrwt>
<totfact> 0.67784280E+04</totfact>
</mgrwt>
</event>
<event>
 7    0  0.4707675E-002  0.4354251E+03  0.7546771E-02  0.1032160E+00
         21   -1    0    0  502  501  0.00000000000E+00  0.00000000000E+00  0.31126329383E+03  0.31126329383E+03  0.00000000000E+00 0.  1.
         21   -1    0    0  501  502 -0.00000000000E+00 -0.00000000000E+00 -0.15227866145E+03  0.15227866145E+03  0.00000000000E+00 0.  1.
      99926    2    1    2    0    0  0.14210854715E-13  0.00000000000E+00  0.15898463238E+03  0.46354195528E+03  0.43542511522E+03 0.  0.
      99925    2    3    3    0    0  0.69018938289E+02 -0.26167506730E+02  0.40559082390E+02  0.27613738959E+03  0.26297997359E+03 0.  0.
         25    1    4    4    0    0  0.70643598497E+02 -0.34075325202E+02  0.17421643236E+02  0.14866965914E+03  0.12509000000E+03 0.  0.
         25    1    4    4    0    0 -0.16246602077E+01  0.79078184720E+01  0.23137439154E+02  0.12746773044E+03  0.12509000000E+03 0.  0.
         25    1    3    3    0    0 -0.69018938289E+02  0.26167506730E+02  0.11842554999E+03  0.18740456569E+03  0.12509000000E+03 0.  0.
<mgrwt>
<rscale>  2 0.43542512E+03</rscale>
<asrwt>0</asrwt>
<pdfrwt beam="1">  1       21 0.45774014E-01 0.43542512E+03</pdfrwt>
<pdfrwt beam="2">  1       21 0.22393921E-01 0.43542512E+03</pdfrwt>
<totfact> 0.79580989E+04</totfact>
</mgrwt>
</event>
<event>
 7    0  0.4707675E-002  0.4536187E+03  0.7546771E-02  0.1026648E+00
         21   -1    0    0  502  501  0.00000000000E+00  0.00000000000E+00  0.14602795204E+03  0.14602795204E+03  0.00000000000E+00 0. -1.
         21   -1    0    0  501  502 -0.00000000000E+00 -0.00000000000E+00 -0.35227831746E+03  0.35227831746E+03  0.00000000000E+00 0. -1.
      99926    2    1    2    0    0  0.00000000000E+00  0.00000000000E+00 -0.20625036542E+03  0.49830626949E+03  0.45361869999E+03 0.  0.
      99925    2    3    3    0    0 -0.52280496494E+02  0.92865644425E+02 -0.93011053478E+02  0.29873691288E+03  0.26312622223E+03 0.  0.
         25    1    4    4    0    0 -0.15541247614E+02  0.12876773602E+02 -0.67833255524E+02  0.14372265072E+03  0.12509000000E+03 0.  0.
         25    1    4    4    0    0 -0.36739248880E+02  0.79988870823E+02 -0.25177797955E+02  0.15501426216E+03  0.12509000000E+03 0.  0.
         25    1    3    3    0    0  0.52280496494E+02 -0.92865644425E+02 -0.11323931194E+03  0.19956935661E+03  0.12509000000E+03 0.  0.
<mgrwt>
<rscale>  2 0.45361870E+03</rscale>
<asrwt>0</asrwt>
<pdfrwt beam="1">  1       21 0.21474699E-01 0.45361870E+03</pdfrwt>
<pdfrwt beam="2">  1       21 0.51805634E-01 0.45361870E+03</pdfrwt>
<totfact> 0.66111760E+04</totfact>
</mgrwt>
</event>
<event>
 7    0  0.4707675E-002  0.4545997E+03  0.7546771E-02  0.1026359E+00
         21   -1    0    0  502  501  0.00000000000E+00  0.00000000000E+00  0.16839823334E+03  0.16839823334E+03  0.00000000000E+00 0. -1.
         21   -1    0    0  501  502 -0.00000000000E+00 -0.00000000000E+00 -0.30680387152E+03  0.30680387152E+03  0.00000000000E+00 0. -1.
      99926    2    1    2    0    0 -0.35527136788E-14  0.00000000000E+00 -0.13840563818E+03  0.47520210486E+03  0.45459973579E+03 0.  0.
      99925    2    3    3    0    0  0.31320928941E+02  0.45687251235E+02  0.15621084014E+02  0.26919223916E+03  0.26296790269E+03 0.  0.
         25    1    3    3    0    0 -0.31320928941E+02 -0.45687251235E+02 -0.15402672220E+03  0.20600986570E+03  0.12509000000E+03 0.  0.
         25    1    4    4    0    0 -0.68655856897E+01  0.49397748770E+02  0.28729078775E+02  0.13769583116E+03  0.12509000000E+03 0.  0.
         25    1    4    4    0    0  0.38186514631E+02 -0.37104975351E+01 -0.13107994762E+02  0.13149640801E+03  0.12509000000E+03 0.  0.
<mgrwt>
<rscale>  2 0.45459974E+03</rscale>
<asrwt>0</asrwt>
<pdfrwt beam="1">  1       21 0.24764446E-01 0.45459974E+03</pdfrwt>
<pdfrwt beam="2">  1       21 0.45118216E-01 0.45459974E+03</pdfrwt>
<totfact> 0.67264458E+04</totfact>
</mgrwt>
</event>
<event>
 7    0  0.4707675E-002  0.4509532E+03  0.7546771E-02  0.1027438E+00
         21   -1    0    0  502  501  0.00000000000E+00  0.00000000000E+00  0.33953278067E+03  0.33953278067E+03  0.00000000000E+00 0. -1.
         21   -1    0    0  501  502 -0.00000000000E+00 -0.00000000000E+00 -0.14973425040E+03  0.14973425040E+03  0.00000000000E+00 0. -1.
      99926    2    1    2    0    0  0.00000000000E+00  0.00000000000E+00  0.18979853027E+03  0.48926703107E+03  0.45095315233E+03 0.  0.
      99925    2    3    3    0    0  0.64611148771E+02  0.88725621856E+02  0.11772977248E+03  0.30791585112E+03  0.26249768670E+03 0.  0.
         25    1    4    4    0    0  0.98382231444E+01  0.52089021885E+02  0.92340100822E+02  0.16426886240E+03  0.12509000000E+03 0.  0.
         25    1    4    4    0    0  0.54772925627E+02  0.36636599972E+02  0.25389671658E+02  0.14364698871E+03  0.12509000000E+03 0.  0.
         25    1    3    3    0    0 -0.64611148771E+02 -0.88725621856E+02  0.72068757794E+02  0.18135117995E+03  0.12509000000E+03 0.  0.
<mgrwt>
<rscale>  2 0.45095315E+03</rscale>
<asrwt>0</asrwt>
<pdfrwt beam="1">  1       21 0.49931291E-01 0.45095315E+03</pdfrwt>
<pdfrwt beam="2">  1       21 0.22019743E-01 0.45095315E+03</pdfrwt>
<totfact> 0.68196182E+04</totfact>
</mgrwt>
</event>
<event>
 7    0  0.4707675E-002  0.4220126E+03  0.7546771E-02  0.1036413E+00
         21   -1    0    0  502  501  0.00000000000E+00  0.00000000000E+00  0.36314813328E+03  0.36314813328E+03  0.00000000000E+00 0.  1.
         21   -1    0    0  501  502 -0.00000000000E+00 -0.00000000000E+00 -0.12260466353E+03  0.12260466353E+03  0.00000000000E+00 0.  1.
      99926    2    1    2    0    0  0.26645352591E-14  0.00000000000E+00  0.24054346975E+03  0.48575279681E+03  0.42201258129E+03 0.  0.
      99925    2    3    3    0    0 -0.76112670090E+01  0.57072053533E+02  0.95231418660E+02  0.28555726496E+03  0.26298056543E+03 0.  0.
         25    1    3    3    0    0  0.76112670090E+01 -0.57072053533E+02  0.14531205109E+03  0.20019553185E+03  0.12509000000E+03 0.  0.
         25    1    4    4    0    0  0.33960239564E+02  0.14277884755E+02  0.51916481087E+02  0.14035663494E+03  0.12509000000E+03 0.  0.
         25    1    4    4    0    0 -0.41571506573E+02  0.42794168778E+02  0.43314937573E+02  0.14520063002E+03  0.12509000000E+03 0.  0.
<mgrwt>
<rscale>  2 0.42201258E+03</rscale>
<asrwt>0</asrwt>
<pdfrwt beam="1">  1       21 0.53404137E-01 0.42201258E+03</pdfrwt>
<pdfrwt beam="2">  1       21 0.18030098E-01 0.42201258E+03</pdfrwt>
<totfact> 0.86898569E+04</totfact>
</mgrwt>
</event>
<event>
 7    0  0.4707675E-002  0.4645619E+03  0.7546771E-02  0.1023466E+00
         21   -1    0    0  502  501  0.00000000000E+00  0.00000000000E+00  0.63427372080E+02  0.63427372080E+02  0.00000000000E+00 0.  1.
         21   -1    0    0  501  502 -0.00000000000E+00 -0.00000000000E+00 -0.85064924034E+03  0.85064924034E+03  0.00000000000E+00 0.  1.
      99926    2    1    2    0    0  0.00000000000E+00 -0.17763568394E-14 -0.78722186826E+03  0.91407661242E+03  0.46456192645E+03 0.  0.
      99925    2    3    3    0    0  0.96018932503E+02  0.14484531912E+02 -0.63628142753E+03  0.69530741484E+03  0.26299982708E+03 0.  0.
         25    1    4    4    0    0  0.36218322020E+02 -0.13677293226E+01 -0.21347229509E+03  0.25006312484E+03  0.12509000000E+03 0.  0.
         25    1    3    3    0    0 -0.96018932503E+02 -0.14484531912E+02 -0.15094044073E+03  0.21876919759E+03  0.12509000000E+03 0.  0.
         25    1    4    4    0    0  0.59800610484E+02  0.15852261235E+02 -0.42280913244E+03  0.44524429000E+03  0.12509000000E+03 0.  0.
<mgrwt>
<rscale>  2 0.46456193E+03</rscale>
<asrwt>0</asrwt>
<pdfrwt beam="1">  1       21 0.93275550E-02 0.46456193E+03</pdfrwt>
<pdfrwt beam="2">  1       21 0.12509547E+00 0.46456193E+03</pdfrwt>
<totfact> 0.39583621E+04</totfact>
</mgrwt>
</event>
<event>
 7    0  0.4707675E-002  0.4572650E+03  0.7546771E-02  0.1025577E+00
         21   -1    0    0  502  501  0.00000000000E+00  0.00000000000E+00  0.20933708515E+03  0.20933708515E+03  0.00000000000E+00 0.  1.
         21   -1    0    0  501  502 -0.00000000000E+00 -0.00000000000E+00 -0.24970645444E+03  0.24970645444E+03  0.00000000000E+00 0.  1.
      99926    2    1    2    0    0  0.00000000000E+00 -0.71054273576E-14 -0.40369369289E+02  0.45904353959E+03  0.45726500551E+03 0.  0.
      99925    2    3    3    0    0  0.94782309655E+02 -0.48372588273E+02  0.19474054868E+02  0.28425127135E+03  0.26286109057E+03 0.  0.
         25    1    3    3    0    0 -0.94782309655E+02  0.48372588273E+02 -0.59843424158E+02  0.17479226823E+03  0.12509000000E+03 0.  0.
         25    1    4    4    0    0  0.49255353472E+02 -0.64548714585E+02  0.31472528696E+01  0.14916447198E+03  0.12509000000E+03 0.  0.
         25    1    4    4    0    0  0.45526956183E+02  0.16176126312E+02  0.16326801999E+02  0.13508679937E+03  0.12509000000E+03 0.  0.
<mgrwt>
<rscale>  2 0.45726501E+03</rscale>
<asrwt>0</asrwt>
<pdfrwt beam="1">  1       21 0.30784866E-01 0.45726501E+03</pdfrwt>
<pdfrwt beam="2">  1       21 0.36721537E-01 0.45726501E+03</pdfrwt>
<totfact> 0.67031019E+04</totfact>
</mgrwt>
</event>
<event>
 7    0  0.4707675E-002  0.4574382E+03  0.7546771E-02  0.1025527E+00
         21   -1    0    0  502  501  0.00000000000E+00  0.00000000000E+00  0.15508218125E+03  0.15508218125E+03  0.00000000000E+00 0.  1.
         21   -1    0    0  501  502 -0.00000000000E+00 -0.00000000000E+00 -0.33732070816E+03  0.33732070816E+03  0.00000000000E+00 0.  1.
      99926    2    1    2    0    0  0.00000000000E+00  0.71054273576E-14 -0.18223852690E+03  0.49240288941E+03  0.45743821967E+03 0.  0.
      99925    2    3    3    0    0  0.86089547621E+02 -0.50241769693E+02 -0.17708514916E+03  0.33237254531E+03  0.26301466345E+03 0.  0.
         25    1    4    4    0    0  0.69753492628E+02 -0.55995761536E+02 -0.81869386885E+02  0.17421589954E+03  0.12509000000E+03 0.  0.
         25    1    3    3    0    0 -0.86089547621E+02  0.50241769693E+02 -0.51533777453E+01  0.16003034410E+03  0.12509000000E+03 0.  0.
         25    1    4    4    0    0  0.16336054993E+02  0.57539918433E+01 -0.95215762275E+02  0.15815664577E+03  0.12509000000E+03 0.  0.
<mgrwt>
<rscale>  2 0.45743822E+03</rscale>
<asrwt>0</asrwt>
<pdfrwt beam="1">  1       21 0.22806203E-01 0.45743822E+03</pdfrwt>
<pdfrwt beam="2">  1       21 0.49605986E-01 0.45743822E+03</pdfrwt>
<totfact> 0.64549234E+04</totfact>
</mgrwt>
</event>
<event>
 7    0  0.4707675E-002  0.4586278E+03  0.7546771E-02  0.1025180E+00
         21   -1    0    0  502  501  0.00000000000E+00  0.00000000000E+00  0.52827837489E+02  0.52827837489E+02  0.00000000000E+00 0. -1.
         21   -1    0    0  501  502 -0.00000000000E+00 -0.00000000000E+00 -0.99540064387E+03  0.99540064387E+03  0.00000000000E+00 0. -1.
      99926    2    1    2    0    0  0.00000000000E+00  0.00000000000E+00 -0.94257280639E+03  0.10482284814E+04  0.45862779441E+03 0.  0.
      99925    2    3    3    0    0 -0.60318461601E+02 -0.54300905225E+02 -0.40001836815E+03  0.48555652395E+03  0.26298961571E+03 0.  0.
         25    1    3    3    0    0  0.60318461601E+02  0.54300905225E+02 -0.54255443823E+03  0.56267195742E+03  0.12509000000E+03 0.  0.
         25    1    4    4    0    0  0.11401225569E+02 -0.26795514625E+02 -0.18584029682E+03  0.22590288084E+03  0.12509000000E+03 0.  0.
         25    1    4    4    0    0 -0.71719687170E+02 -0.27505390600E+02 -0.21417807133E+03  0.25965364311E+03  0.12509000000E+03 0.  0.
<mgrwt>
<rscale>  2 0.45862779E+03</rscale>
<asrwt>0</asrwt>
<pdfrwt beam="1">  1       21 0.77688007E-02 0.45862779E+03</pdfrwt>
<pdfrwt beam="2">  1       21 0.14638243E+00 0.45862779E+03</pdfrwt>
<totfact> 0.36303526E+04</totfact>
</mgrwt>
</event>
<event>
 7    0  0.4707675E-002  0.4584892E+03  0.7546771E-02  0.1025220E+00
         21   -1    0    0  502  501  0.00000000000E+00  0.00000000000E+00  0.90397745713E+02  0.90397745713E+02  0.00000000000E+00 0.  1.
         21   -1    0    0  501  502 -0.00000000000E+00 -0.00000000000E+00 -0.58135396292E+03  0.58135396292E+03  0.00000000000E+00 0.  1.
      99926    2    1    2    0    0  0.00000000000E+00  0.00000000000E+00 -0.49095621721E+03  0.67175170864E+03  0.45848920471E+03 0.  0.
      99925    2    3    3    0    0  0.37355171957E+02 -0.52671415934E+02 -0.16608312095E+03  0.31768995738E+03  0.26300878127E+03 0.  0.
         25    1    3    3    0    0 -0.37355171957E+02  0.52671415934E+02 -0.32487309626E+03  0.35406175126E+03  0.12509000000E+03 0.  0.
         25    1    4    4    0    0 -0.19827235529E+02 -0.30483271800E+02 -0.95409605153E+02  0.16147089516E+03  0.12509000000E+03 0.  0.
         25    1    4    4    0    0  0.57182407486E+02 -0.22188144134E+02 -0.70673515799E+02  0.15621906222E+03  0.12509000000E+03 0.  0.
<mgrwt>
<rscale>  2 0.45848920E+03</rscale>
<asrwt>0</asrwt>
<pdfrwt beam="1">  1       21 0.13293786E-01 0.45848920E+03</pdfrwt>
<pdfrwt beam="2">  1       21 0.85493229E-01 0.45848920E+03</pdfrwt>
<totfact> 0.52991216E+04</totfact>
</mgrwt>
</event>
<event>
 7    0  0.4707675E-002  0.4407468E+03  0.7546771E-02  0.1030518E+00
         21   -1    0    0  502  501  0.00000000000E+00  0.00000000000E+00  0.21913410903E+03  0.21913410903E+03  0.00000000000E+00 0. -1.
         21   -1    0    0  501  502 -0.00000000000E+00 -0.00000000000E+00 -0.22161974455E+03  0.22161974455E+03  0.00000000000E+00 0. -1.
      99926    2    1    2    0    0  0.71054273576E-14  0.00000000000E+00 -0.24856355189E+01  0.44075385358E+03  0.44074684464E+03 0.  0.
      99925    2    3    3    0    0  0.53157828671E+02 -0.58649079959E+02  0.58223757382E+02  0.28075820421E+03  0.26300131935E+03 0.  0.
         25    1    3    3    0    0 -0.53157828671E+02  0.58649079959E+02 -0.60709392901E+02  0.15999564936E+03  0.12509000000E+03 0.  0.
         25    1    4    4    0    0  0.66051388800E+02 -0.43484384236E+02  0.31156580701E+02  0.15123464635E+03  0.12509000000E+03 0.  0.
         25    1    4    4    0    0 -0.12893560128E+02 -0.15164695723E+02  0.27067176681E+02  0.12952355787E+03  0.12509000000E+03 0.  0.
<mgrwt>
<rscale>  2 0.44074684E+03</rscale>
<asrwt>0</asrwt>
<pdfrwt beam="1">  1       21 0.32225605E-01 0.44074684E+03</pdfrwt>
<pdfrwt beam="2">  1       21 0.32591139E-01 0.44074684E+03</pdfrwt>
<totfact> 0.78115118E+04</totfact>
</mgrwt>
</event>
<event>
 7    0  0.4707675E-002  0.3974017E+03  0.7546771E-02  0.1044683E+00
         21   -1    0    0  502  501  0.00000000000E+00  0.00000000000E+00  0.10184423185E+03  0.10184423185E+03  0.00000000000E+00 0. -1.
         21   -1    0    0  501  502 -0.00000000000E+00 -0.00000000000E+00 -0.38767068041E+03  0.38767068041E+03  0.00000000000E+00 0. -1.
      99926    2    1    2    0    0  0.17763568394E-14  0.00000000000E+00 -0.28582644856E+03  0.48951491226E+03  0.39740167417E+03 0.  0.
      99925    2    3    3    0    0 -0.10168719300E+02 -0.38562892195E+02 -0.19693769718E+03  0.33096139534E+03  0.26298381914E+03 0.  0.
         25    1    4    4    0    0  0.19152232763E+02 -0.23875838374E+02 -0.13828937588E+03  0.18896646067E+03  0.12509000000E+03 0.  0.
         25    1    3    3    0    0  0.10168719300E+02  0.38562892195E+02 -0.88888751380E+02  0.15855351692E+03  0.12509000000E+03 0.  0.
         25    1    4    4    0    0 -0.29320952063E+02 -0.14687053820E+02 -0.58648321300E+02  0.14199493467E+03  0.12509000000E+03 0.  0.
<mgrwt>
<rscale>  2 0.39740167E+03</rscale>
<asrwt>0</asrwt>
<pdfrwt beam="1">  1       21 0.14977093E-01 0.39740167E+03</pdfrwt>
<pdfrwt beam="2">  1       21 0.57010394E-01 0.39740167E+03</pdfrwt>
<totfact> 0.10724104E+05</totfact>
</mgrwt>
</event>
<event>
 7    0  0.4707675E-002  0.4493717E+03  0.7546771E-02  0.1027910E+00
         21   -1    0    0  502  501  0.00000000000E+00  0.00000000000E+00  0.68676826808E+02  0.68676826808E+02  0.00000000000E+00 0. -1.
         21   -1    0    0  501  502 -0.00000000000E+00 -0.00000000000E+00 -0.73509111129E+03  0.73509111129E+03  0.00000000000E+00 0. -1.
      99926    2    1    2    0    0  0.00000000000E+00  0.00000000000E+00 -0.66641428448E+03  0.80376793810E+03  0.44937167217E+03 0.  0.
      99925    2    3    3    0    0  0.32183039161E+02  0.72866283554E+02 -0.29171547898E+03  0.40078909717E+03  0.26303751909E+03 0.  0.
         25    1    3    3    0    0 -0.32183039161E+02 -0.72866283554E+02 -0.37469880550E+03  0.40297884093E+03  0.12509000000E+03 0.  0.
         25    1    4    4    0    0  0.46331048931E+02  0.93276383269E+01 -0.14741113646E+03  0.19902543100E+03  0.12509000000E+03 0.  0.
         25    1    4    4    0    0 -0.14148009770E+02  0.63538645227E+02 -0.14430434251E+03  0.20176366617E+03  0.12509000000E+03 0.  0.
<mgrwt>
<rscale>  2 0.44937167E+03</rscale>
<asrwt>0</asrwt>
<pdfrwt beam="1">  1       21 0.10099534E-01 0.44937167E+03</pdfrwt>
<pdfrwt beam="2">  1       21 0.10810163E+00 0.44937167E+03</pdfrwt>
<totfact> 0.49744118E+04</totfact>
</mgrwt>
</event>
<event>
 7    0  0.4707675E-002  0.4566097E+03  0.7546771E-02  0.1025769E+00
         21   -1    0    0  502  501  0.00000000000E+00  0.00000000000E+00  0.68552213412E+03  0.68552213412E+03  0.00000000000E+00 0.  1.
         21   -1    0    0  501  502 -0.00000000000E+00 -0.00000000000E+00 -0.76034179413E+02  0.76034179413E+02  0.00000000000E+00 0.  1.
      99926    2    1    2    0    0  0.00000000000E+00 -0.35527136788E-14  0.60948795471E+03  0.76155631353E+03  0.45660973681E+03 0.  0.
      99925    2    3    3    0    0  0.55782585504E+02  0.19396931987E+02  0.54696067386E+03  0.60975016489E+03  0.26294742253E+03 0.  0.
         25    1    4    4    0    0  0.57378492371E+02 -0.98739927609E+01  0.23734713154E+03  0.27453771338E+03  0.12509000000E+03 0.  0.
         25    1    4    4    0    0 -0.15959068673E+01  0.29270924748E+02  0.30961354232E+03  0.33521245151E+03  0.12509000000E+03 0.  0.
         25    1    3    3    0    0 -0.55782585504E+02 -0.19396931987E+02  0.62527280842E+02  0.15180614864E+03  0.12509000000E+03 0.  0.
<mgrwt>
<rscale>  2 0.45660974E+03</rscale>
<asrwt>0</asrwt>
<pdfrwt beam="1">  1       21 0.10081207E+00 0.45660974E+03</pdfrwt>
<pdfrwt beam="2">  1       21 0.11181497E-01 0.45660974E+03</pdfrwt>
<totfact> 0.49057193E+04</totfact>
</mgrwt>
</event>
<event>
 7    0  0.4707675E-002  0.4571159E+03  0.7546771E-02  0.1025621E+00
         21   -1    0    0  502  501  0.00000000000E+00  0.00000000000E+00  0.30328246867E+03  0.30328246867E+03  0.00000000000E+00 0. -1.
         21   -1    0    0  501  502 -0.00000000000E+00 -0.00000000000E+00 -0.17224446622E+03  0.17224446622E+03  0.00000000000E+00 0. -1.
      99926    2    1    2    0    0 -0.14210854715E-13  0.14210854715E-13  0.13103800245E+03  0.47552693490E+03  0.45711585810E+03 0.  0.
      99925    2    3    3    0    0  0.93363211433E+02 -0.66956945857E+02  0.90215977933E+02  0.30084474452E+03  0.26299945967E+03 0.  0.
         25    1    4    4    0    0  0.45011850768E+02 -0.21020357635E+02  0.34446272039E+01  0.13463764593E+03  0.12509000000E+03 0.  0.
         25    1    3    3    0    0 -0.93363211433E+02  0.66956945857E+02  0.40822024521E+02  0.17468219037E+03  0.12509000000E+03 0.  0.
         25    1    4    4    0    0  0.48351360665E+02 -0.45936588222E+02  0.86771350729E+02  0.16620709859E+03  0.12509000000E+03 0.  0.
<mgrwt>
<rscale>  2 0.45711586E+03</rscale>
<asrwt>0</asrwt>
<pdfrwt beam="1">  1       21 0.44600363E-01 0.45711586E+03</pdfrwt>
<pdfrwt beam="2">  1       21 0.25330069E-01 0.45711586E+03</pdfrwt>
<totfact> 0.65913503E+04</totfact>
</mgrwt>
</event>
<event>
 7    0  0.4707675E-002  0.4583718E+03  0.7546771E-02  0.1025255E+00
         21   -1    0    0  502  501  0.00000000000E+00  0.00000000000E+00  0.32082680329E+03  0.32082680329E+03  0.00000000000E+00 0. -1.
         21   -1    0    0  501  502 -0.00000000000E+00 -0.00000000000E+00 -0.16372126230E+03  0.16372126230E+03  0.00000000000E+00 0. -1.
      99926    2    1    2    0    0  0.00000000000E+00  0.35527136788E-14  0.15710554099E+03  0.48454806559E+03  0.45837176708E+03 0.  0.
      99925    2    3    3    0    0  0.75976773582E+02  0.30171830906E+02  0.18595240404E+03  0.33235588737E+03  0.26305765489E+03 0.  0.
         25    1    4    4    0    0  0.43201433015E+02  0.58248767161E+01  0.45921640004E+02  0.14020199044E+03  0.12509000000E+03 0.  0.
         25    1    4    4    0    0  0.32775340567E+02  0.24346954190E+02  0.14003076404E+03  0.19215389693E+03  0.12509000000E+03 0.  0.
         25    1    3    3    0    0 -0.75976773582E+02 -0.30171830906E+02 -0.28846863053E+02  0.15219217822E+03  0.12509000000E+03 0.  0.
<mgrwt>
<rscale>  2 0.45837177E+03</rscale>
<asrwt>0</asrwt>
<pdfrwt beam="1">  1       21 0.47180412E-01 0.45837177E+03</pdfrwt>
<pdfrwt beam="2">  1       21 0.24076656E-01 0.45837177E+03</pdfrwt>
<totfact> 0.64623450E+04</totfact>
</mgrwt>
</event>
<event>
 7    0  0.4707675E-002  0.4677468E+03  0.7546771E-02  0.1022558E+00
         21   -1    0    0  502  501  0.00000000000E+00  0.00000000000E+00  0.42181365657E+03  0.42181365657E+03  0.00000000000E+00 0.  1.
         21   -1    0    0  501  502 -0.00000000000E+00 -0.00000000000E+00 -0.12967046799E+03  0.12967046799E+03  0.00000000000E+00 0.  1.
      99926    2    1    2    0    0  0.00000000000E+00 -0.71054273576E-14  0.29214318857E+03  0.55148412456E+03  0.46774683004E+03 0.  0.
      99925    2    3    3    0    0  0.29045263747E+02  0.38275932753E+02  0.31759707595E+03  0.41508733993E+03  0.26290858248E+03 0.  0.
         25    1    4    4    0    0  0.23171491414E+02 -0.11936996634E-01  0.21033296990E+03  0.24581371907E+03  0.12509000000E+03 0.  0.
         25    1    3    3    0    0 -0.29045263747E+02 -0.38275932753E+02 -0.25453887381E+02  0.13639678463E+03  0.12509000000E+03 0.  0.
         25    1    4    4    0    0  0.58737723332E+01  0.38287869750E+02  0.10726410606E+03  0.16927362086E+03  0.12509000000E+03 0.  0.
<mgrwt>
<rscale>  2 0.46774683E+03</rscale>
<asrwt>0</asrwt>
<pdfrwt beam="1">  1       21 0.62031420E-01 0.46774683E+03</pdfrwt>
<pdfrwt beam="2">  1       21 0.19069187E-01 0.46774683E+03</pdfrwt>
<totfact> 0.55911150E+04</totfact>
</mgrwt>
</event>
<event>
 7    0  0.4707675E-002  0.4519819E+03  0.7546771E-02  0.1027133E+00
         21   -1    0    0  502  501  0.00000000000E+00  0.00000000000E+00  0.15534744642E+03  0.15534744642E+03  0.00000000000E+00 0. -1.
         21   -1    0    0  501  502 -0.00000000000E+00 -0.00000000000E+00 -0.32875920843E+03  0.32875920843E+03  0.00000000000E+00 0. -1.
      99926    2    1    2    0    0  0.00000000000E+00  0.00000000000E+00 -0.17341176201E+03  0.48410665486E+03  0.45198187361E+03 0.  0.
      99925    2    3    3    0    0  0.10286488309E+03 -0.13669657687E+02 -0.14908305059E+03  0.31976725601E+03  0.26316781401E+03 0.  0.
         25    1    4    4    0    0  0.90638104702E+01 -0.79050776223E+01 -0.78105712532E+02  0.14796166173E+03  0.12509000000E+03 0.  0.
         25    1    3    3    0    0 -0.10286488309E+03  0.13669657687E+02 -0.24328711425E+02  0.16433939885E+03  0.12509000000E+03 0.  0.
         25    1    4    4    0    0  0.93801072617E+02 -0.57645800643E+01 -0.70977338053E+02  0.17180559428E+03  0.12509000000E+03 0.  0.
<mgrwt>
<rscale>  2 0.45198187E+03</rscale>
<asrwt>0</asrwt>
<pdfrwt beam="1">  1       21 0.22845213E-01 0.45198187E+03</pdfrwt>
<pdfrwt beam="2">  1       21 0.48346942E-01 0.45198187E+03</pdfrwt>
<totfact> 0.68017460E+04</totfact>
</mgrwt>
</event>
<event>
 7    0  0.4707675E-002  0.4543565E+03  0.7546771E-02  0.1026431E+00
         21   -1    0    0  502  501  0.00000000000E+00  0.00000000000E+00  0.18810432232E+03  0.18810432232E+03  0.00000000000E+00 0.  1.
         21   -1    0    0  501  502 -0.00000000000E+00 -0.00000000000E+00 -0.27436879096E+03  0.27436879096E+03  0.00000000000E+00 0.  1.
      99926    2    1    2    0    0  0.00000000000E+00  0.00000000000E+00 -0.86264468638E+02  0.46247311328E+03  0.45435649215E+03 0.  0.
      99925    2    3    3    0    0 -0.24640325796E+02 -0.10015138645E+03 -0.82847313305E+01  0.28256815672E+03  0.26294235216E+03 0.  0.
         25    1    3    3    0    0  0.24640325796E+02  0.10015138645E+03 -0.77979737308E+02  0.17990495656E+03  0.12509000000E+03 0.  0.
         25    1    4    4    0    0 -0.51660148616E+02 -0.61432737155E+02 -0.33673686750E+00  0.14862830700E+03  0.12509000000E+03 0.  0.
         25    1    4    4    0    0  0.27019822819E+02 -0.38718649294E+02 -0.79479944630E+01  0.13393984973E+03  0.12509000000E+03 0.  0.
<mgrwt>
<rscale>  2 0.45435649E+03</rscale>
<asrwt>0</asrwt>
<pdfrwt beam="1">  1       21 0.27662400E-01 0.45435649E+03</pdfrwt>
<pdfrwt beam="2">  1       21 0.40348352E-01 0.45435649E+03</pdfrwt>
<totfact> 0.68347114E+04</totfact>
</mgrwt>
</event>
<event>
 7    0  0.4707675E-002  0.4244505E+03  0.7546771E-02  0.1035627E+00
         21   -1    0    0  502  501  0.00000000000E+00  0.00000000000E+00  0.20420894590E+03  0.20420894590E+03  0.00000000000E+00 0. -1.
         21   -1    0    0  501  502 -0.00000000000E+00 -0.00000000000E+00 -0.22055622199E+03  0.22055622199E+03  0.00000000000E+00 0. -1.
      99926    2    1    2    0    0  0.15543122345E-14  0.00000000000E+00 -0.16347276087E+02  0.42476516789E+03  0.42445048523E+03 0.  0.
      99925    2    3    3    0    0  0.16784313057E+01  0.69664835083E+02 -0.52626925754E+02  0.27705014679E+03  0.26292809690E+03 0.  0.
         25    1    4    4    0    0 -0.23838545780E+02  0.17350232353E+01 -0.26992905245E+02  0.13018222461E+03  0.12509000000E+03 0.  0.
         25    1    3    3    0    0 -0.16784313057E+01 -0.69664835083E+02  0.36279649667E+02  0.14771502110E+03  0.12509000000E+03 0.  0.
         25    1    4    4    0    0  0.25516977085E+02  0.67929811848E+02 -0.25634020509E+02  0.14686792218E+03  0.12509000000E+03 0.  0.
<mgrwt>
<rscale>  2 0.42445049E+03</rscale>
<asrwt>0</asrwt>
<pdfrwt beam="1">  1       21 0.30030728E-01 0.42445049E+03</pdfrwt>
<pdfrwt beam="2">  1       21 0.32434738E-01 0.42445049E+03</pdfrwt>
<totfact> 0.91076677E+04</totfact>
</mgrwt>
</event>
<event>
 7    0  0.4707675E-002  0.4571323E+03  0.7546771E-02  0.1025616E+00
         21   -1    0    0  502  501  0.00000000000E+00  0.00000000000E+00  0.43907256500E+03  0.43907256500E+03  0.00000000000E+00 0. -1.
         21   -1    0    0  501  502 -0.00000000000E+00 -0.00000000000E+00 -0.11898373487E+03  0.11898373487E+03  0.00000000000E+00 0. -1.
      99926    2    1    2    0    0  0.88817841970E-15 -0.71054273576E-14  0.32008883013E+03  0.55805629986E+03  0.45713233822E+03 0.  0.
      99925    2    3    3    0    0  0.50229840125E+01 -0.59437833207E+02  0.32130319737E+03  0.41946672893E+03  0.26298004801E+03 0.  0.
         25    1    4    4    0    0  0.22335370292E+02 -0.65579866915E+02  0.16176855726E+03  0.21590776254E+03  0.12509000000E+03 0.  0.
         25    1    4    4    0    0 -0.17312386279E+02  0.61420337081E+01  0.15953464012E+03  0.20355896638E+03  0.12509000000E+03 0.  0.
         25    1    3    3    0    0 -0.50229840125E+01  0.59437833207E+02 -0.12143672432E+01  0.13858957094E+03  0.12509000000E+03 0.  0.
<mgrwt>
<rscale>  2 0.45713234E+03</rscale>
<asrwt>0</asrwt>
<pdfrwt beam="1">  1       21 0.64569494E-01 0.45713234E+03</pdfrwt>
<pdfrwt beam="2">  1       21 0.17497608E-01 0.45713234E+03</pdfrwt>
<totfact> 0.60313472E+04</totfact>
</mgrwt>
</event>
<event>
 7    0  0.4707675E-002  0.4510691E+03  0.7546771E-02  0.1027404E+00
         21   -1    0    0  502  501  0.00000000000E+00  0.00000000000E+00  0.24110997234E+03  0.24110997234E+03  0.00000000000E+00 0. -1.
         21   -1    0    0  501  502 -0.00000000000E+00 -0.00000000000E+00 -0.21096526255E+03  0.21096526255E+03  0.00000000000E+00 0. -1.
      99926    2    1    2    0    0  0.00000000000E+00  0.00000000000E+00  0.30144709786E+02  0.45207523489E+03  0.45106907949E+03 0.  0.
      99925    2    3    3    0    0 -0.10688439933E+03  0.11470163117E+02  0.39533546753E+02  0.28687384924E+03  0.26301685231E+03 0.  0.
         25    1    4    4    0    0 -0.24937126113E+02  0.35638936343E+02  0.12846319871E+02  0.13305837094E+03  0.12509000000E+03 0.  0.
         25    1    3    3    0    0  0.10688439933E+03 -0.11470163117E+02 -0.93888369663E+01  0.16520138565E+03  0.12509000000E+03 0.  0.
         25    1    4    4    0    0 -0.81947273216E+02 -0.24168773226E+02  0.26687226881E+02  0.15381547830E+03  0.12509000000E+03 0.  0.
<mgrwt>
<rscale>  2 0.45106908E+03</rscale>
<asrwt>0</asrwt>
<pdfrwt beam="1">  1       21 0.35457349E-01 0.45106908E+03</pdfrwt>
<pdfrwt beam="2">  1       21 0.31024303E-01 0.45106908E+03</pdfrwt>
<totfact> 0.70960241E+04</totfact>
</mgrwt>
</event>
<event>
 7    0  0.4707675E-002  0.4792796E+03  0.7546771E-02  0.1019333E+00
         21   -1    0    0  502  501  0.00000000000E+00  0.00000000000E+00  0.70580638249E+03  0.70580638249E+03  0.00000000000E+00 0. -1.
         21   -1    0    0  501  502 -0.00000000000E+00 -0.00000000000E+00 -0.81364020708E+02  0.81364020708E+02  0.00000000000E+00 0. -1.
      99926    2    1    2    0    0 -0.14210854715E-13  0.00000000000E+00  0.62444236178E+03  0.78717040320E+03  0.47927964747E+03 0.  0.
      99925    2    3    3    0    0  0.82832384874E+02  0.59089268283E+02  0.52964535990E+03  0.60012301542E+03  0.26319323843E+03 0.  0.
         25    1    4    4    0    0  0.36708103710E+01  0.45133326188E+02  0.23320142306E+03  0.26847887030E+03  0.12509000000E+03 0.  0.
         25    1    3    3    0    0 -0.82832384874E+02 -0.59089268283E+02  0.94797001874E+02  0.18704738778E+03  0.12509000000E+03 0.  0.
         25    1    4    4    0    0  0.79161574503E+02  0.13955942095E+02  0.29644393684E+03  0.33164414512E+03  0.12509000000E+03 0.  0.
<mgrwt>
<rscale>  2 0.47927965E+03</rscale>
<asrwt>0</asrwt>
<pdfrwt beam="1">  1       21 0.10379505E+00 0.47927965E+03</pdfrwt>
<pdfrwt beam="2">  1       21 0.11965298E-01 0.47927965E+03</pdfrwt>
<totfact> 0.40171806E+04</totfact>
</mgrwt>
</event>
<event>
 7    0  0.4707675E-002  0.4556238E+03  0.7546771E-02  0.1026058E+00
         21   -1    0    0  502  501  0.00000000000E+00  0.00000000000E+00  0.37839438819E+02  0.37839438819E+02  0.00000000000E+00 0. -1.
         21   -1    0    0  501  502 -0.00000000000E+00 -0.00000000000E+00 -0.13715387460E+04  0.13715387460E+04  0.00000000000E+00 0. -1.
      99926    2    1    2    0    0 -0.35527136788E-14 -0.14210854715E-13 -0.13336993072E+04  0.14093781849E+04  0.45562377668E+03 0.  0.
      99925    2    3    3    0    0  0.23512352293E+02 -0.10290742852E+03 -0.96854454452E+03  0.10092178690E+04  0.26324779744E+03 0.  0.
         25    1    4    4    0    0 -0.20903882161E+02 -0.31624461986E+02 -0.51366277058E+03  0.53003210173E+03  0.12509000000E+03 0.  0.
         25    1    4    4    0    0  0.44416234453E+02 -0.71282966536E+02 -0.45488177394E+03  0.47918576728E+03  0.12509000000E+03 0.  0.
         25    1    3    3    0    0 -0.23512352293E+02  0.10290742852E+03 -0.36515476269E+03  0.40016031584E+03  0.12509000000E+03 0.  0.
<mgrwt>
<rscale>  2 0.45562378E+03</rscale>
<asrwt>0</asrwt>
<pdfrwt beam="1">  1       21 0.55646231E-02 0.45562378E+03</pdfrwt>
<pdfrwt beam="2">  1       21 0.20169688E+00 0.45562378E+03</pdfrwt>
<totfact> 0.25957110E+04</totfact>
</mgrwt>
</event>
<event>
 7    0  0.4707675E-002  0.4543394E+03  0.7546771E-02  0.1026436E+00
         21   -1    0    0  502  501  0.00000000000E+00  0.00000000000E+00  0.26329317177E+04  0.26329317177E+04  0.00000000000E+00 0. -1.
         21   -1    0    0  501  502 -0.00000000000E+00 -0.00000000000E+00 -0.19600234255E+02  0.19600234255E+02  0.00000000000E+00 0. -1.
      99926    2    1    2    0    0  0.00000000000E+00 -0.17763568394E-14  0.26133314834E+04  0.26525319519E+04  0.45433942573E+03 0.  0.
      99925    2    3    3    0    0 -0.30642021465E+02  0.53399918497E+01  0.10136716709E+04  0.10476872639E+04  0.26296558224E+03 0.  0.
         25    1    4    4    0    0  0.15837993936E+01 -0.13710928025E+02  0.62878872352E+03  0.64125912461E+03  0.12509000000E+03 0.  0.
         25    1    4    4    0    0 -0.32225820859E+02  0.19050919875E+02  0.38488294741E+03  0.40642813927E+03  0.12509000000E+03 0.  0.
         25    1    3    3    0    0  0.30642021465E+02 -0.53399918497E+01  0.15996598125E+04  0.16048446880E+04  0.12509000000E+03 0.  0.
<mgrwt>
<rscale>  2 0.45433943E+03</rscale>
<asrwt>0</asrwt>
<pdfrwt beam="1">  1       21 0.38719560E+00 0.45433943E+03</pdfrwt>
<pdfrwt beam="2">  1       21 0.28823892E-02 0.45433943E+03</pdfrwt>
<totfact> 0.57230851E+03</totfact>
</mgrwt>
</event>
<event>
 7    0  0.4707675E-002  0.4566866E+03  0.7546771E-02  0.1025747E+00
         21   -1    0    0  502  501  0.00000000000E+00  0.00000000000E+00  0.25530243585E+03  0.25530243585E+03  0.00000000000E+00 0.  1.
         21   -1    0    0  501  502 -0.00000000000E+00 -0.00000000000E+00 -0.20423097767E+03  0.20423097767E+03  0.00000000000E+00 0.  1.
      99926    2    1    2    0    0 -0.17763568394E-14  0.00000000000E+00  0.51071458184E+02  0.45953341352E+03  0.45668661498E+03 0.  0.
      99925    2    3    3    0    0 -0.29065244623E+01 -0.58195477496E+02  0.13169154334E+03  0.29971392874E+03  0.26285093686E+03 0.  0.
         25    1    4    4    0    0 -0.17009896036E+02 -0.10294262724E+02  0.99921942368E+02  0.16132951086E+03  0.12509000000E+03 0.  0.
         25    1    4    4    0    0  0.14103371573E+02 -0.47901214772E+02  0.31769600969E+02  0.13838441788E+03  0.12509000000E+03 0.  0.
         25    1    3    3    0    0  0.29065244623E+01  0.58195477496E+02 -0.80620085153E+02  0.15981948478E+03  0.12509000000E+03 0.  0.
<mgrwt>
<rscale>  2 0.45668661E+03</rscale>
<asrwt>0</asrwt>
<pdfrwt beam="1">  1       21 0.37544476E-01 0.45668661E+03</pdfrwt>
<pdfrwt beam="2">  1       21 0.30033967E-01 0.45668661E+03</pdfrwt>
<totfact> 0.67304621E+04</totfact>
</mgrwt>
</event>
<event>
 7    0  0.4707675E-002  0.4537201E+03  0.7546771E-02  0.1026618E+00
         21   -1    0    0  502  501  0.00000000000E+00  0.00000000000E+00  0.10974721593E+04  0.10974721593E+04  0.00000000000E+00 0. -1.
         21   -1    0    0  501  502 -0.00000000000E+00 -0.00000000000E+00 -0.46894566521E+02  0.46894566521E+02  0.00000000000E+00 0. -1.
      99926    2    1    2    0    0  0.00000000000E+00  0.00000000000E+00  0.10505775928E+04  0.11443667258E+04  0.45372009512E+03 0.  0.
      99925    2    3    3    0    0  0.89280252001E+02  0.27961667251E+02  0.50694806551E+03  0.57874018008E+03  0.26304189149E+03 0.  0.
         25    1    3    3    0    0 -0.89280252001E+02 -0.27961667251E+02  0.54362952726E+03  0.56562654574E+03  0.12509000000E+03 0.  0.
         25    1    4    4    0    0  0.87480526100E+02  0.17058458582E+02  0.28161939994E+03  0.32078158922E+03  0.12509000000E+03 0.  0.
         25    1    4    4    0    0  0.17997259011E+01  0.10903208669E+02  0.22532866557E+03  0.25795859086E+03  0.12509000000E+03 0.  0.
<mgrwt>
<rscale>  2 0.45372010E+03</rscale>
<asrwt>0</asrwt>
<pdfrwt beam="1">  1       21 0.16139295E+00 0.45372010E+03</pdfrwt>
<pdfrwt beam="2">  1       21 0.68962605E-02 0.45372010E+03</pdfrwt>
<totfact> 0.34312022E+04</totfact>
</mgrwt>
</event>
<event>
 7    0  0.4707675E-002  0.4518476E+03  0.7546771E-02  0.1027173E+00
         21   -1    0    0  502  501  0.00000000000E+00  0.00000000000E+00  0.39533408430E+03  0.39533408430E+03  0.00000000000E+00 0.  1.
         21   -1    0    0  501  502 -0.00000000000E+00 -0.00000000000E+00 -0.12910992831E+03  0.12910992831E+03  0.00000000000E+00 0.  1.
      99926    2    1    2    0    0  0.71054273576E-14  0.00000000000E+00  0.26622415599E+03  0.52444401261E+03  0.45184756405E+03 0.  0.
      99925    2    3    3    0    0 -0.53072275423E+02  0.92041883549E+02  0.20184009113E+03  0.34814542881E+03  0.26301604982E+03 0.  0.
         25    1    3    3    0    0  0.53072275423E+02 -0.92041883549E+02  0.64384064854E+02  0.17629858381E+03  0.12509000000E+03 0.  0.
         25    1    4    4    0    0 -0.43602080462E+02  0.37401601031E+02  0.14513681602E+03  0.20003055928E+03  0.12509000000E+03 0.  0.
         25    1    4    4    0    0 -0.94701949614E+01  0.54640282518E+02  0.56703275110E+02  0.14811486953E+03  0.12509000000E+03 0.  0.
<mgrwt>
<rscale>  2 0.45184756E+03</rscale>
<asrwt>0</asrwt>
<pdfrwt beam="1">  1       21 0.58137365E-01 0.45184756E+03</pdfrwt>
<pdfrwt beam="2">  1       21 0.18986754E-01 0.45184756E+03</pdfrwt>
<totfact> 0.65198280E+04</totfact>
</mgrwt>
</event>
<event>
 7    0  0.4707675E-002  0.4522578E+03  0.7546771E-02  0.1027051E+00
         21   -1    0    0  502  501  0.00000000000E+00  0.00000000000E+00  0.40712913514E+03  0.40712913514E+03  0.00000000000E+00 0. -1.
         21   -1    0    0  501  502 -0.00000000000E+00 -0.00000000000E+00 -0.12559722589E+03  0.12559722589E+03  0.00000000000E+00 0. -1.
      99926    2    1    2    0    0  0.00000000000E+00  0.00000000000E+00  0.28153190925E+03  0.53272636102E+03  0.45225784659E+03 0.  0.
      99925    2    3    3    0    0  0.33035531945E+02 -0.10261230407E+03  0.20277849073E+03  0.34977762409E+03  0.26382691048E+03 0.  0.
         25    1    4    4    0    0 -0.15013519996E+02 -0.77067061629E+02  0.91535873526E+02  0.17375575390E+03  0.12509000000E+03 0.  0.
         25    1    3    3    0    0 -0.33035531945E+02  0.10261230407E+03  0.78753418524E+02  0.18294873693E+03  0.12509000000E+03 0.  0.
         25    1    4    4    0    0  0.48049051941E+02 -0.25545242438E+02  0.11124261720E+03  0.17602187019E+03  0.12509000000E+03 0.  0.
<mgrwt>
<rscale>  2 0.45225785E+03</rscale>
<asrwt>0</asrwt>
<pdfrwt beam="1">  1       21 0.59871931E-01 0.45225785E+03</pdfrwt>
<pdfrwt beam="2">  1       21 0.18470180E-01 0.45225785E+03</pdfrwt>
<totfact> 0.64409268E+04</totfact>
</mgrwt>
</event>
<event>
 7    0  0.4707675E-002  0.4549518E+03  0.7546771E-02  0.1026256E+00
         21   -1    0    0  502  501  0.00000000000E+00  0.00000000000E+00  0.18200909603E+03  0.18200909603E+03  0.00000000000E+00 0.  1.
         21   -1    0    0  501  502 -0.00000000000E+00 -0.00000000000E+00 -0.28430056277E+03  0.28430056277E+03  0.00000000000E+00 0.  1.
      99926    2    1    2    0    0  0.00000000000E+00  0.00000000000E+00 -0.10229146674E+03  0.46630965880E+03  0.45495181473E+03 0.  0.
      99925    2    3    3    0    0  0.69237420541E+02  0.18076919506E+02 -0.15424257782E+03  0.31312016352E+03  0.26293130009E+03 0.  0.
         25    1    3    3    0    0 -0.69237420541E+02 -0.18076919506E+02  0.51951111082E+02  0.15318949528E+03  0.12509000000E+03 0.  0.
         25    1    4    4    0    0 -0.25147018403E+01  0.22961496626E+02 -0.85675053506E+02  0.15336647921E+03  0.12509000000E+03 0.  0.
         25    1    4    4    0    0  0.71752122381E+02 -0.48845771196E+01 -0.68567524314E+02  0.15975368431E+03  0.12509000000E+03 0.  0.
<mgrwt>
<rscale>  2 0.45495181E+03</rscale>
<asrwt>0</asrwt>
<pdfrwt beam="1">  1       21 0.26766044E-01 0.45495181E+03</pdfrwt>
<pdfrwt beam="2">  1       21 0.41808906E-01 0.45495181E+03</pdfrwt>
<totfact> 0.67737426E+04</totfact>
</mgrwt>
</event>
<event>
 7    0  0.4707675E-002  0.4389075E+03  0.7546771E-02  0.1031083E+00
         21   -1    0    0  502  501  0.00000000000E+00  0.00000000000E+00  0.17623437015E+04  0.17623437015E+04  0.00000000000E+00 0. -1.
         21   -1    0    0  501  502 -0.00000000000E+00 -0.00000000000E+00 -0.27327220391E+02  0.27327220391E+02  0.00000000000E+00 0. -1.
      99926    2    1    2    0    0  0.00000000000E+00  0.00000000000E+00  0.17350164811E+04  0.17896709219E+04  0.43890752891E+03 0.  0.
      99925    2    3    3    0    0 -0.49905747154E+02 -0.70823372171E+02  0.12885739272E+04  0.13180089712E+04  0.26309380225E+03 0.  0.
         25    1    4    4    0    0 -0.36778781075E+02 -0.27859494686E+02  0.82704399595E+03  0.83772197627E+03  0.12509000000E+03 0.  0.
         25    1    3    3    0    0  0.49905747154E+02  0.70823372171E+02  0.44644255392E+03  0.47166195066E+03  0.12509000000E+03 0.  0.
         25    1    4    4    0    0 -0.13126966079E+02 -0.42963877485E+02  0.46152993120E+03  0.48028699493E+03  0.12509000000E+03 0.  0.
<mgrwt>
<rscale>  2 0.43890753E+03</rscale>
<asrwt>0</asrwt>
<pdfrwt beam="1">  1       21 0.25916811E+00 0.43890753E+03</pdfrwt>
<pdfrwt beam="2">  1       21 0.40187101E-02 0.43890753E+03</pdfrwt>
<totfact> 0.19821250E+04</totfact>
</mgrwt>
</event>
<event>
 7    0  0.4707675E-002  0.4442664E+03  0.7546771E-02  0.1029446E+00
         21   -1    0    0  502  501  0.00000000000E+00  0.00000000000E+00  0.10322552832E+03  0.10322552832E+03  0.00000000000E+00 0. -1.
         21   -1    0    0  501  502 -0.00000000000E+00 -0.00000000000E+00 -0.47801305954E+03  0.47801305954E+03  0.00000000000E+00 0. -1.
      99926    2    1    2    0    0  0.35527136788E-14  0.00000000000E+00 -0.37478753122E+03  0.58123858786E+03  0.44426636430E+03 0.  0.
      99925    2    3    3    0    0 -0.31893199491E+02 -0.33963333100E+02 -0.35815128248E+03  0.44672109070E+03  0.26290056593E+03 0.  0.
         25    1    4    4    0    0 -0.26360387210E+02  0.21699115384E+02 -0.16349167346E+03  0.20866901306E+03  0.12509000000E+03 0.  0.
         25    1    3    3    0    0  0.31893199491E+02  0.33963333100E+02 -0.16636248746E+02  0.13451749716E+03  0.12509000000E+03 0.  0.
         25    1    4    4    0    0 -0.55328122808E+01 -0.55662448484E+02 -0.19465960902E+03  0.23805207764E+03  0.12509000000E+03 0.  0.
<mgrwt>
<rscale>  2 0.44426636E+03</rscale>
<asrwt>0</asrwt>
<pdfrwt beam="1">  1       21 0.15180225E-01 0.44426636E+03</pdfrwt>
<pdfrwt beam="2">  1       21 0.70296037E-01 0.44426636E+03</pdfrwt>
<totfact> 0.65207484E+04</totfact>
</mgrwt>
</event>
<event>
 7    0  0.4707675E-002  0.4539598E+03  0.7546771E-02  0.1026548E+00
         21   -1    0    0  502  501  0.00000000000E+00  0.00000000000E+00  0.40132684503E+03  0.40132684503E+03  0.00000000000E+00 0.  1.
         21   -1    0    0  501  502 -0.00000000000E+00 -0.00000000000E+00 -0.12837386191E+03  0.12837386191E+03  0.00000000000E+00 0.  1.
      99926    2    1    2    0    0  0.00000000000E+00 -0.71054273576E-14  0.27295298313E+03  0.52970070694E+03  0.45395980872E+03 0.  0.
      99925    2    3    3    0    0 -0.98892717327E+02 -0.41560278945E+02  0.20995242620E+03  0.35328187405E+03  0.26309890714E+03 0.  0.
         25    1    4    4    0    0 -0.24980941284E+02 -0.50204291637E+02  0.83796493175E+02  0.16066698072E+03  0.12509000000E+03 0.  0.
         25    1    3    3    0    0  0.98892717327E+02  0.41560278945E+02  0.63000556926E+02  0.17641883289E+03  0.12509000000E+03 0.  0.
         25    1    4    4    0    0 -0.73911776043E+02  0.86440126923E+01  0.12615593303E+03  0.19261489333E+03  0.12509000000E+03 0.  0.
<mgrwt>
<rscale>  2 0.45395981E+03</rscale>
<asrwt>0</asrwt>
<pdfrwt beam="1">  1       21 0.59018653E-01 0.45395981E+03</pdfrwt>
<pdfrwt beam="2">  1       21 0.18878509E-01 0.45395981E+03</pdfrwt>
<totfact> 0.63750763E+04</totfact>
</mgrwt>
</event>
<event>
 7    0  0.4707675E-002  0.4492544E+03  0.7546771E-02  0.1027945E+00
         21   -1    0    0  502  501  0.00000000000E+00  0.00000000000E+00  0.12149874245E+04  0.12149874245E+04  0.00000000000E+00 0.  1.
         21   -1    0    0  501  502 -0.00000000000E+00 -0.00000000000E+00 -0.41529143798E+02  0.41529143798E+02  0.00000000000E+00 0.  1.
      99926    2    1    2    0    0  0.00000000000E+00 -0.14210854715E-13  0.11734582807E+04  0.12565165683E+04  0.44925443777E+03 0.  0.
      99925    2    3    3    0    0 -0.71764248080E+02 -0.78147986247E+02  0.78395619228E+03  0.83388599671E+03  0.26366897625E+03 0.  0.
         25    1    4    4    0    0  0.49374646931E+01 -0.42268530703E+02  0.33060745985E+03  0.35603343643E+03  0.12509000000E+03 0.  0.
         25    1    4    4    0    0 -0.76701712773E+02 -0.35879455544E+02  0.45334873243E+03  0.47785256028E+03  0.12509000000E+03 0.  0.
         25    1    3    3    0    0  0.71764248080E+02  0.78147986247E+02  0.38950208844E+03  0.42263057160E+03  0.12509000000E+03 0.  0.
<mgrwt>
<rscale>  2 0.44925444E+03</rscale>
<asrwt>0</asrwt>
<pdfrwt beam="1">  1       21 0.17867460E+00 0.44925444E+03</pdfrwt>
<pdfrwt beam="2">  1       21 0.61072278E-02 0.44925444E+03</pdfrwt>
<totfact> 0.31802689E+04</totfact>
</mgrwt>
</event>
<event>
 7    0  0.4707675E-002  0.4540080E+03  0.7546771E-02  0.1026534E+00
         21   -1    0    0  502  501  0.00000000000E+00  0.00000000000E+00  0.56211300275E+03  0.56211300275E+03  0.00000000000E+00 0. -1.
         21   -1    0    0  501  502 -0.00000000000E+00 -0.00000000000E+00 -0.91673427263E+02  0.91673427263E+02  0.00000000000E+00 0. -1.
      99926    2    1    2    0    0  0.00000000000E+00  0.00000000000E+00  0.47043957548E+03  0.65378643001E+03  0.45400804165E+03 0.  0.
      99925    2    3    3    0    0 -0.10695686340E+03  0.33650669641E+02  0.30331692667E+03  0.41682730686E+03  0.26300514738E+03 0.  0.
         25    1    4    4    0    0 -0.15502394600E+02  0.96887601082E+01  0.16406715901E+03  0.20712251707E+03  0.12509000000E+03 0.  0.
         25    1    3    3    0    0  0.10695686340E+03 -0.33650669641E+02  0.16712264882E+03  0.23695912315E+03  0.12509000000E+03 0.  0.
         25    1    4    4    0    0 -0.91454468796E+02  0.23961909532E+02  0.13924976766E+03  0.20970478980E+03  0.12509000000E+03 0.  0.
<mgrwt>
<rscale>  2 0.45400804E+03</rscale>
<asrwt>0</asrwt>
<pdfrwt beam="1">  1       21 0.82663675E-01 0.45400804E+03</pdfrwt>
<pdfrwt beam="2">  1       21 0.13481387E-01 0.45400804E+03</pdfrwt>
<totfact> 0.55920147E+04</totfact>
</mgrwt>
</event>
<event>
 7    0  0.4707675E-002  0.4543278E+03  0.7546771E-02  0.1026439E+00
         21   -1    0    0  502  501  0.00000000000E+00  0.00000000000E+00  0.40839205886E+02  0.40839205886E+02  0.00000000000E+00 0.  1.
         21   -1    0    0  501  502 -0.00000000000E+00 -0.00000000000E+00 -0.12635759912E+04  0.12635759912E+04  0.00000000000E+00 0.  1.
      99926    2    1    2    0    0  0.00000000000E+00  0.00000000000E+00 -0.12227367853E+04  0.13044151971E+04  0.45432781142E+03 0.  0.
      99925    2    3    3    0    0  0.32722042185E+02  0.50788627001E+02 -0.49717802981E+03  0.56567760331E+03  0.26297327027E+03 0.  0.
         25    1    3    3    0    0 -0.32722042185E+02 -0.50788627001E+02 -0.72555875548E+03  0.73873759376E+03  0.12509000000E+03 0.  0.
         25    1    4    4    0    0  0.43799454168E+02 -0.31642722308E+00 -0.21403595775E+03  0.25174866756E+03  0.12509000000E+03 0.  0.
         25    1    4    4    0    0 -0.11077411982E+02  0.51105054224E+02 -0.28314207206E+03  0.31392893574E+03  0.12509000000E+03 0.  0.
<mgrwt>
<rscale>  2 0.45432781E+03</rscale>
<asrwt>0</asrwt>
<pdfrwt beam="1">  1       21 0.60057669E-02 0.45432781E+03</pdfrwt>
<pdfrwt beam="2">  1       21 0.18581996E+00 0.45432781E+03</pdfrwt>
<totfact> 0.29138756E+04</totfact>
</mgrwt>
</event>
<event>
 7    0  0.4707675E-002  0.4485375E+03  0.7546771E-02  0.1028159E+00
         21   -1    0    0  502  501  0.00000000000E+00  0.00000000000E+00  0.17527119197E+03  0.17527119197E+03  0.00000000000E+00 0.  1.
         21   -1    0    0  501  502 -0.00000000000E+00 -0.00000000000E+00 -0.28696371309E+03  0.28696371309E+03  0.00000000000E+00 0.  1.
      99926    2    1    2    0    0 -0.35527136788E-14  0.71054273576E-14 -0.11169252112E+03  0.46223490506E+03  0.44853749920E+03 0.  0.
      99925    2    3    3    0    0 -0.27103714836E+02 -0.34664365476E+02  0.29746155554E+02  0.26835701321E+03  0.26304832859E+03 0.  0.
         25    1    4    4    0    0 -0.44445948188E+02 -0.36007357687E+02 -0.40915890288E+01  0.13760894345E+03  0.12509000000E+03 0.  0.
         25    1    4    4    0    0  0.17342233352E+02  0.13429922110E+01  0.33837744582E+02  0.13074806975E+03  0.12509000000E+03 0.  0.
         25    1    3    3    0    0  0.27103714836E+02  0.34664365476E+02 -0.14143867667E+03  0.19387789186E+03  0.12509000000E+03 0.  0.
<mgrwt>
<rscale>  2 0.44853750E+03</rscale>
<asrwt>0</asrwt>
<pdfrwt beam="1">  1       21 0.25775175E-01 0.44853750E+03</pdfrwt>
<pdfrwt beam="2">  1       21 0.42200546E-01 0.44853750E+03</pdfrwt>
<totfact> 0.71619305E+04</totfact>
</mgrwt>
</event>
<event>
 7    0  0.4707675E-002  0.4471623E+03  0.7546771E-02  0.1028572E+00
         21   -1    0    0  502  501  0.00000000000E+00  0.00000000000E+00  0.53876885091E+03  0.53876885091E+03  0.00000000000E+00 0.  1.
         21   -1    0    0  501  502 -0.00000000000E+00 -0.00000000000E+00 -0.92782893848E+02  0.92782893848E+02  0.00000000000E+00 0.  1.
      99926    2    1    2    0    0 -0.71054273576E-14  0.35527136788E-14  0.44598595706E+03  0.63155174476E+03  0.44716231104E+03 0.  0.
      99925    2    3    3    0    0 -0.40631407163E+02 -0.30145548819E+02  0.41342763397E+03  0.49274534049E+03  0.26327912316E+03 0.  0.
         25    1    4    4    0    0  0.10912247338E+02 -0.41682400462E+02  0.20607531400E+03  0.24488985848E+03  0.12509000000E+03 0.  0.
         25    1    3    3    0    0  0.40631407163E+02  0.30145548819E+02  0.32558323095E+02  0.13880640426E+03  0.12509000000E+03 0.  0.
         25    1    4    4    0    0 -0.51543654501E+02  0.11536851643E+02  0.20735231997E+03  0.24785548201E+03  0.12509000000E+03 0.  0.
<mgrwt>
<rscale>  2 0.44716231E+03</rscale>
<asrwt>0</asrwt>
<pdfrwt beam="1">  1       21 0.79230712E-01 0.44716231E+03</pdfrwt>
<pdfrwt beam="2">  1       21 0.13644543E-01 0.44716231E+03</pdfrwt>
<totfact> 0.60429590E+04</totfact>
</mgrwt>
</event>
<event>
 7    0  0.4707675E-002  0.4538501E+03  0.7546771E-02  0.1026580E+00
         21   -1    0    0  502  501  0.00000000000E+00  0.00000000000E+00  0.63353965949E+02  0.63353965949E+02  0.00000000000E+00 0. -1.
         21   -1    0    0  501  502 -0.00000000000E+00 -0.00000000000E+00 -0.81281369203E+03  0.81281369203E+03  0.00000000000E+00 0. -1.
      99926    2    1    2    0    0  0.00000000000E+00  0.00000000000E+00 -0.74945972608E+03  0.87616765798E+03  0.45385006761E+03 0.  0.
      99925    2    3    3    0    0 -0.10834331632E+03 -0.23040592632E+02 -0.50492595105E+03  0.58000314570E+03  0.26302906661E+03 0.  0.
         25    1    4    4    0    0 -0.21243446120E+02 -0.36407564819E+02 -0.21883342646E+03  0.25556285218E+03  0.12509000000E+03 0.  0.
         25    1    3    3    0    0  0.10834331632E+03  0.23040592632E+02 -0.24453377503E+03  0.29616451227E+03  0.12509000000E+03 0.  0.
         25    1    4    4    0    0 -0.87099870200E+02  0.13366972187E+02 -0.28609252459E+03  0.32444029352E+03  0.12509000000E+03 0.  0.
<mgrwt>
<rscale>  2 0.45385007E+03</rscale>
<asrwt>0</asrwt>
<pdfrwt beam="1">  1       21 0.93167592E-02 0.45385007E+03</pdfrwt>
<pdfrwt beam="2">  1       21 0.11953143E+00 0.45385007E+03</pdfrwt>
<totfact> 0.44681263E+04</totfact>
</mgrwt>
</event>
<event>
 7    0  0.4707675E-002  0.5141654E+03  0.7546771E-02  0.1010146E+00
         21   -1    0    0  502  501  0.00000000000E+00  0.00000000000E+00  0.29129751149E+03  0.29129751149E+03  0.00000000000E+00 0.  1.
         21   -1    0    0  501  502 -0.00000000000E+00 -0.00000000000E+00 -0.22688662298E+03  0.22688662298E+03  0.00000000000E+00 0.  1.
      99926    2    1    2    0    0  0.00000000000E+00  0.00000000000E+00  0.64410888518E+02  0.51818413447E+03  0.51416537676E+03 0.  0.
      99925    2    3    3    0    0 -0.48174667363E+02  0.91827948485E+02  0.16483567825E+03  0.32717152444E+03  0.26290156880E+03 0.  0.
         25    1    4    4    0    0 -0.94967215912E+01  0.71994719189E+02  0.53691108060E+02  0.15428438190E+03  0.12509000000E+03 0.  0.
         25    1    4    4    0    0 -0.38677945771E+02  0.19833229296E+02  0.11114457019E+03  0.17288714254E+03  0.12509000000E+03 0.  0.
         25    1    3    3    0    0  0.48174667363E+02 -0.91827948485E+02 -0.10042478973E+03  0.19101261003E+03  0.12509000000E+03 0.  0.
<mgrwt>
<rscale>  2 0.51416538E+03</rscale>
<asrwt>0</asrwt>
<pdfrwt beam="1">  1       21 0.42837869E-01 0.51416538E+03</pdfrwt>
<pdfrwt beam="2">  1       21 0.33365680E-01 0.51416538E+03</pdfrwt>
<totfact> 0.41055032E+04</totfact>
</mgrwt>
</event>
<event>
 7    0  0.4707675E-002  0.4904982E+03  0.7546771E-02  0.1016289E+00
         21   -1    0    0  502  501  0.00000000000E+00  0.00000000000E+00  0.98565841366E+02  0.98565841366E+02  0.00000000000E+00 0. -1.
         21   -1    0    0  501  502 -0.00000000000E+00 -0.00000000000E+00 -0.61022284741E+03  0.61022284741E+03  0.00000000000E+00 0. -1.
      99926    2    1    2    0    0  0.00000000000E+00  0.00000000000E+00 -0.51165700605E+03  0.70878868878E+03  0.49049822987E+03 0.  0.
      99925    2    3    3    0    0  0.13449182503E+03 -0.47792354220E+02 -0.28560046272E+03  0.41362563384E+03  0.26295699370E+03 0.  0.
         25    1    4    4    0    0  0.85459319631E+02  0.10624665632E+02 -0.13003106034E+03  0.19992939650E+03  0.12509000000E+03 0.  0.
         25    1    3    3    0    0 -0.13449182503E+03  0.47792354220E+02 -0.22605654332E+03  0.29516305494E+03  0.12509000000E+03 0.  0.
         25    1    4    4    0    0  0.49032505400E+02 -0.58417019853E+02 -0.15556940238E+03  0.21369623734E+03  0.12509000000E+03 0.  0.
<mgrwt>
<rscale>  2 0.49049823E+03</rscale>
<asrwt>0</asrwt>
<pdfrwt beam="1">  1       21 0.14494977E-01 0.49049823E+03</pdfrwt>
<pdfrwt beam="2">  1       21 0.89738652E-01 0.49049823E+03</pdfrwt>
<totfact> 0.40014714E+04</totfact>
</mgrwt>
</event>
<event>
 7    0  0.4707675E-002  0.4595969E+03  0.7546771E-02  0.1024898E+00
         21   -1    0    0  502  501  0.00000000000E+00  0.00000000000E+00  0.29601956506E+03  0.29601956506E+03  0.00000000000E+00 0. -1.
         21   -1    0    0  501  502 -0.00000000000E+00 -0.00000000000E+00 -0.17839137281E+03  0.17839137281E+03  0.00000000000E+00 0. -1.
      99926    2    1    2    0    0  0.00000000000E+00  0.71054273576E-14  0.11762819224E+03  0.47441093787E+03  0.45959693902E+03 0.  0.
      99925    2    3    3    0    0 -0.10482984654E+03  0.50302760614E+02  0.89473389785E+02  0.30132175434E+03  0.26319127590E+03 0.  0.
         25    1    4    4    0    0 -0.76916332085E+02  0.54262309774E+02  0.70520876321E+02  0.17170096826E+03  0.12509000000E+03 0.  0.
         25    1    3    3    0    0  0.10482984654E+03 -0.50302760614E+02  0.28154802459E+02  0.17308918352E+03  0.12509000000E+03 0.  0.
         25    1    4    4    0    0 -0.27913514457E+02 -0.39595491603E+01  0.18952513464E+02  0.12962078609E+03  0.12509000000E+03 0.  0.
<mgrwt>
<rscale>  2 0.45959694E+03</rscale>
<asrwt>0</asrwt>
<pdfrwt beam="1">  1       21 0.43532289E-01 0.45959694E+03</pdfrwt>
<pdfrwt beam="2">  1       21 0.26234026E-01 0.45959694E+03</pdfrwt>
<totfact> 0.64716503E+04</totfact>
</mgrwt>
</event>
<event>
 7    0  0.4707675E-002  0.4622312E+03  0.7546771E-02  0.1024136E+00
         21   -1    0    0  502  501  0.00000000000E+00  0.00000000000E+00  0.20957926932E+02  0.20957926932E+02  0.00000000000E+00 0.  1.
         21   -1    0    0  501  502 -0.00000000000E+00 -0.00000000000E+00 -0.25486501905E+04  0.25486501905E+04  0.00000000000E+00 0.  1.
      99926    2    1    2    0    0  0.00000000000E+00  0.00000000000E+00 -0.25276922636E+04  0.25696081175E+04  0.46223121690E+03 0.  0.
      99925    2    3    3    0    0  0.31989808895E+02 -0.73222382620E+02 -0.20768674218E+04  0.20949762482E+04  0.26298731493E+03 0.  0.
         25    1    4    4    0    0 -0.51322174831E+00 -0.73793166405E+02 -0.11536190114E+04  0.11627252584E+04  0.12509000000E+03 0.  0.
         25    1    4    4    0    0  0.32503030643E+02  0.57078378517E+00 -0.92324841036E+03  0.93225098988E+03  0.12509000000E+03 0.  0.
         25    1    3    3    0    0 -0.31989808895E+02  0.73222382620E+02 -0.45082484182E+03  0.47463186924E+03  0.12509000000E+03 0.  0.
<mgrwt>
<rscale>  2 0.46223122E+03</rscale>
<asrwt>0</asrwt>
<pdfrwt beam="1">  1       21 0.30820501E-02 0.46223122E+03</pdfrwt>
<pdfrwt beam="2">  1       21 0.37480125E+00 0.46223122E+03</pdfrwt>
<totfact> 0.60956099E+03</totfact>
</mgrwt>
</event>
<event>
 7    0  0.4707675E-002  0.4544029E+03  0.7546771E-02  0.1026417E+00
         21   -1    0    0  502  501  0.00000000000E+00  0.00000000000E+00  0.27623106164E+03  0.27623106164E+03  0.00000000000E+00 0. -1.
         21   -1    0    0  501  502 -0.00000000000E+00 -0.00000000000E+00 -0.18687436814E+03  0.18687436814E+03  0.00000000000E+00 0. -1.
      99926    2    1    2    0    0  0.00000000000E+00  0.88817841970E-15  0.89356693494E+02  0.46310542978E+03  0.45440292739E+03 0.  0.
      99925    2    3    3    0    0 -0.76616941983E+02  0.73866695783E+01  0.14000003025E+03  0.30774464212E+03  0.26302478514E+03 0.  0.
         25    1    4    4    0    0 -0.28781130709E+02  0.98807673379E+01  0.11257880538E+03  0.17101894213E+03  0.12509000000E+03 0.  0.
         25    1    3    3    0    0  0.76616941983E+02 -0.73866695783E+01 -0.50643336752E+02  0.15536078766E+03  0.12509000000E+03 0.  0.
         25    1    4    4    0    0 -0.47835811274E+02 -0.24940977596E+01  0.27421224871E+02  0.13672569999E+03  0.12509000000E+03 0.  0.
<mgrwt>
<rscale>  2 0.45440293E+03</rscale>
<asrwt>0</asrwt>
<pdfrwt beam="1">  1       21 0.40622215E-01 0.45440293E+03</pdfrwt>
<pdfrwt beam="2">  1       21 0.27481525E-01 0.45440293E+03</pdfrwt>
<totfact> 0.68274556E+04</totfact>
</mgrwt>
</event>
<event>
 7    0  0.4707675E-002  0.4566691E+03  0.7546771E-02  0.1025752E+00
         21   -1    0    0  502  501  0.00000000000E+00  0.00000000000E+00  0.79983610373E+02  0.79983610373E+02  0.00000000000E+00 0. -1.
         21   -1    0    0  501  502 -0.00000000000E+00 -0.00000000000E+00 -0.65184188427E+03  0.65184188427E+03  0.00000000000E+00 0. -1.
      99926    2    1    2    0    0  0.00000000000E+00  0.00000000000E+00 -0.57185827390E+03  0.73182549465E+03  0.45666910251E+03 0.  0.
      99925    2    3    3    0    0 -0.10440861230E+03  0.46831306407E+02 -0.34608903248E+03  0.44948954573E+03  0.26299981698E+03 0.  0.
         25    1    4    4    0    0 -0.26670059464E+02 -0.11221700596E+02 -0.16136965326E+03  0.20621564375E+03  0.12509000000E+03 0.  0.
         25    1    4    4    0    0 -0.77738552840E+02  0.58053007003E+02 -0.18471937922E+03  0.24327390197E+03  0.12509000000E+03 0.  0.
         25    1    3    3    0    0  0.10440861230E+03 -0.46831306407E+02 -0.22576924142E+03  0.28233594892E+03  0.12509000000E+03 0.  0.
<mgrwt>
<rscale>  2 0.45666910E+03</rscale>
<asrwt>0</asrwt>
<pdfrwt beam="1">  1       21 0.11762296E-01 0.45666910E+03</pdfrwt>
<pdfrwt beam="2">  1       21 0.95859095E-01 0.45666910E+03</pdfrwt>
<totfact> 0.50542288E+04</totfact>
</mgrwt>
</event>
<event>
 7    0  0.4707675E-002  0.4682191E+03  0.7546771E-02  0.1022424E+00
         21   -1    0    0  502  501  0.00000000000E+00  0.00000000000E+00  0.21879534593E+03  0.21879534593E+03  0.00000000000E+00 0.  1.
         21   -1    0    0  501  502 -0.00000000000E+00 -0.00000000000E+00 -0.25049562982E+03  0.25049562982E+03  0.00000000000E+00 0.  1.
      99926    2    1    2    0    0  0.00000000000E+00  0.00000000000E+00 -0.31700283896E+02  0.46929097575E+03  0.46821908539E+03 0.  0.
      99925    2    3    3    0    0 -0.84586219614E+02  0.60312628953E+02 -0.89767280912E+02  0.29663025062E+03  0.26294276773E+03 0.  0.
         25    1    3    3    0    0  0.84586219614E+02 -0.60312628953E+02  0.58066997017E+02  0.17266072513E+03  0.12509000000E+03 0.  0.
         25    1    4    4    0    0 -0.69459275497E+01  0.24969476127E+02 -0.64573155830E+02  0.14313951656E+03  0.12509000000E+03 0.  0.
         25    1    4    4    0    0 -0.77640292064E+02  0.35343152826E+02 -0.25194125082E+02  0.15349073406E+03  0.12509000000E+03 0.  0.
<mgrwt>
<rscale>  2 0.46821909E+03</rscale>
<asrwt>0</asrwt>
<pdfrwt beam="1">  1       21 0.32175786E-01 0.46821909E+03</pdfrwt>
<pdfrwt beam="2">  1       21 0.36837593E-01 0.46821909E+03</pdfrwt>
<totfact> 0.60837010E+04</totfact>
</mgrwt>
</event>
<event>
 7    0  0.4707675E-002  0.4512385E+03  0.7546771E-02  0.1027353E+00
         21   -1    0    0  502  501  0.00000000000E+00  0.00000000000E+00  0.27223036862E+03  0.27223036862E+03  0.00000000000E+00 0. -1.
         21   -1    0    0  501  502 -0.00000000000E+00 -0.00000000000E+00 -0.18698882296E+03  0.18698882296E+03  0.00000000000E+00 0. -1.
      99926    2    1    2    0    0  0.17763568394E-14  0.00000000000E+00  0.85241545655E+02  0.45921919158E+03  0.45123845671E+03 0.  0.
      99925    2    3    3    0    0  0.10009911105E+02 -0.10760749079E+03  0.35242733388E+02  0.28651435748E+03  0.26299972698E+03 0.  0.
         25    1    3    3    0    0 -0.10009911105E+02  0.10760749079E+03  0.49998812266E+02  0.17270483410E+03  0.12509000000E+03 0.  0.
         25    1    4    4    0    0  0.17850304733E+02 -0.95552778967E+02  0.20565237041E+02  0.15974793902E+03  0.12509000000E+03 0.  0.
         25    1    4    4    0    0 -0.78403936285E+01 -0.12054711824E+02  0.14677496348E+02  0.12676641846E+03  0.12509000000E+03 0.  0.
<mgrwt>
<rscale>  2 0.45123846E+03</rscale>
<asrwt>0</asrwt>
<pdfrwt beam="1">  1       21 0.40033878E-01 0.45123846E+03</pdfrwt>
<pdfrwt beam="2">  1       21 0.27498356E-01 0.45123846E+03</pdfrwt>
<totfact> 0.70320751E+04</totfact>
</mgrwt>
</event>
<event>
 7    0  0.4707675E-002  0.4550174E+03  0.7546771E-02  0.1026236E+00
         21   -1    0    0  502  501  0.00000000000E+00  0.00000000000E+00  0.36714657024E+03  0.36714657024E+03  0.00000000000E+00 0.  1.
         21   -1    0    0  501  502 -0.00000000000E+00 -0.00000000000E+00 -0.14097967699E+03  0.14097967699E+03  0.00000000000E+00 0.  1.
      99926    2    1    2    0    0  0.00000000000E+00  0.00000000000E+00  0.22616689326E+03  0.50812624723E+03  0.45501738375E+03 0.  0.
      99925    2    3    3    0    0  0.70541039801E+02 -0.35146445354E+02  0.51593196466E+02  0.27935825421E+03  0.26299784288E+03 0.  0.
         25    1    4    4    0    0  0.16768545225E+02  0.18106224696E+02  0.35003670782E+02  0.13221869970E+03  0.12509000000E+03 0.  0.
         25    1    4    4    0    0  0.53772494576E+02 -0.53252670050E+02  0.16589525683E+02  0.14713955451E+03  0.12509000000E+03 0.  0.
         25    1    3    3    0    0 -0.70541039801E+02  0.35146445354E+02  0.17457369679E+03  0.22876799302E+03  0.12509000000E+03 0.  0.
<mgrwt>
<rscale>  2 0.45501738E+03</rscale>
<asrwt>0</asrwt>
<pdfrwt beam="1">  1       21 0.53992143E-01 0.45501738E+03</pdfrwt>
<pdfrwt beam="2">  1       21 0.20732305E-01 0.45501738E+03</pdfrwt>
<totfact> 0.64694529E+04</totfact>
</mgrwt>
</event>
<event>
 7    0  0.4707675E-002  0.4573385E+03  0.7546771E-02  0.1025556E+00
         21   -1    0    0  502  501  0.00000000000E+00  0.00000000000E+00  0.43267195003E+03  0.43267195003E+03  0.00000000000E+00 0.  1.
         21   -1    0    0  501  502 -0.00000000000E+00 -0.00000000000E+00 -0.12085282589E+03  0.12085282589E+03  0.00000000000E+00 0.  1.
      99926    2    1    2    0    0  0.00000000000E+00 -0.35527136788E-14  0.31181912415E+03  0.55352477592E+03  0.45733850852E+03 0.  0.
      99925    2    3    3    0    0  0.11058558779E+03  0.19995871305E+02  0.22743898228E+03  0.36538513752E+03  0.26296159599E+03 0.  0.
         25    1    3    3    0    0 -0.11058558779E+03 -0.19995871305E+02  0.84380141869E+02  0.18813963840E+03  0.12509000000E+03 0.  0.
         25    1    4    4    0    0  0.77870448887E+02  0.34920168218E+02  0.15382619843E+03  0.21585465568E+03  0.12509000000E+03 0.  0.
         25    1    4    4    0    0  0.32715138901E+02 -0.14924296913E+02  0.73612783853E+02  0.14953048184E+03  0.12509000000E+03 0.  0.
<mgrwt>
<rscale>  2 0.45733851E+03</rscale>
<asrwt>0</asrwt>
<pdfrwt beam="1">  1       21 0.63628227E-01 0.45733851E+03</pdfrwt>
<pdfrwt beam="2">  1       21 0.17772475E-01 0.45733851E+03</pdfrwt>
<totfact> 0.60506988E+04</totfact>
</mgrwt>
</event>
<event>
 7    0  0.4707675E-002  0.4356783E+03  0.7546771E-02  0.1032081E+00
         21   -1    0    0  502  501  0.00000000000E+00  0.00000000000E+00  0.96221098565E+02  0.96221098565E+02  0.00000000000E+00 0.  1.
         21   -1    0    0  501  502 -0.00000000000E+00 -0.00000000000E+00 -0.49317551714E+03  0.49317551714E+03  0.00000000000E+00 0.  1.
      99926    2    1    2    0    0  0.00000000000E+00  0.00000000000E+00 -0.39695441857E+03  0.58939661570E+03  0.43567827600E+03 0.  0.
      99925    2    3    3    0    0  0.37581541480E+02 -0.84805964007E+02 -0.27388631217E+03  0.39090810041E+03  0.26304183541E+03 0.  0.
         25    1    4    4    0    0  0.57689346826E+02 -0.37538250803E+02 -0.12480383413E+03  0.18963303015E+03  0.12509000000E+03 0.  0.
         25    1    4    4    0    0 -0.20107805346E+02 -0.47267713204E+02 -0.14908247805E+03  0.20127507026E+03  0.12509000000E+03 0.  0.
         25    1    3    3    0    0 -0.37581541480E+02  0.84805964007E+02 -0.12306810640E+03  0.19848851529E+03  0.12509000000E+03 0.  0.
<mgrwt>
<rscale>  2 0.43567828E+03</rscale>
<asrwt>0</asrwt>
<pdfrwt beam="1">  1       21 0.14150161E-01 0.43567828E+03</pdfrwt>
<pdfrwt beam="2">  1       21 0.72525812E-01 0.43567828E+03</pdfrwt>
<totfact> 0.69331534E+04</totfact>
</mgrwt>
</event>
<event>
 7    0  0.4707675E-002  0.4479176E+03  0.7546771E-02  0.1028345E+00
         21   -1    0    0  502  501  0.00000000000E+00  0.00000000000E+00  0.18686986471E+03  0.18686986471E+03  0.00000000000E+00 0.  1.
         21   -1    0    0  501  502 -0.00000000000E+00 -0.00000000000E+00 -0.26840898121E+03  0.26840898121E+03  0.00000000000E+00 0.  1.
      99926    2    1    2    0    0  0.00000000000E+00  0.71054273576E-14 -0.81539116497E+02  0.45527884592E+03  0.44791762638E+03 0.  0.
      99925    2    3    3    0    0  0.51235419931E+02  0.42307084064E+02 -0.13556965764E+03  0.30368146767E+03  0.26349258834E+03 0.  0.
         25    1    4    4    0    0  0.27357180280E+02 -0.18548055195E+02 -0.79202145252E+02  0.15170014363E+03  0.12509000000E+03 0.  0.
         25    1    4    4    0    0  0.23878239652E+02  0.60855139259E+02 -0.56367512393E+02  0.15198132404E+03  0.12509000000E+03 0.  0.
         25    1    3    3    0    0 -0.51235419931E+02 -0.42307084064E+02  0.54030541148E+02  0.15159737826E+03  0.12509000000E+03 0.  0.
<mgrwt>
<rscale>  2 0.44791763E+03</rscale>
<asrwt>0</asrwt>
<pdfrwt beam="1">  1       21 0.27480863E-01 0.44791763E+03</pdfrwt>
<pdfrwt beam="2">  1       21 0.39471909E-01 0.44791763E+03</pdfrwt>
<totfact> 0.72536518E+04</totfact>
</mgrwt>
</event>
<event>
 7    0  0.4707675E-002  0.4548616E+03  0.7546771E-02  0.1026282E+00
         21   -1    0    0  502  501  0.00000000000E+00  0.00000000000E+00  0.22780090215E+03  0.22780090215E+03  0.00000000000E+00 0.  1.
         21   -1    0    0  501  502 -0.00000000000E+00 -0.00000000000E+00 -0.22706133341E+03  0.22706133341E+03  0.00000000000E+00 0.  1.
      99926    2    1    2    0    0  0.00000000000E+00  0.00000000000E+00  0.73956873532E+00  0.45486223556E+03  0.45486163432E+03 0.  0.
      99925    2    3    3    0    0  0.14233215793E+02  0.49256531647E+02 -0.10028419528E+03  0.28609583091E+03  0.26299261264E+03 0.  0.
         25    1    3    3    0    0 -0.14233215793E+02 -0.49256531647E+02  0.10102376401E+03  0.16876640464E+03  0.12509000000E+03 0.  0.
         25    1    4    4    0    0 -0.17363399787E+02  0.14369043700E+01 -0.23302449655E+02  0.12842922022E+03  0.12509000000E+03 0.  0.
         25    1    4    4    0    0  0.31596615580E+02  0.47819627277E+02 -0.76981745621E+02  0.15766661069E+03  0.12509000000E+03 0.  0.
<mgrwt>
<rscale>  2 0.45486163E+03</rscale>
<asrwt>0</asrwt>
<pdfrwt beam="1">  1       21 0.33500133E-01 0.45486163E+03</pdfrwt>
<pdfrwt beam="2">  1       21 0.33391373E-01 0.45486163E+03</pdfrwt>
<totfact> 0.68631622E+04</totfact>
</mgrwt>
</event>
<event>
 7    0  0.4707675E-002  0.4545017E+03  0.7546771E-02  0.1026388E+00
         21   -1    0    0  502  501  0.00000000000E+00  0.00000000000E+00  0.42849028636E+03  0.42849028636E+03  0.00000000000E+00 0. -1.
         21   -1    0    0  501  502 -0.00000000000E+00 -0.00000000000E+00 -0.12052302476E+03  0.12052302476E+03  0.00000000000E+00 0. -1.
      99926    2    1    2    0    0  0.00000000000E+00  0.00000000000E+00  0.30796726160E+03  0.54901331112E+03  0.45450168489E+03 0.  0.
      99925    2    3    3    0    0 -0.15935414326E+02  0.96031712513E+02  0.26247680433E+03  0.38411056087E+03  0.26300346561E+03 0.  0.
         25    1    3    3    0    0  0.15935414326E+02 -0.96031712513E+02  0.45490457277E+02  0.16490275025E+03  0.12509000000E+03 0.  0.
         25    1    4    4    0    0 -0.84311765899E+01  0.13032734587E+02  0.15257999004E+03  0.19791184494E+03  0.12509000000E+03 0.  0.
         25    1    4    4    0    0 -0.75042377359E+01  0.82998977926E+02  0.10989681429E+03  0.18619871592E+03  0.12509000000E+03 0.  0.
<mgrwt>
<rscale>  2 0.45450168E+03</rscale>
<asrwt>0</asrwt>
<pdfrwt beam="1">  1       21 0.63013277E-01 0.45450168E+03</pdfrwt>
<pdfrwt beam="2">  1       21 0.17723974E-01 0.45450168E+03</pdfrwt>
<totfact> 0.62176542E+04</totfact>
</mgrwt>
</event>
<event>
 6    0  0.4707675E-002  0.4500987E+03  0.7546771E-02  0.1027693E+00
         21   -1    0    0  502  501  0.00000000000E+00  0.00000000000E+00  0.32165114534E+03  0.32165114534E+03  0.00000000000E+00 0.  1.
         21   -1    0    0  501  502 -0.00000000000E+00 -0.00000000000E+00 -0.15746009342E+03  0.15746009342E+03  0.00000000000E+00 0.  1.
      99926    2    1    2    0    0  0.00000000000E+00  0.00000000000E+00  0.16419105193E+03  0.47911123876E+03  0.45009874203E+03 0.  0.
         25    1    3    3    0    0 -0.10255993059E+02 -0.17496084270E+02  0.62701410391E+02  0.14138696306E+03  0.12509000000E+03 0.  0.
         25    1    3    3    0    0 -0.37654918246E+02  0.56822136525E+02  0.13268355282E+03  0.19467686395E+03  0.12509000000E+03 0.  0.
         25    1    3    3    0    0  0.47910911305E+02 -0.39326052255E+02 -0.31193911282E+02  0.14304741175E+03  0.12509000000E+03 0.  0.
<mgrwt>
<rscale>  2 0.45009874E+03</rscale>
<asrwt>0</asrwt>
<pdfrwt beam="1">  1       21 0.47301639E-01 0.45009874E+03</pdfrwt>
<pdfrwt beam="2">  1       21 0.23155896E-01 0.45009874E+03</pdfrwt>
<totfact> 0.69426876E+04</totfact>
</mgrwt>
</event>
<event>
 7    0  0.4707675E-002  0.4584758E+03  0.7546771E-02  0.1025224E+00
         21   -1    0    0  502  501  0.00000000000E+00  0.00000000000E+00  0.18367882350E+04  0.18367882350E+04  0.00000000000E+00 0.  1.
         21   -1    0    0  501  502 -0.00000000000E+00 -0.00000000000E+00 -0.28609732604E+02  0.28609732604E+02  0.00000000000E+00 0.  1.
      99926    2    1    2    0    0  0.00000000000E+00  0.00000000000E+00  0.18081785024E+04  0.18653979677E+04  0.45847582381E+03 0.  0.
      99925    2    3    3    0    0  0.10446335058E+03 -0.12017291736E+02  0.93168088654E+03  0.97379683166E+03  0.26304750159E+03 0.  0.
         25    1    3    3    0    0 -0.10446335058E+03  0.12017291736E+02  0.87649761590E+03  0.89160113599E+03  0.12509000000E+03 0.  0.
         25    1    4    4    0    0  0.50126694324E+02 -0.64416816101E+01  0.32384527052E+03  0.35082395597E+03  0.12509000000E+03 0.  0.
         25    1    4    4    0    0  0.54336656254E+02 -0.55756101256E+01  0.60783561602E+03  0.62297287569E+03  0.12509000000E+03 0.  0.
<mgrwt>
<rscale>  2 0.45847582E+03</rscale>
<asrwt>0</asrwt>
<pdfrwt beam="1">  1       21 0.27011584E+00 0.45847582E+03</pdfrwt>
<pdfrwt beam="2">  1       21 0.42073149E-02 0.45847582E+03</pdfrwt>
<totfact> 0.15609228E+04</totfact>
</mgrwt>
</event>
<event>
 7    0  0.4707675E-002  0.4541774E+03  0.7546771E-02  0.1026484E+00
         21   -1    0    0  502  501  0.00000000000E+00  0.00000000000E+00  0.13100814414E+03  0.13100814414E+03  0.00000000000E+00 0. -1.
         21   -1    0    0  501  502 -0.00000000000E+00 -0.00000000000E+00 -0.39363419365E+03  0.39363419365E+03  0.00000000000E+00 0. -1.
      99926    2    1    2    0    0 -0.14210854715E-13  0.00000000000E+00 -0.26262604951E+03  0.52464233780E+03  0.45417743309E+03 0.  0.
      99925    2    3    3    0    0 -0.75822796636E+02 -0.59486818742E+02 -0.99477392904E+02  0.29758998624E+03  0.26339375490E+03 0.  0.
         25    1    4    4    0    0 -0.19580521663E+01 -0.34481644260E+02 -0.23955202335E+02  0.13196278861E+03  0.12509000000E+03 0.  0.
         25    1    4    4    0    0 -0.73864744470E+02 -0.25005174482E+02 -0.75522190569E+02  0.16562719763E+03  0.12509000000E+03 0.  0.
         25    1    3    3    0    0  0.75822796636E+02  0.59486818742E+02 -0.16314865661E+03  0.22705235155E+03  0.12509000000E+03 0.  0.
<mgrwt>
<rscale>  2 0.45417743E+03</rscale>
<asrwt>0</asrwt>
<pdfrwt beam="1">  1       21 0.19265904E-01 0.45417743E+03</pdfrwt>
<pdfrwt beam="2">  1       21 0.57887381E-01 0.45417743E+03</pdfrwt>
<totfact> 0.63986877E+04</totfact>
</mgrwt>
</event>
<event>
 7    0  0.4707675E-002  0.3939849E+03  0.7546771E-02  0.1045883E+00
         21   -1    0    0  502  501  0.00000000000E+00  0.00000000000E+00  0.32433896240E+03  0.32433896240E+03  0.00000000000E+00 0.  1.
         21   -1    0    0  501  502 -0.00000000000E+00 -0.00000000000E+00 -0.11964650067E+03  0.11964650067E+03  0.00000000000E+00 0.  1.
      99926    2    1    2    0    0 -0.35527136788E-14  0.00000000000E+00  0.20469246173E+03  0.44398546307E+03  0.39398488236E+03 0.  0.
      99925    2    3    3    0    0  0.14312319507E+02 -0.47936466379E+01  0.16940359264E+03  0.31313962279E+03  0.26292779355E+03 0.  0.
         25    1    4    4    0    0  0.47092418428E+02 -0.91468860565E+01  0.86410787496E+02  0.15942300240E+03  0.12509000000E+03 0.  0.
         25    1    3    3    0    0 -0.14312319507E+02  0.47936466379E+01  0.35288869088E+02  0.13084584028E+03  0.12509000000E+03 0.  0.
         25    1    4    4    0    0 -0.32780098921E+02  0.43532394186E+01  0.82992805149E+02  0.15371662039E+03  0.12509000000E+03 0.  0.
<mgrwt>
<rscale>  2 0.39398488E+03</rscale>
<asrwt>0</asrwt>
<pdfrwt beam="1">  1       21 0.47696906E-01 0.39398488E+03</pdfrwt>
<pdfrwt beam="2">  1       21 0.17595074E-01 0.39398488E+03</pdfrwt>
<totfact> 0.11634753E+05</totfact>
</mgrwt>
</event>
<event>
 7    0  0.4707675E-002  0.4552414E+03  0.7546771E-02  0.1026170E+00
         21   -1    0    0  502  501  0.00000000000E+00  0.00000000000E+00  0.24757594105E+04  0.24757594105E+04  0.00000000000E+00 0.  1.
         21   -1    0    0  501  502 -0.00000000000E+00 -0.00000000000E+00 -0.20927389031E+02  0.20927389031E+02  0.00000000000E+00 0.  1.
      99926    2    1    2    0    0  0.00000000000E+00  0.71054273576E-14  0.24548320215E+04  0.24966867996E+04  0.45524138798E+03 0.  0.
      99925    2    3    3    0    0  0.78940738675E+02 -0.49544598094E+02  0.18995967643E+04  0.19199546206E+04  0.26281470741E+03 0.  0.
         25    1    4    4    0    0  0.42184647229E+02  0.17580358465E+01  0.71354663697E+03  0.72565759582E+03  0.12509000000E+03 0.  0.
         25    1    3    3    0    0 -0.78940738675E+02  0.49544598094E+02  0.55523525717E+03  0.57673217903E+03  0.12509000000E+03 0.  0.
         25    1    4    4    0    0  0.36756091446E+02 -0.51302633941E+02  0.11860501274E+04  0.11942970247E+04  0.12509000000E+03 0.  0.
<mgrwt>
<rscale>  2 0.45524139E+03</rscale>
<asrwt>0</asrwt>
<pdfrwt beam="1">  1       21 0.36408206E+00 0.45524139E+03</pdfrwt>
<pdfrwt beam="2">  1       21 0.30775589E-02 0.45524139E+03</pdfrwt>
<totfact> 0.71523193E+03</totfact>
</mgrwt>
</event>
<event>
 7    0  0.4707675E-002  0.4554699E+03  0.7546771E-02  0.1026103E+00
         21   -1    0    0  502  501  0.00000000000E+00  0.00000000000E+00  0.15799684361E+03  0.15799684361E+03  0.00000000000E+00 0. -1.
         21   -1    0    0  501  502 -0.00000000000E+00 -0.00000000000E+00 -0.32825464790E+03  0.32825464790E+03  0.00000000000E+00 0. -1.
      99926    2    1    2    0    0  0.00000000000E+00  0.00000000000E+00 -0.17025780429E+03  0.48625149151E+03  0.45546985967E+03 0.  0.
      99925    2    3    3    0    0 -0.87334614275E+02  0.71550246374E+02 -0.12017569063E+03  0.31046042571E+03  0.26305266907E+03 0.  0.
         25    1    4    4    0    0 -0.31374704488E+02  0.77365683290E+01 -0.86819527035E+02  0.15565784576E+03  0.12509000000E+03 0.  0.
         25    1    3    3    0    0  0.87334614275E+02 -0.71550246374E+02 -0.50082113665E+02  0.17579106580E+03  0.12509000000E+03 0.  0.
         25    1    4    4    0    0 -0.55959909787E+02  0.63813678045E+02 -0.33356163593E+02  0.15480257995E+03  0.12509000000E+03 0.  0.
<mgrwt>
<rscale>  2 0.45546986E+03</rscale>
<asrwt>0</asrwt>
<pdfrwt beam="1">  1       21 0.23234830E-01 0.45546986E+03</pdfrwt>
<pdfrwt beam="2">  1       21 0.48272742E-01 0.45546986E+03</pdfrwt>
<totfact> 0.66001254E+04</totfact>
</mgrwt>
</event>
<event>
 7    0  0.4707675E-002  0.4602907E+03  0.7546771E-02  0.1024697E+00
         21   -1    0    0  502  501  0.00000000000E+00  0.00000000000E+00  0.71190636442E+03  0.71190636442E+03  0.00000000000E+00 0.  1.
         21   -1    0    0  501  502 -0.00000000000E+00 -0.00000000000E+00 -0.74401457186E+02  0.74401457186E+02  0.00000000000E+00 0.  1.
      99926    2    1    2    0    0  0.00000000000E+00 -0.14210854715E-13  0.63750490724E+03  0.78630782161E+03  0.46029065119E+03 0.  0.
      99925    2    3    3    0    0  0.84404013570E+02  0.81389765712E+02  0.41138554511E+03  0.50253712985E+03  0.26373693084E+03 0.  0.
         25    1    4    4    0    0 -0.19899375717E-01  0.37460286612E+02  0.20621683470E+03  0.24408229039E+03  0.12509000000E+03 0.  0.
         25    1    4    4    0    0  0.84423912946E+02  0.43929479099E+02  0.20516871041E+03  0.25845483946E+03  0.12509000000E+03 0.  0.
         25    1    3    3    0    0 -0.84404013570E+02 -0.81389765712E+02  0.22611936213E+03  0.28377069175E+03  0.12509000000E+03 0.  0.
<mgrwt>
<rscale>  2 0.46029065E+03</rscale>
<asrwt>0</asrwt>
<pdfrwt beam="1">  1       21 0.10469211E+00 0.46029065E+03</pdfrwt>
<pdfrwt beam="2">  1       21 0.10941391E-01 0.46029065E+03</pdfrwt>
<totfact> 0.46474171E+04</totfact>
</mgrwt>
</event>
<event>
 7    0  0.4707675E-002  0.4618789E+03  0.7546771E-02  0.1024238E+00
         21   -1    0    0  502  501  0.00000000000E+00  0.00000000000E+00  0.64993737341E+02  0.64993737341E+02  0.00000000000E+00 0.  1.
         21   -1    0    0  501  502 -0.00000000000E+00 -0.00000000000E+00 -0.82058710542E+03  0.82058710542E+03  0.00000000000E+00 0.  1.
      99926    2    1    2    0    0  0.35527136788E-14  0.00000000000E+00 -0.75559336808E+03  0.88558084276E+03  0.46187887068E+03 0.  0.
      99925    2    3    3    0    0 -0.20313833510E+02  0.93602169591E+02 -0.60915015773E+03  0.67048286522E+03  0.26326667071E+03 0.  0.
         25    1    3    3    0    0  0.20313833510E+02 -0.93602169591E+02 -0.14644321034E+03  0.21509797753E+03  0.12509000000E+03 0.  0.
         25    1    4    4    0    0  0.20648884873E+02  0.65135405691E+02 -0.36148862189E+03  0.38857499839E+03  0.12509000000E+03 0.  0.
         25    1    4    4    0    0 -0.40962718382E+02  0.28466763900E+02 -0.24766153584E+03  0.28190786683E+03  0.12509000000E+03 0.  0.
<mgrwt>
<rscale>  2 0.46187887E+03</rscale>
<asrwt>0</asrwt>
<pdfrwt beam="1">  1       21 0.95579022E-02 0.46187887E+03</pdfrwt>
<pdfrwt beam="2">  1       21 0.12067458E+00 0.46187887E+03</pdfrwt>
<totfact> 0.41577559E+04</totfact>
</mgrwt>
</event>
<event>
 7    0  0.4707675E-002  0.4407397E+03  0.7546771E-02  0.1030520E+00
         21   -1    0    0  502  501  0.00000000000E+00  0.00000000000E+00  0.16089366339E+03  0.16089366339E+03  0.00000000000E+00 0. -1.
         21   -1    0    0  501  502 -0.00000000000E+00 -0.00000000000E+00 -0.30183213675E+03  0.30183213675E+03  0.00000000000E+00 0. -1.
      99926    2    1    2    0    0  0.00000000000E+00  0.00000000000E+00 -0.14093847336E+03  0.46272580014E+03  0.44073973367E+03 0.  0.
      99925    2    3    3    0    0 -0.80210915618E+02  0.57303992834E+02 -0.10135426118E+03  0.29861621318E+03  0.26302360718E+03 0.  0.
         25    1    3    3    0    0  0.80210915618E+02 -0.57303992834E+02 -0.39584212176E+02  0.16410958696E+03  0.12509000000E+03 0.  0.
         25    1    4    4    0    0 -0.54696673055E+02 -0.87304581579E+01 -0.56905700284E+02  0.14816785673E+03  0.12509000000E+03 0.  0.
         25    1    4    4    0    0 -0.25514242563E+02  0.66034450991E+02 -0.44448560900E+02  0.15044835645E+03  0.12509000000E+03 0.  0.
<mgrwt>
<rscale>  2 0.44073973E+03</rscale>
<asrwt>0</asrwt>
<pdfrwt beam="1">  1       21 0.23660833E-01 0.44073973E+03</pdfrwt>
<pdfrwt beam="2">  1       21 0.44387079E-01 0.44073973E+03</pdfrwt>
<totfact> 0.76249343E+04</totfact>
</mgrwt>
</event>
<event>
 7    0  0.4707675E-002  0.4540516E+03  0.7546771E-02  0.1026521E+00
         21   -1    0    0  502  501  0.00000000000E+00  0.00000000000E+00  0.31195012367E+03  0.31195012367E+03  0.00000000000E+00 0. -1.
         21   -1    0    0  501  502 -0.00000000000E+00 -0.00000000000E+00 -0.16522100802E+03  0.16522100802E+03  0.00000000000E+00 0. -1.
      99926    2    1    2    0    0  0.00000000000E+00  0.00000000000E+00  0.14672911565E+03  0.47717113169E+03  0.45405160008E+03 0.  0.
      99925    2    3    3    0    0 -0.66783026097E+02 -0.83660896483E+02  0.12814130613E+03  0.31148427965E+03  0.26295083943E+03 0.  0.
         25    1    4    4    0    0 -0.14354462609E+02 -0.59768708904E+02  0.30534896563E+02  0.14268229452E+03  0.12509000000E+03 0.  0.
         25    1    4    4    0    0 -0.52428563489E+02 -0.23892187579E+02  0.97606409565E+02  0.16880198513E+03  0.12509000000E+03 0.  0.
         25    1    3    3    0    0  0.66783026097E+02  0.83660896483E+02  0.18587809521E+02  0.16568685204E+03  0.12509000000E+03 0.  0.
<mgrwt>
<rscale>  2 0.45405160E+03</rscale>
<asrwt>0</asrwt>
<pdfrwt beam="1">  1       21 0.45875018E-01 0.45405160E+03</pdfrwt>
<pdfrwt beam="2">  1       21 0.24297207E-01 0.45405160E+03</pdfrwt>
<totfact> 0.67412603E+04</totfact>
</mgrwt>
</event>
<event>
 7    0  0.4707675E-002  0.4497805E+03  0.7546771E-02  0.1027788E+00
         21   -1    0    0  502  501  0.00000000000E+00  0.00000000000E+00  0.43321218394E+03  0.43321218394E+03  0.00000000000E+00 0.  1.
         21   -1    0    0  501  502 -0.00000000000E+00 -0.00000000000E+00 -0.11674563188E+03  0.11674563188E+03  0.00000000000E+00 0.  1.
      99926    2    1    2    0    0  0.00000000000E+00  0.00000000000E+00  0.31646655205E+03  0.54995781582E+03  0.44978052494E+03 0.  0.
      99925    2    3    3    0    0 -0.14171142751E+02  0.33167697830E+02  0.75434417491E+02  0.27601454531E+03  0.26304516801E+03 0.  0.
         25    1    4    4    0    0 -0.29863719052E+01  0.13647367979E+02 -0.43636034908E+01  0.12594331346E+03  0.12509000000E+03 0.  0.
         25    1    4    4    0    0 -0.11184770846E+02  0.19520329851E+02  0.79798020982E+02  0.15007123185E+03  0.12509000000E+03 0.  0.
         25    1    3    3    0    0  0.14171142751E+02 -0.33167697830E+02  0.24103213456E+03  0.27394327051E+03  0.12509000000E+03 0.  0.
<mgrwt>
<rscale>  2 0.44978052E+03</rscale>
<asrwt>0</asrwt>
<pdfrwt beam="1">  1       21 0.63707673E-01 0.44978052E+03</pdfrwt>
<pdfrwt beam="2">  1       21 0.17168475E-01 0.44978052E+03</pdfrwt>
<totfact> 0.64491543E+04</totfact>
</mgrwt>
</event>
<event>
 7    0  0.4707675E-002  0.4539419E+03  0.7546771E-02  0.1026553E+00
         21   -1    0    0  502  501  0.00000000000E+00  0.00000000000E+00  0.14205919307E+03  0.14205919307E+03  0.00000000000E+00 0. -1.
         21   -1    0    0  501  502 -0.00000000000E+00 -0.00000000000E+00 -0.36263621338E+03  0.36263621338E+03  0.00000000000E+00 0. -1.
      99926    2    1    2    0    0  0.00000000000E+00 -0.35527136788E-14 -0.22057702031E+03  0.50469540644E+03  0.45394188108E+03 0.  0.
      99925    2    3    3    0    0 -0.85158896866E+02  0.20871203146E+02 -0.21695434427E+03  0.35189397740E+03  0.26281655008E+03 0.  0.
         25    1    4    4    0    0 -0.58587511063E+02  0.18952632879E+02 -0.66638659201E+02  0.15453128404E+03  0.12509000000E+03 0.  0.
         25    1    3    3    0    0  0.85158896866E+02 -0.20871203146E+02 -0.36226760464E+01  0.15280142904E+03  0.12509000000E+03 0.  0.
         25    1    4    4    0    0 -0.26571385803E+02  0.19185702669E+01 -0.15031568507E+03  0.19736269336E+03  0.12509000000E+03 0.  0.
<mgrwt>
<rscale>  2 0.45394188E+03</rscale>
<asrwt>0</asrwt>
<pdfrwt beam="1">  1       21 0.20891058E-01 0.45394188E+03</pdfrwt>
<pdfrwt beam="2">  1       21 0.53328854E-01 0.45394188E+03</pdfrwt>
<totfact> 0.65490336E+04</totfact>
</mgrwt>
</event>
<event>
 7    0  0.4707675E-002  0.4362555E+03  0.7546771E-02  0.1031902E+00
         21   -1    0    0  502  501  0.00000000000E+00  0.00000000000E+00  0.18146068458E+03  0.18146068458E+03  0.00000000000E+00 0. -1.
         21   -1    0    0  501  502 -0.00000000000E+00 -0.00000000000E+00 -0.26220402591E+03  0.26220402591E+03  0.00000000000E+00 0. -1.
      99926    2    1    2    0    0  0.18110513089E-14 -0.14210854715E-13 -0.80743341325E+02  0.44366471049E+03  0.43625553081E+03 0.  0.
      99925    2    3    3    0    0 -0.29841008912E-01 -0.67763529937E+02 -0.11879548218E+03  0.29639838575E+03  0.26295957790E+03 0.  0.
         25    1    3    3    0    0  0.29841008912E-01  0.67763529937E+02  0.38052140852E+02  0.14726632474E+03  0.12509000000E+03 0.  0.
         25    1    4    4    0    0 -0.16825885210E+02 -0.70255392801E+02 -0.75135322639E+02  0.16282430850E+03  0.12509000000E+03 0.  0.
         25    1    4    4    0    0  0.16796044202E+02  0.24918628634E+01 -0.43660159538E+02  0.13357407725E+03  0.12509000000E+03 0.  0.
<mgrwt>
<rscale>  2 0.43625553E+03</rscale>
<asrwt>0</asrwt>
<pdfrwt beam="1">  1       21 0.26685395E-01 0.43625553E+03</pdfrwt>
<pdfrwt beam="2">  1       21 0.38559415E-01 0.43625553E+03</pdfrwt>
<totfact> 0.80804508E+04</totfact>
</mgrwt>
</event>
<event>
 7    0  0.4707675E-002  0.4485885E+03  0.7546771E-02  0.1028144E+00
         21   -1    0    0  502  501  0.00000000000E+00  0.00000000000E+00  0.11723653942E+04  0.11723653942E+04  0.00000000000E+00 0.  1.
         21   -1    0    0  501  502 -0.00000000000E+00 -0.00000000000E+00 -0.42911463532E+02  0.42911463532E+02  0.00000000000E+00 0.  1.
      99926    2    1    2    0    0  0.00000000000E+00  0.00000000000E+00  0.11294539307E+04  0.12152768577E+04  0.44858851907E+03 0.  0.
      99925    2    3    3    0    0  0.51043749573E+02 -0.23085044199E+02  0.96043012496E+03  0.99766495863E+03  0.26414193364E+03 0.  0.
         25    1    3    3    0    0 -0.51043749573E+02  0.23085044199E+02  0.16902380571E+03  0.21761189911E+03  0.12509000000E+03 0.  0.
         25    1    4    4    0    0 -0.33331227482E+01 -0.24695131004E+02  0.35976151138E+03  0.38170251816E+03  0.12509000000E+03 0.  0.
         25    1    4    4    0    0  0.54376872321E+02  0.16100868055E+01  0.60066861358E+03  0.61596244046E+03  0.12509000000E+03 0.  0.
<mgrwt>
<rscale>  2 0.44858852E+03</rscale>
<asrwt>0</asrwt>
<pdfrwt beam="1">  1       21 0.17240666E+00 0.44858852E+03</pdfrwt>
<pdfrwt beam="2">  1       21 0.63105101E-02 0.44858852E+03</pdfrwt>
<totfact> 0.33307956E+04</totfact>
</mgrwt>
</event>
<event>
 7    0  0.4707675E-002  0.4484323E+03  0.7546771E-02  0.1028191E+00
         21   -1    0    0  502  501  0.00000000000E+00  0.00000000000E+00  0.17430255259E+03  0.17430255259E+03  0.00000000000E+00 0. -1.
         21   -1    0    0  501  502 -0.00000000000E+00 -0.00000000000E+00 -0.28842305524E+03  0.28842305524E+03  0.00000000000E+00 0. -1.
      99926    2    1    2    0    0  0.00000000000E+00 -0.14210854715E-13 -0.11412050265E+03  0.46272560783E+03  0.44843226804E+03 0.  0.
      99925    2    3    3    0    0 -0.87067684170E+01  0.97500737176E+02 -0.11641982266E+03  0.30387033867E+03  0.26306160125E+03 0.  0.
         25    1    4    4    0    0  0.22042302995E+02  0.69450409635E+02 -0.86659169362E+02  0.16872030777E+03  0.12509000000E+03 0.  0.
         25    1    3    3    0    0  0.87067684170E+01 -0.97500737176E+02  0.22993200157E+01  0.15885526916E+03  0.12509000000E+03 0.  0.
         25    1    4    4    0    0 -0.30749071412E+02  0.28050327541E+02 -0.29760653301E+02  0.13515003090E+03  0.12509000000E+03 0.  0.
<mgrwt>
<rscale>  2 0.44843227E+03</rscale>
<asrwt>0</asrwt>
<pdfrwt beam="1">  1       21 0.25632729E-01 0.44843227E+03</pdfrwt>
<pdfrwt beam="2">  1       21 0.42415155E-01 0.44843227E+03</pdfrwt>
<totfact> 0.71640892E+04</totfact>
</mgrwt>
</event>
<event>
 7    0  0.4707675E-002  0.4594313E+03  0.7546771E-02  0.1024946E+00
         21   -1    0    0  502  501  0.00000000000E+00  0.00000000000E+00  0.13833423974E+04  0.13833423974E+04  0.00000000000E+00 0. -1.
         21   -1    0    0  501  502 -0.00000000000E+00 -0.00000000000E+00 -0.38146219972E+02  0.38146219972E+02  0.00000000000E+00 0. -1.
      99926    2    1    2    0    0  0.00000000000E+00 -0.71054273576E-14  0.13451961774E+04  0.14214886173E+04  0.45943131538E+03 0.  0.
      99925    2    3    3    0    0  0.67395013304E+02  0.33660489721E+02  0.11212516630E+04  0.11541428300E+04  0.26299289694E+03 0.  0.
         25    1    3    3    0    0 -0.67395013304E+02 -0.33660489721E+02  0.22394451437E+03  0.26734578733E+03  0.12509000000E+03 0.  0.
         25    1    4    4    0    0  0.53432904848E+02  0.50060423985E+02  0.66131881826E+03  0.67701640221E+03  0.12509000000E+03 0.  0.
         25    1    4    4    0    0  0.13962108456E+02 -0.16399934264E+02  0.45993284476E+03  0.47712642780E+03  0.12509000000E+03 0.  0.
<mgrwt>
<rscale>  2 0.45943132E+03</rscale>
<asrwt>0</asrwt>
<pdfrwt beam="1">  1       21 0.20343267E+00 0.45943132E+03</pdfrwt>
<pdfrwt beam="2">  1       21 0.56097391E-02 0.45943132E+03</pdfrwt>
<totfact> 0.24896608E+04</totfact>
</mgrwt>
</event>
<event>
 7    0  0.4707675E-002  0.4518639E+03  0.7546771E-02  0.1027168E+00
         21   -1    0    0  502  501  0.00000000000E+00  0.00000000000E+00  0.53110866209E+02  0.53110866209E+02  0.00000000000E+00 0. -1.
         21   -1    0    0  501  502 -0.00000000000E+00 -0.00000000000E+00 -0.96110747597E+03  0.96110747597E+03  0.00000000000E+00 0. -1.
      99926    2    1    2    0    0  0.00000000000E+00  0.00000000000E+00 -0.90799660976E+03  0.10142183422E+04  0.45186392009E+03 0.  0.
      99925    2    3    3    0    0  0.21524675911E+02  0.23186586470E+02 -0.80993795005E+03  0.85215681587E+03  0.26300347230E+03 0.  0.
         25    1    4    4    0    0  0.47761626175E+02  0.25163046281E+02 -0.45148655140E+03  0.47159512936E+03  0.12509000000E+03 0.  0.
         25    1    4    4    0    0 -0.26236950265E+02 -0.19764598110E+01 -0.35845139864E+03  0.38056168651E+03  0.12509000000E+03 0.  0.
         25    1    3    3    0    0 -0.21524675911E+02 -0.23186586470E+02 -0.98058659714E+02  0.16206152631E+03  0.12509000000E+03 0.  0.
<mgrwt>
<rscale>  2 0.45186392E+03</rscale>
<asrwt>0</asrwt>
<pdfrwt beam="1">  1       21 0.78104216E-02 0.45186392E+03</pdfrwt>
<pdfrwt beam="2">  1       21 0.14133933E+00 0.45186392E+03</pdfrwt>
<totfact> 0.39578598E+04</totfact>
</mgrwt>
</event>
<event>
 7    0  0.4707675E-002  0.4584321E+03  0.7546771E-02  0.1025237E+00
         21   -1    0    0  502  501  0.00000000000E+00  0.00000000000E+00  0.64752987956E+03  0.64752987956E+03  0.00000000000E+00 0.  1.
         21   -1    0    0  501  502 -0.00000000000E+00 -0.00000000000E+00 -0.81139112104E+02  0.81139112104E+02  0.00000000000E+00 0.  1.
      99926    2    1    2    0    0 -0.35527136788E-14  0.00000000000E+00  0.56639076746E+03  0.72866899166E+03  0.45843210834E+03 0.  0.
      99925    2    3    3    0    0  0.31475416893E+02  0.85033949298E+02  0.23926701816E+03  0.36689706094E+03  0.26295108471E+03 0.  0.
         25    1    3    3    0    0 -0.31475416893E+02 -0.85033949298E+02  0.32712374930E+03  0.36177193072E+03  0.12509000000E+03 0.  0.
         25    1    4    4    0    0  0.19062998895E+02  0.76021124456E+02  0.16154671256E+03  0.21883203086E+03  0.12509000000E+03 0.  0.
         25    1    4    4    0    0  0.12412417998E+02  0.90128248423E+01  0.77720305594E+02  0.14806503008E+03  0.12509000000E+03 0.  0.
<mgrwt>
<rscale>  2 0.45843211E+03</rscale>
<asrwt>0</asrwt>
<pdfrwt beam="1">  1       21 0.95224979E-01 0.45843211E+03</pdfrwt>
<pdfrwt beam="2">  1       21 0.11932223E-01 0.45843211E+03</pdfrwt>
<totfact> 0.50010453E+04</totfact>
</mgrwt>
</event>
<event>
 6    0  0.4707675E-002  0.4532233E+03  0.7546771E-02  0.1026765E+00
         21   -1    0    0  502  501  0.00000000000E+00  0.00000000000E+00  0.70963302594E+02  0.70963302594E+02  0.00000000000E+00 0.  1.
         21   -1    0    0  501  502 -0.00000000000E+00 -0.00000000000E+00 -0.72365340041E+03  0.72365340041E+03  0.00000000000E+00 0.  1.
      99926    2    1    2    0    0  0.14210854715E-13  0.00000000000E+00 -0.65269009782E+03  0.79461670300E+03  0.45322327931E+03 0.  0.
         25    1    3    3    0    0 -0.42655500537E+02 -0.13805887259E+02 -0.25379567879E+03  0.28647835681E+03  0.12509000000E+03 0.  0.
         25    1    3    3    0    0 -0.69238271754E+02  0.28284225842E+02 -0.16968188704E+03  0.22368143999E+03  0.12509000000E+03 0.  0.
         25    1    3    3    0    0  0.11189377229E+03 -0.14478338583E+02 -0.22921253199E+03  0.28445690620E+03  0.12509000000E+03 0.  0.
<mgrwt>
<rscale>  2 0.45322328E+03</rscale>
<asrwt>0</asrwt>
<pdfrwt beam="1">  1       21 0.10435779E-01 0.45322328E+03</pdfrwt>
<pdfrwt beam="2">  1       21 0.10641962E+00 0.45322328E+03</pdfrwt>
<totfact> 0.48701855E+04</totfact>
</mgrwt>
</event>
<event>
 7    0  0.4707675E-002  0.4519068E+03  0.7546771E-02  0.1027155E+00
         21   -1    0    0  502  501  0.00000000000E+00  0.00000000000E+00  0.60129770152E+03  0.60129770152E+03  0.00000000000E+00 0.  1.
         21   -1    0    0  501  502 -0.00000000000E+00 -0.00000000000E+00 -0.84907916689E+02  0.84907916689E+02  0.00000000000E+00 0.  1.
      99926    2    1    2    0    0  0.00000000000E+00  0.00000000000E+00  0.51638978483E+03  0.68620561821E+03  0.45190678307E+03 0.  0.
      99925    2    3    3    0    0 -0.10671779998E+03  0.19098730898E+02  0.29528520337E+03  0.41000244228E+03  0.26297376483E+03 0.  0.
         25    1    4    4    0    0 -0.20109874332E+02  0.34348706264E+02  0.14526312988E+03  0.19578847175E+03  0.12509000000E+03 0.  0.
         25    1    4    4    0    0 -0.86607925645E+02 -0.15249975366E+02  0.15002207349E+03  0.21421397053E+03  0.12509000000E+03 0.  0.
         25    1    3    3    0    0  0.10671779998E+03 -0.19098730898E+02  0.22110458146E+03  0.27620317593E+03  0.12509000000E+03 0.  0.
<mgrwt>
<rscale>  2 0.45190678E+03</rscale>
<asrwt>0</asrwt>
<pdfrwt beam="1">  1       21 0.88426131E-01 0.45190678E+03</pdfrwt>
<pdfrwt beam="2">  1       21 0.12486459E-01 0.45190678E+03</pdfrwt>
<totfact> 0.54985336E+04</totfact>
</mgrwt>
</event>
<event>
 7    0  0.4707675E-002  0.4559580E+03  0.7546771E-02  0.1025960E+00
         21   -1    0    0  502  501  0.00000000000E+00  0.00000000000E+00  0.13695729189E+03  0.13695729189E+03  0.00000000000E+00 0. -1.
         21   -1    0    0  501  502 -0.00000000000E+00 -0.00000000000E+00 -0.37949358105E+03  0.37949358105E+03  0.00000000000E+00 0. -1.
      99926    2    1    2    0    0  0.00000000000E+00  0.00000000000E+00 -0.24253628916E+03  0.51645087294E+03  0.45595795047E+03 0.  0.
      99925    2    3    3    0    0 -0.10110367301E+03 -0.48642513465E+02 -0.17879740511E+03  0.33673387248E+03  0.26236070970E+03 0.  0.
         25    1    4    4    0    0 -0.63478014586E+02 -0.47600632348E+02 -0.58867052896E+02  0.15939923636E+03  0.12509000000E+03 0.  0.
         25    1    4    4    0    0 -0.37625658420E+02 -0.10418811163E+01 -0.11993035221E+03  0.17733463612E+03  0.12509000000E+03 0.  0.
         25    1    3    3    0    0  0.10110367301E+03  0.48642513465E+02 -0.63738884058E+02  0.17971700045E+03  0.12509000000E+03 0.  0.
<mgrwt>
<rscale>  2 0.45595795E+03</rscale>
<asrwt>0</asrwt>
<pdfrwt beam="1">  1       21 0.20140778E-01 0.45595795E+03</pdfrwt>
<pdfrwt beam="2">  1       21 0.55807880E-01 0.45595795E+03</pdfrwt>
<totfact> 0.63644570E+04</totfact>
</mgrwt>
</event>
<event>
 7    0  0.4707675E-002  0.4618186E+03  0.7546771E-02  0.1024255E+00
         21   -1    0    0  502  501  0.00000000000E+00  0.00000000000E+00  0.18813011517E+03  0.18813011517E+03  0.00000000000E+00 0.  1.
         21   -1    0    0  501  502 -0.00000000000E+00 -0.00000000000E+00 -0.28341610493E+03  0.28341610493E+03  0.00000000000E+00 0.  1.
      99926    2    1    2    0    0  0.14210854715E-13  0.00000000000E+00 -0.95285989766E+02  0.47154622010E+03  0.46181859842E+03 0.  0.
      99925    2    3    3    0    0 -0.10933719355E+03 -0.12414282311E+02 -0.10655761638E+03  0.30456330491E+03  0.26324046952E+03 0.  0.
         25    1    4    4    0    0 -0.19596624599E+02  0.83823062457E+00 -0.73978089012E+02  0.14664581849E+03  0.12509000000E+03 0.  0.
         25    1    4    4    0    0 -0.89740568950E+02 -0.13252512935E+02 -0.32579527364E+02  0.15791748642E+03  0.12509000000E+03 0.  0.
         25    1    3    3    0    0  0.10933719355E+03  0.12414282311E+02  0.11271626610E+02  0.16698291519E+03  0.12509000000E+03 0.  0.
<mgrwt>
<rscale>  2 0.46181860E+03</rscale>
<asrwt>0</asrwt>
<pdfrwt beam="1">  1       21 0.27666194E-01 0.46181860E+03</pdfrwt>
<pdfrwt beam="2">  1       21 0.41678838E-01 0.46181860E+03</pdfrwt>
<totfact> 0.63798343E+04</totfact>
</mgrwt>
</event>
<event>
 7    0  0.4707675E-002  0.4523408E+03  0.7546771E-02  0.1027026E+00
         21   -1    0    0  502  501  0.00000000000E+00  0.00000000000E+00  0.37458695708E+03  0.37458695708E+03  0.00000000000E+00 0. -1.
         21   -1    0    0  501  502 -0.00000000000E+00 -0.00000000000E+00 -0.13655852648E+03  0.13655852648E+03  0.00000000000E+00 0. -1.
      99926    2    1    2    0    0  0.00000000000E+00  0.14210854715E-13  0.23802843060E+03  0.51114548355E+03  0.45234076931E+03 0.  0.
      99925    2    3    3    0    0 -0.63811189805E+02  0.70201353616E+02  0.84793105154E+02  0.29176300691E+03  0.26255605787E+03 0.  0.
         25    1    4    4    0    0 -0.49875492090E+02  0.13273805464E+02  0.71333093040E+02  0.15296952927E+03  0.12509000000E+03 0.  0.
         25    1    3    3    0    0  0.63811189805E+02 -0.70201353616E+02  0.15323532544E+03  0.21938247664E+03  0.12509000000E+03 0.  0.
         25    1    4    4    0    0 -0.13935697715E+02  0.56927548152E+02  0.13460012115E+02  0.13879347764E+03  0.12509000000E+03 0.  0.
<mgrwt>
<rscale>  2 0.45234077E+03</rscale>
<asrwt>0</asrwt>
<pdfrwt beam="1">  1       21 0.55086317E-01 0.45234077E+03</pdfrwt>
<pdfrwt beam="2">  1       21 0.20082136E-01 0.45234077E+03</pdfrwt>
<totfact> 0.65873717E+04</totfact>
</mgrwt>
</event>
<event>
 7    0  0.4707675E-002  0.4717573E+03  0.7546771E-02  0.1021425E+00
         21   -1    0    0  502  501  0.00000000000E+00  0.00000000000E+00  0.17897602976E+04  0.17897602976E+04  0.00000000000E+00 0. -1.
         21   -1    0    0  501  502 -0.00000000000E+00 -0.00000000000E+00 -0.31087259537E+02  0.31087259537E+02  0.00000000000E+00 0. -1.
      99926    2    1    2    0    0 -0.35527136788E-14  0.00000000000E+00  0.17586730381E+04  0.18208475571E+04  0.47175732270E+03 0.  0.
      99925    2    3    3    0    0  0.26969535834E+02 -0.42380977134E+02  0.63714899799E+03  0.69125153039E+03  0.26333691260E+03 0.  0.
         25    1    4    4    0    0  0.45472773279E+02 -0.42792062078E+02  0.37455057200E+03  0.39979316249E+03  0.12509000000E+03 0.  0.
         25    1    3    3    0    0 -0.26969535834E+02  0.42380977134E+02  0.11215240401E+04  0.11295960268E+04  0.12509000000E+03 0.  0.
         25    1    4    4    0    0 -0.18503237445E+02  0.41108494388E+00  0.26259842599E+03  0.29145836790E+03  0.12509000000E+03 0.  0.
<mgrwt>
<rscale>  2 0.47175732E+03</rscale>
<asrwt>0</asrwt>
<pdfrwt beam="1">  1       21 0.26319997E+00 0.47175732E+03</pdfrwt>
<pdfrwt beam="2">  1       21 0.45716570E-02 0.47175732E+03</pdfrwt>
<totfact> 0.14836289E+04</totfact>
</mgrwt>
</event>
<event>
 7    0  0.4707675E-002  0.4500415E+03  0.7546771E-02  0.1027710E+00
         21   -1    0    0  502  501  0.00000000000E+00  0.00000000000E+00  0.15876708340E+03  0.15876708340E+03  0.00000000000E+00 0.  1.
         21   -1    0    0  501  502 -0.00000000000E+00 -0.00000000000E+00 -0.31892209617E+03  0.31892209617E+03  0.00000000000E+00 0.  1.
      99926    2    1    2    0    0  0.00000000000E+00 -0.71054273576E-14 -0.16015501278E+03  0.47768917957E+03  0.45004146938E+03 0.  0.
      99925    2    3    3    0    0 -0.90219095698E+02 -0.51245890227E+02 -0.67506761746E+02  0.29061477455E+03  0.26293375175E+03 0.  0.
         25    1    4    4    0    0 -0.37262010257E+02 -0.17186648558E+02 -0.72867605612E+02  0.15046938009E+03  0.12509000000E+03 0.  0.
         25    1    3    3    0    0  0.90219095698E+02  0.51245890227E+02 -0.92648251033E+02  0.18707440502E+03  0.12509000000E+03 0.  0.
         25    1    4    4    0    0 -0.52957085441E+02 -0.34059241669E+02  0.53608438665E+01  0.14014539446E+03  0.12509000000E+03 0.  0.
<mgrwt>
<rscale>  2 0.45004147E+03</rscale>
<asrwt>0</asrwt>
<pdfrwt beam="1">  1       21 0.23348101E-01 0.45004147E+03</pdfrwt>
<pdfrwt beam="2">  1       21 0.46900308E-01 0.45004147E+03</pdfrwt>
<totfact> 0.69566690E+04</totfact>
</mgrwt>
</event>
<event>
 7    0  0.4707675E-002  0.4596585E+03  0.7546771E-02  0.1024880E+00
         21   -1    0    0  502  501  0.00000000000E+00  0.00000000000E+00  0.42012617193E+03  0.42012617193E+03  0.00000000000E+00 0.  1.
         21   -1    0    0  501  502 -0.00000000000E+00 -0.00000000000E+00 -0.12572766363E+03  0.12572766363E+03  0.00000000000E+00 0.  1.
      99926    2    1    2    0    0  0.35527136788E-14  0.14210854715E-13  0.29439850829E+03  0.54585383556E+03  0.45965849074E+03 0.  0.
      99925    2    3    3    0    0 -0.20465100405E+02 -0.11312643448E+03  0.21242119428E+03  0.35721609113E+03  0.26318085316E+03 0.  0.
         25    1    4    4    0    0 -0.31917388394E+02 -0.70887310059E+02  0.15173066147E+03  0.21145550865E+03  0.12509000000E+03 0.  0.
         25    1    4    4    0    0  0.11452287989E+02 -0.42239124418E+02  0.60690532810E+02  0.14576058248E+03  0.12509000000E+03 0.  0.
         25    1    3    3    0    0  0.20465100405E+02  0.11312643448E+03  0.81977314017E+02  0.18863774443E+03  0.12509000000E+03 0.  0.
<mgrwt>
<rscale>  2 0.45965849E+03</rscale>
<asrwt>0</asrwt>
<pdfrwt beam="1">  1       21 0.61783260E-01 0.45965849E+03</pdfrwt>
<pdfrwt beam="2">  1       21 0.18489362E-01 0.45965849E+03</pdfrwt>
<totfact> 0.59902483E+04</totfact>
</mgrwt>
</event>
<event>
 7    0  0.4707675E-002  0.4516271E+03  0.7546771E-02  0.1027238E+00
         21   -1    0    0  502  501  0.00000000000E+00  0.00000000000E+00  0.91916360174E+03  0.91916360174E+03  0.00000000000E+00 0. -1.
         21   -1    0    0  501  502 -0.00000000000E+00 -0.00000000000E+00 -0.55476259669E+02  0.55476259669E+02  0.00000000000E+00 0. -1.
      99926    2    1    2    0    0  0.00000000000E+00  0.00000000000E+00  0.86368734207E+03  0.97463986141E+03  0.45162709683E+03 0.  0.
      99925    2    3    3    0    0  0.48164427491E+02  0.92551158248E+02  0.62016186218E+03  0.68165915142E+03  0.26300747983E+03 0.  0.
         25    1    4    4    0    0  0.52889302677E+02  0.21720985415E+02  0.26726998695E+03  0.30058249046E+03  0.12509000000E+03 0.  0.
         25    1    3    3    0    0 -0.48164427491E+02 -0.92551158248E+02  0.24352547989E+03  0.29298070999E+03  0.12509000000E+03 0.  0.
         25    1    4    4    0    0 -0.47248751858E+01  0.70830172833E+02  0.35289187523E+03  0.38107666096E+03  0.12509000000E+03 0.  0.
<mgrwt>
<rscale>  2 0.45162710E+03</rscale>
<asrwt>0</asrwt>
<pdfrwt beam="1">  1       21 0.13517111E+00 0.45162710E+03</pdfrwt>
<pdfrwt beam="2">  1       21 0.81582740E-02 0.45162710E+03</pdfrwt>
<totfact> 0.41235399E+04</totfact>
</mgrwt>
</event>
<event>
 7    0  0.4707675E-002  0.4600710E+03  0.7546771E-02  0.1024761E+00
         21   -1    0    0  502  501  0.00000000000E+00  0.00000000000E+00  0.15879619445E+03  0.15879619445E+03  0.00000000000E+00 0.  1.
         21   -1    0    0  501  502 -0.00000000000E+00 -0.00000000000E+00 -0.33323429351E+03  0.33323429351E+03  0.00000000000E+00 0.  1.
      99926    2    1    2    0    0  0.00000000000E+00  0.00000000000E+00 -0.17443809907E+03  0.49203048796E+03  0.46007102786E+03 0.  0.
      99925    2    3    3    0    0 -0.11147043992E+03  0.37847279828E+02 -0.10208622016E+03  0.30564277901E+03  0.26294074703E+03 0.  0.
         25    1    3    3    0    0  0.11147043992E+03 -0.37847279828E+02 -0.72351878908E+02  0.18638770895E+03  0.12509000000E+03 0.  0.
         25    1    4    4    0    0 -0.84693005487E+02  0.14328416829E+02 -0.86444090531E+02  0.17463761793E+03  0.12509000000E+03 0.  0.
         25    1    4    4    0    0 -0.26777434430E+02  0.23518862999E+02 -0.15642129628E+02  0.13100516108E+03  0.12509000000E+03 0.  0.
<mgrwt>
<rscale>  2 0.46007103E+03</rscale>
<asrwt>0</asrwt>
<pdfrwt beam="1">  1       21 0.23352382E-01 0.46007103E+03</pdfrwt>
<pdfrwt beam="2">  1       21 0.49005042E-01 0.46007103E+03</pdfrwt>
<totfact> 0.63249407E+04</totfact>
</mgrwt>
</event>
<event>
 7    0  0.4707675E-002  0.4558936E+03  0.7546771E-02  0.1025979E+00
         21   -1    0    0  502  501  0.00000000000E+00  0.00000000000E+00  0.10986351235E+04  0.10986351235E+04  0.00000000000E+00 0. -1.
         21   -1    0    0  501  502 -0.00000000000E+00 -0.00000000000E+00 -0.47294806744E+02  0.47294806744E+02  0.00000000000E+00 0. -1.
      99926    2    1    2    0    0  0.00000000000E+00  0.00000000000E+00  0.10513403167E+04  0.11459299302E+04  0.45589356585E+03 0.  0.
      99925    2    3    3    0    0  0.54256456655E+02  0.55437233217E+02  0.87103244383E+03  0.91317364772E+03  0.26300483409E+03 0.  0.
         25    1    4    4    0    0  0.38217969910E+02  0.29641251415E+01  0.52746350820E+03  0.54344701660E+03  0.12509000000E+03 0.  0.
         25    1    4    4    0    0  0.16038486745E+02  0.52473108076E+02  0.34356893563E+03  0.36972663112E+03  0.12509000000E+03 0.  0.
         25    1    3    3    0    0 -0.54256456655E+02 -0.55437233217E+02  0.18030787289E+03  0.23275628250E+03  0.12509000000E+03 0.  0.
<mgrwt>
<rscale>  2 0.45589357E+03</rscale>
<asrwt>0</asrwt>
<pdfrwt beam="1">  1       21 0.16156397E+00 0.45589357E+03</pdfrwt>
<pdfrwt beam="2">  1       21 0.69551193E-02 0.45589357E+03</pdfrwt>
<totfact> 0.33683353E+04</totfact>
</mgrwt>
</event>
<event>
 7    0  0.4707675E-002  0.4494156E+03  0.7546771E-02  0.1027896E+00
         21   -1    0    0  502  501  0.00000000000E+00  0.00000000000E+00  0.19282430331E+04  0.19282430331E+04  0.00000000000E+00 0. -1.
         21   -1    0    0  501  502 -0.00000000000E+00 -0.00000000000E+00 -0.26186318358E+02  0.26186318358E+02  0.00000000000E+00 0. -1.
      99926    2    1    2    0    0  0.00000000000E+00  0.00000000000E+00  0.19020567147E+04  0.19544293514E+04  0.44941555797E+03 0.  0.
      99925    2    3    3    0    0  0.50063479569E+02  0.93672198974E+02  0.11209331417E+04  0.11562549487E+04  0.26297065474E+03 0.  0.
         25    1    3    3    0    0 -0.50063479569E+02 -0.93672198974E+02  0.78112357299E+03  0.79817440277E+03  0.12509000000E+03 0.  0.
         25    1    4    4    0    0  0.72538631950E+01  0.12010304056E+02  0.57625063718E+03  0.58983825824E+03  0.12509000000E+03 0.  0.
         25    1    4    4    0    0  0.42809616374E+02  0.81661894919E+02  0.54468250455E+03  0.56641669043E+03  0.12509000000E+03 0.  0.
<mgrwt>
<rscale>  2 0.44941556E+03</rscale>
<asrwt>0</asrwt>
<pdfrwt beam="1">  1       21 0.28356505E+00 0.44941556E+03</pdfrwt>
<pdfrwt beam="2">  1       21 0.38509305E-02 0.44941556E+03</pdfrwt>
<totfact> 0.15112934E+04</totfact>
</mgrwt>
</event>
<event>
 7    0  0.4707675E-002  0.4619097E+03  0.7546771E-02  0.1024229E+00
         21   -1    0    0  502  501  0.00000000000E+00  0.00000000000E+00  0.26163794003E+04  0.26163794003E+04  0.00000000000E+00 0. -1.
         21   -1    0    0  501  502 -0.00000000000E+00 -0.00000000000E+00 -0.20387005566E+02  0.20387005566E+02  0.00000000000E+00 0. -1.
      99926    2    1    2    0    0  0.14210854715E-13  0.00000000000E+00  0.25959923947E+04  0.26367664059E+04  0.46190969420E+03 0.  0.
      99925    2    3    3    0    0 -0.82437065919E+02  0.73812491501E+01  0.11326167603E+04  0.11657238816E+04  0.26313701701E+03 0.  0.
         25    1    4    4    0    0 -0.79110691495E+02  0.53191639669E+01  0.53352611223E+03  0.55370065518E+03  0.12509000000E+03 0.  0.
         25    1    3    3    0    0  0.82437065919E+02 -0.73812491501E+01  0.14633756344E+04  0.14710425243E+04  0.12509000000E+03 0.  0.
         25    1    4    4    0    0 -0.33263744244E+01  0.20620851832E+01  0.59909064808E+03  0.61202322642E+03  0.12509000000E+03 0.  0.
<mgrwt>
<rscale>  2 0.46190969E+03</rscale>
<asrwt>0</asrwt>
<pdfrwt beam="1">  1       21 0.38476145E+00 0.46190969E+03</pdfrwt>
<pdfrwt beam="2">  1       21 0.29980908E-02 0.46190969E+03</pdfrwt>
<totfact> 0.55282373E+03</totfact>
</mgrwt>
</event>
<event>
 7    0  0.4707675E-002  0.4637700E+03  0.7546771E-02  0.1023693E+00
         21   -1    0    0  502  501  0.00000000000E+00  0.00000000000E+00  0.52562454470E+02  0.52562454470E+02  0.00000000000E+00 0. -1.
         21   -1    0    0  501  502 -0.00000000000E+00 -0.00000000000E+00 -0.10229860684E+04  0.10229860684E+04  0.00000000000E+00 0. -1.
      99926    2    1    2    0    0  0.00000000000E+00  0.00000000000E+00 -0.97042361393E+03  0.10755485229E+04  0.46377002337E+03 0.  0.
      99925    2    3    3    0    0 -0.10099329252E+03 -0.42161932864E+02 -0.72710806987E+03  0.78088390708E+03  0.26289970968E+03 0.  0.
         25    1    3    3    0    0  0.10099329252E+03  0.42161932864E+02 -0.24331554405E+03  0.29466461578E+03  0.12509000000E+03 0.  0.
         25    1    4    4    0    0 -0.61158946600E+02  0.53612394487E+00 -0.27614231325E+03  0.30926168441E+03  0.12509000000E+03 0.  0.
         25    1    4    4    0    0 -0.39834345919E+02 -0.42698056809E+02 -0.45096575662E+03  0.47162222267E+03  0.12509000000E+03 0.  0.
<mgrwt>
<rscale>  2 0.46377002E+03</rscale>
<asrwt>0</asrwt>
<pdfrwt beam="1">  1       21 0.77297728E-02 0.46377002E+03</pdfrwt>
<pdfrwt beam="2">  1       21 0.15043913E+00 0.46377002E+03</pdfrwt>
<totfact> 0.33968813E+04</totfact>
</mgrwt>
</event>
<event>
 7    0  0.4707675E-002  0.4561773E+03  0.7546771E-02  0.1025896E+00
         21   -1    0    0  502  501  0.00000000000E+00  0.00000000000E+00  0.30785696202E+04  0.30785696202E+04  0.00000000000E+00 0. -1.
         21   -1    0    0  501  502 -0.00000000000E+00 -0.00000000000E+00 -0.16898899207E+02  0.16898899207E+02  0.00000000000E+00 0. -1.
      99926    2    1    2    0    0  0.00000000000E+00  0.00000000000E+00  0.30616707210E+04  0.30954685194E+04  0.45617732391E+03 0.  0.
      99925    2    3    3    0    0  0.94830079285E+02 -0.61530334928E+02  0.18125285668E+04  0.18349994180E+04  0.26302914788E+03 0.  0.
         25    1    4    4    0    0  0.75332791460E+02 -0.11132754553E+02  0.79348730226E+03  0.80688820454E+03  0.12509000000E+03 0.  0.
         25    1    3    3    0    0 -0.94830079285E+02  0.61530334928E+02  0.12491421542E+04  0.12604691014E+04  0.12509000000E+03 0.  0.
         25    1    4    4    0    0  0.19497287826E+02 -0.50397580374E+02  0.10190412645E+04  0.10281112135E+04  0.12509000000E+03 0.  0.
<mgrwt>
<rscale>  2 0.45617732E+03</rscale>
<asrwt>0</asrwt>
<pdfrwt beam="1">  1       21 0.45273044E+00 0.45617732E+03</pdfrwt>
<pdfrwt beam="2">  1       21 0.24851344E-02 0.45617732E+03</pdfrwt>
<totfact> 0.27252044E+03</totfact>
</mgrwt>
</event>
<event>
 7    0  0.4707675E-002  0.4564218E+03  0.7546771E-02  0.1025824E+00
         21   -1    0    0  502  501  0.00000000000E+00  0.00000000000E+00  0.42492553570E+03  0.42492553570E+03  0.00000000000E+00 0.  1.
         21   -1    0    0  501  502 -0.00000000000E+00 -0.00000000000E+00 -0.12256316554E+03  0.12256316554E+03  0.00000000000E+00 0.  1.
      99926    2    1    2    0    0  0.00000000000E+00  0.71054273576E-14  0.30236237016E+03  0.54748870124E+03  0.45642181707E+03 0.  0.
      99925    2    3    3    0    0 -0.72921284260E+02  0.62301726503E+02  0.11517370091E+03  0.30277228409E+03  0.26307233950E+03 0.  0.
         25    1    4    4    0    0 -0.32305650858E+02  0.38075034361E+02  0.10088153673E+03  0.16827939824E+03  0.12509000000E+03 0.  0.
         25    1    3    3    0    0  0.72921284260E+02 -0.62301726503E+02  0.18718866926E+03  0.24471641715E+03  0.12509000000E+03 0.  0.
         25    1    4    4    0    0 -0.40615633402E+02  0.24226692142E+02  0.14292164178E+02  0.13449288586E+03  0.12509000000E+03 0.  0.
<mgrwt>
<rscale>  2 0.45642182E+03</rscale>
<asrwt>0</asrwt>
<pdfrwt beam="1">  1       21 0.62489049E-01 0.45642182E+03</pdfrwt>
<pdfrwt beam="2">  1       21 0.18023995E-01 0.45642182E+03</pdfrwt>
<totfact> 0.61339774E+04</totfact>
</mgrwt>
</event>
<event>
 7    0  0.4707675E-002  0.4485513E+03  0.7546771E-02  0.1028155E+00
         21   -1    0    0  502  501  0.00000000000E+00  0.00000000000E+00  0.43741752433E+03  0.43741752433E+03  0.00000000000E+00 0.  1.
         21   -1    0    0  501  502 -0.00000000000E+00 -0.00000000000E+00 -0.11499209997E+03  0.11499209997E+03  0.00000000000E+00 0.  1.
      99926    2    1    2    0    0  0.00000000000E+00  0.71054273576E-14  0.32242542436E+03  0.55240962430E+03  0.44855126657E+03 0.  0.
      99925    2    3    3    0    0  0.20179994147E+02 -0.61575073143E+02  0.99280694371E+02  0.28851608436E+03  0.26303260799E+03 0.  0.
         25    1    4    4    0    0  0.22832763220E+02 -0.36278574407E+02  0.97319441387E+01  0.13258841908E+03  0.12509000000E+03 0.  0.
         25    1    3    3    0    0 -0.20179994147E+02  0.61575073143E+02  0.22314472999E+03  0.26389353994E+03  0.12509000000E+03 0.  0.
         25    1    4    4    0    0 -0.26527690735E+01 -0.25296498736E+02  0.89548750232E+02  0.15592766528E+03  0.12509000000E+03 0.  0.
<mgrwt>
<rscale>  2 0.44855127E+03</rscale>
<asrwt>0</asrwt>
<pdfrwt beam="1">  1       21 0.64326106E-01 0.44855127E+03</pdfrwt>
<pdfrwt beam="2">  1       21 0.16910603E-01 0.44855127E+03</pdfrwt>
<totfact> 0.64958738E+04</totfact>
</mgrwt>
</event>
<event>
 7    0  0.4707675E-002  0.4349625E+03  0.7546771E-02  0.1032304E+00
         21   -1    0    0  502  501  0.00000000000E+00  0.00000000000E+00  0.22629419240E+02  0.22629419240E+02  0.00000000000E+00 0.  1.
         21   -1    0    0  501  502 -0.00000000000E+00 -0.00000000000E+00 -0.20901155707E+04  0.20901155707E+04  0.00000000000E+00 0.  1.
      99926    2    1    2    0    0 -0.17763568394E-14 -0.14210854715E-13 -0.20674861515E+04  0.21127449900E+04  0.43496253406E+03 0.  0.
      99925    2    3    3    0    0 -0.10929078294E+02 -0.84098871041E+02 -0.15118340454E+04  0.15369074817E+04  0.26315463424E+03 0.  0.
         25    1    3    3    0    0  0.10929078294E+02  0.84098871041E+02 -0.55565210608E+03  0.57583750829E+03  0.12509000000E+03 0.  0.
         25    1    4    4    0    0 -0.63865450118E+01  0.38855879453E+00 -0.65562684624E+03  0.66748408861E+03  0.12509000000E+03 0.  0.
         25    1    4    4    0    0 -0.45425332820E+01 -0.84487429835E+02 -0.85620719916E+03  0.86942339306E+03  0.12509000000E+03 0.  0.
<mgrwt>
<rscale>  2 0.43496253E+03</rscale>
<asrwt>0</asrwt>
<pdfrwt beam="1">  1       21 0.33278562E-02 0.43496253E+03</pdfrwt>
<pdfrwt beam="2">  1       21 0.30736990E+00 0.43496253E+03</pdfrwt>
<totfact> 0.14011543E+04</totfact>
</mgrwt>
</event>
<event>
 7    0  0.4707675E-002  0.4513568E+03  0.7546771E-02  0.1027318E+00
         21   -1    0    0  502  501  0.00000000000E+00  0.00000000000E+00  0.24341349206E+03  0.24341349206E+03  0.00000000000E+00 0. -1.
         21   -1    0    0  501  502 -0.00000000000E+00 -0.00000000000E+00 -0.20923548627E+03  0.20923548627E+03  0.00000000000E+00 0. -1.
      99926    2    1    2    0    0  0.00000000000E+00  0.00000000000E+00  0.34178005793E+02  0.45264897833E+03  0.45135680066E+03 0.  0.
      99925    2    3    3    0    0  0.31744820143E+02 -0.10447853904E+03  0.11133897511E+02  0.28501235419E+03  0.26302961743E+03 0.  0.
         25    1    4    4    0    0 -0.97749590383E+01 -0.63096452030E+02 -0.23979147571E+02  0.14247533015E+03  0.12509000000E+03 0.  0.
         25    1    4    4    0    0  0.41519779182E+02 -0.41382087007E+02  0.35113045081E+02  0.14253702404E+03  0.12509000000E+03 0.  0.
         25    1    3    3    0    0 -0.31744820143E+02  0.10447853904E+03  0.23044108282E+02  0.16763662414E+03  0.12509000000E+03 0.  0.
<mgrwt>
<rscale>  2 0.45135680E+03</rscale>
<asrwt>0</asrwt>
<pdfrwt beam="1">  1       21 0.35796102E-01 0.45135680E+03</pdfrwt>
<pdfrwt beam="2">  1       21 0.30769924E-01 0.45135680E+03</pdfrwt>
<totfact> 0.70752796E+04</totfact>
</mgrwt>
</event>
<event>
 7    0  0.4707675E-002  0.4496981E+03  0.7546771E-02  0.1027812E+00
         21   -1    0    0  502  501  0.00000000000E+00  0.00000000000E+00  0.67206356575E+03  0.67206356575E+03  0.00000000000E+00 0. -1.
         21   -1    0    0  501  502 -0.00000000000E+00 -0.00000000000E+00 -0.75226644197E+02  0.75226644197E+02  0.00000000000E+00 0. -1.
      99926    2    1    2    0    0  0.00000000000E+00  0.00000000000E+00  0.59683692155E+03  0.74729020995E+03  0.44969806199E+03 0.  0.
      99925    2    3    3    0    0 -0.36445345341E+02  0.97758697025E+02  0.33006851111E+03  0.43472354674E+03  0.26297207840E+03 0.  0.
         25    1    4    4    0    0 -0.25485738714E+02  0.92489541989E+01  0.12950340500E+03  0.18208159170E+03  0.12509000000E+03 0.  0.
         25    1    4    4    0    0 -0.10959606627E+02  0.88509742826E+02  0.20056510611E+03  0.25264195503E+03  0.12509000000E+03 0.  0.
         25    1    3    3    0    0  0.36445345341E+02 -0.97758697025E+02  0.26676841044E+03  0.31256666321E+03  0.12509000000E+03 0.  0.
<mgrwt>
<rscale>  2 0.44969806E+03</rscale>
<asrwt>0</asrwt>
<pdfrwt beam="1">  1       21 0.98832874E-01 0.44969806E+03</pdfrwt>
<pdfrwt beam="2">  1       21 0.11062742E-01 0.44969806E+03</pdfrwt>
<totfact> 0.52566041E+04</totfact>
</mgrwt>
</event>
<event>
 7    0  0.4707675E-002  0.4213795E+03  0.7546771E-02  0.1036618E+00
         21   -1    0    0  502  501  0.00000000000E+00  0.00000000000E+00  0.24518960880E+02  0.24518960880E+02  0.00000000000E+00 0.  1.
         21   -1    0    0  501  502 -0.00000000000E+00 -0.00000000000E+00 -0.18104429237E+04  0.18104429237E+04  0.00000000000E+00 0.  1.
      99926    2    1    2    0    0 -0.35527136788E-14 -0.71054273576E-14 -0.17859239628E+04  0.18349618846E+04  0.42137954018E+03 0.  0.
      99925    2    3    3    0    0 -0.21089730442E+02 -0.49631853654E+02 -0.92087482420E+03  0.95925324699E+03  0.26315062679E+03 0.  0.
         25    1    3    3    0    0  0.21089730442E+02  0.49631853654E+02 -0.86504913860E+03  0.87570863757E+03  0.12509000000E+03 0.  0.
         25    1    4    4    0    0 -0.24750950845E+02 -0.61956010748E+02 -0.53108240861E+03  0.54967916976E+03  0.12509000000E+03 0.  0.
         25    1    4    4    0    0  0.36612204032E+01  0.12324157094E+02 -0.38979241559E+03  0.40957407723E+03  0.12509000000E+03 0.  0.
<mgrwt>
<rscale>  2 0.42137954E+03</rscale>
<asrwt>0</asrwt>
<pdfrwt beam="1">  1       21 0.36057292E-02 0.42137954E+03</pdfrwt>
<pdfrwt beam="2">  1       21 0.26624163E+00 0.42137954E+03</pdfrwt>
<totfact> 0.21740342E+04</totfact>
</mgrwt>
</event>
<event>
 7    0  0.4707675E-002  0.4541353E+03  0.7546771E-02  0.1026496E+00
         21   -1    0    0  502  501  0.00000000000E+00  0.00000000000E+00  0.71775722220E+03  0.71775722220E+03  0.00000000000E+00 0. -1.
         21   -1    0    0  501  502 -0.00000000000E+00 -0.00000000000E+00 -0.71834491199E+02  0.71834491199E+02  0.00000000000E+00 0. -1.
      99926    2    1    2    0    0  0.00000000000E+00  0.00000000000E+00  0.64592273100E+03  0.78959171340E+03  0.45413533164E+03 0.  0.
      99925    2    3    3    0    0 -0.81850107106E+02 -0.36406762577E+02  0.52476426123E+03  0.59375562048E+03  0.26295116388E+03 0.  0.
         25    1    3    3    0    0  0.81850107106E+02  0.36406762577E+02  0.12115846977E+03  0.19583609292E+03  0.12509000000E+03 0.  0.
         25    1    4    4    0    0 -0.42126301978E+02  0.22509793446E+02  0.24862550495E+03  0.28238885589E+03  0.12509000000E+03 0.  0.
         25    1    4    4    0    0 -0.39723805128E+02 -0.58916556023E+02  0.27613875629E+03  0.31136676459E+03  0.12509000000E+03 0.  0.
<mgrwt>
<rscale>  2 0.45413533E+03</rscale>
<asrwt>0</asrwt>
<pdfrwt beam="1">  1       21 0.10555253E+00 0.45413533E+03</pdfrwt>
<pdfrwt beam="2">  1       21 0.10563896E-01 0.45413533E+03</pdfrwt>
<totfact> 0.48601375E+04</totfact>
</mgrwt>
</event>
<event>
 7    0  0.4707675E-002  0.4532715E+03  0.7546771E-02  0.1026751E+00
         21   -1    0    0  502  501  0.00000000000E+00  0.00000000000E+00  0.23287345737E+03  0.23287345737E+03  0.00000000000E+00 0. -1.
         21   -1    0    0  501  502 -0.00000000000E+00 -0.00000000000E+00 -0.22056511564E+03  0.22056511564E+03  0.00000000000E+00 0. -1.
      99926    2    1    2    0    0  0.00000000000E+00  0.00000000000E+00  0.12308341739E+02  0.45343857301E+03  0.45327149063E+03 0.  0.
      99925    2    3    3    0    0 -0.71646775296E+01  0.76639234239E+02  0.88486437057E+02  0.28798309521E+03  0.26301997786E+03 0.  0.
         25    1    4    4    0    0 -0.38880197419E+02  0.45410308549E+02  0.25254449017E+02  0.14092218125E+03  0.12509000000E+03 0.  0.
         25    1    4    4    0    0  0.31715519889E+02  0.31228925690E+02  0.63231988040E+02  0.14706091395E+03  0.12509000000E+03 0.  0.
         25    1    3    3    0    0  0.71646775296E+01 -0.76639234239E+02 -0.76178095318E+02  0.16545547780E+03  0.12509000000E+03 0.  0.
<mgrwt>
<rscale>  2 0.45327149E+03</rscale>
<asrwt>0</asrwt>
<pdfrwt beam="1">  1       21 0.34246097E-01 0.45327149E+03</pdfrwt>
<pdfrwt beam="2">  1       21 0.32436046E-01 0.45327149E+03</pdfrwt>
<totfact> 0.69615511E+04</totfact>
</mgrwt>
</event>
<event>
 7    0  0.4707675E-002  0.4539184E+03  0.7546771E-02  0.1026560E+00
         21   -1    0    0  502  501  0.00000000000E+00  0.00000000000E+00  0.77314658462E+02  0.77314658462E+02  0.00000000000E+00 0. -1.
         21   -1    0    0  501  502 -0.00000000000E+00 -0.00000000000E+00 -0.66624478911E+03  0.66624478911E+03  0.00000000000E+00 0. -1.
      99926    2    1    2    0    0  0.48849813084E-14 -0.88817841970E-15 -0.58893013065E+03  0.74355944757E+03  0.45391844343E+03 0.  0.
      99925    2    3    3    0    0 -0.22695688985E+01  0.47495783499E+01 -0.18751572304E+03  0.32307312892E+03  0.26303306029E+03 0.  0.
         25    1    4    4    0    0 -0.40428357320E+02  0.40242938327E+01 -0.10645459724E+03  0.16920619489E+03  0.12509000000E+03 0.  0.
         25    1    4    4    0    0  0.38158788421E+02  0.72528451718E+00 -0.81061125796E+02  0.15386693403E+03  0.12509000000E+03 0.  0.
         25    1    3    3    0    0  0.22695688985E+01 -0.47495783499E+01 -0.40141440761E+03  0.42048631865E+03  0.12509000000E+03 0.  0.
<mgrwt>
<rscale>  2 0.45391844E+03</rscale>
<asrwt>0</asrwt>
<pdfrwt beam="1">  1       21 0.11369803E-01 0.45391844E+03</pdfrwt>
<pdfrwt beam="2">  1       21 0.97977174E-01 0.45391844E+03</pdfrwt>
<totfact> 0.51033440E+04</totfact>
</mgrwt>
</event>
<event>
 7    0  0.4707675E-002  0.4378633E+03  0.7546771E-02  0.1031404E+00
         21   -1    0    0  502  501  0.00000000000E+00  0.00000000000E+00  0.19331555323E+03  0.19331555323E+03  0.00000000000E+00 0.  1.
         21   -1    0    0  501  502 -0.00000000000E+00 -0.00000000000E+00 -0.24794212562E+03  0.24794212562E+03  0.00000000000E+00 0.  1.
      99926    2    1    2    0    0 -0.26645352591E-14 -0.35527136788E-14 -0.54626572398E+02  0.44125767885E+03  0.43786330827E+03 0.  0.
      99925    2    3    3    0    0  0.58122774587E+01 -0.76196632575E+01 -0.13155097753E+03  0.29409547568E+03  0.26285860702E+03 0.  0.
         25    1    4    4    0    0  0.28531194014E+02  0.25705864892E+02 -0.54538967229E+02  0.14176328004E+03  0.12509000000E+03 0.  0.
         25    1    3    3    0    0 -0.58122774587E+01  0.76196632575E+01  0.76924405134E+02  0.14716220317E+03  0.12509000000E+03 0.  0.
         25    1    4    4    0    0 -0.22718916555E+02 -0.33325528150E+02 -0.77012010302E+02  0.15233219563E+03  0.12509000000E+03 0.  0.
<mgrwt>
<rscale>  2 0.43786331E+03</rscale>
<asrwt>0</asrwt>
<pdfrwt beam="1">  1       21 0.28428758E-01 0.43786331E+03</pdfrwt>
<pdfrwt beam="2">  1       21 0.36462077E-01 0.43786331E+03</pdfrwt>
<totfact> 0.79948556E+04</totfact>
</mgrwt>
</event>
<event>
 7    0  0.4707675E-002  0.4514048E+03  0.7546771E-02  0.1027304E+00
         21   -1    0    0  502  501  0.00000000000E+00  0.00000000000E+00  0.35601728084E+03  0.35601728084E+03  0.00000000000E+00 0.  1.
         21   -1    0    0  501  502 -0.00000000000E+00 -0.00000000000E+00 -0.14308733841E+03  0.14308733841E+03  0.00000000000E+00 0.  1.
      99926    2    1    2    0    0  0.00000000000E+00  0.00000000000E+00  0.21292994243E+03  0.49910461925E+03  0.45140476357E+03 0.  0.
      99925    2    3    3    0    0  0.34858991745E+02  0.98465770086E+02  0.96341107080E+02  0.29872717089E+03  0.26276540208E+03 0.  0.
         25    1    4    4    0    0  0.23256541472E+02  0.76785567160E+02  0.83852309094E+02  0.17063296248E+03  0.12509000000E+03 0.  0.
         25    1    3    3    0    0 -0.34858991745E+02 -0.98465770086E+02  0.11658883535E+03  0.20037744836E+03  0.12509000000E+03 0.  0.
         25    1    4    4    0    0  0.11602450273E+02  0.21680202926E+02  0.12488797986E+02  0.12809420840E+03  0.12509000000E+03 0.  0.
<mgrwt>
<rscale>  2 0.45140476E+03</rscale>
<asrwt>0</asrwt>
<pdfrwt beam="1">  1       21 0.52355482E-01 0.45140476E+03</pdfrwt>
<pdfrwt beam="2">  1       21 0.21042256E-01 0.45140476E+03</pdfrwt>
<totfact> 0.67231926E+04</totfact>
</mgrwt>
</event>
<event>
 7    0  0.4707675E-002  0.4527507E+03  0.7546771E-02  0.1026905E+00
         21   -1    0    0  502  501  0.00000000000E+00  0.00000000000E+00  0.11536291744E+04  0.11536291744E+04  0.00000000000E+00 0.  1.
         21   -1    0    0  501  502 -0.00000000000E+00 -0.00000000000E+00 -0.44421370153E+02  0.44421370153E+02  0.00000000000E+00 0.  1.
      99926    2    1    2    0    0  0.00000000000E+00 -0.17763568394E-14  0.11092078042E+04  0.11980505445E+04  0.45275065356E+03 0.  0.
      99925    2    3    3    0    0  0.71425614163E+02  0.14210313284E+02  0.92119101790E+03  0.96077144431E+03  0.26303103502E+03 0.  0.
         25    1    4    4    0    0  0.47286577552E+02 -0.17733333606E+02  0.36079125462E+03  0.38518609664E+03  0.12509000000E+03 0.  0.
         25    1    4    4    0    0  0.24139036611E+02  0.31943646890E+02  0.56039976328E+03  0.57558534767E+03  0.12509000000E+03 0.  0.
         25    1    3    3    0    0 -0.71425614163E+02 -0.14210313284E+02  0.18801678633E+03  0.23727910023E+03  0.12509000000E+03 0.  0.
<mgrwt>
<rscale>  2 0.45275065E+03</rscale>
<asrwt>0</asrwt>
<pdfrwt beam="1">  1       21 0.16965133E+00 0.45275065E+03</pdfrwt>
<pdfrwt beam="2">  1       21 0.65325552E-02 0.45275065E+03</pdfrwt>
<totfact> 0.32788578E+04</totfact>
</mgrwt>
</event>
<event>
 7    0  0.4707675E-002  0.4570816E+03  0.7546771E-02  0.1025631E+00
         21   -1    0    0  502  501  0.00000000000E+00  0.00000000000E+00  0.55115995191E+02  0.55115995191E+02  0.00000000000E+00 0.  1.
         21   -1    0    0  501  502 -0.00000000000E+00 -0.00000000000E+00 -0.94765407419E+03  0.94765407419E+03  0.00000000000E+00 0.  1.
      99926    2    1    2    0    0  0.00000000000E+00  0.00000000000E+00 -0.89253807899E+03  0.10027700694E+04  0.45708160057E+03 0.  0.
      99925    2    3    3    0    0  0.91214371773E+02 -0.60321853575E+02 -0.63932401780E+03  0.69991093294E+03  0.26302343370E+03 0.  0.
         25    1    4    4    0    0  0.15847995278E+02 -0.32392547658E+01 -0.24514830260E+03  0.27569339871E+03  0.12509000000E+03 0.  0.
         25    1    3    3    0    0 -0.91214371773E+02  0.60321853575E+02 -0.25321406119E+03  0.30285913644E+03  0.12509000000E+03 0.  0.
         25    1    4    4    0    0  0.75366376495E+02 -0.57082598809E+02 -0.39417571520E+03  0.42421753423E+03  0.12509000000E+03 0.  0.
<mgrwt>
<rscale>  2 0.45708160E+03</rscale>
<asrwt>0</asrwt>
<pdfrwt beam="1">  1       21 0.81052931E-02 0.45708160E+03</pdfrwt>
<pdfrwt beam="2">  1       21 0.13936090E+00 0.45708160E+03</pdfrwt>
<totfact> 0.38430673E+04</totfact>
</mgrwt>
</event>
<event>
 7    0  0.4707675E-002  0.4564676E+03  0.7546771E-02  0.1025811E+00
         21   -1    0    0  502  501  0.00000000000E+00  0.00000000000E+00  0.11990763873E+03  0.11990763873E+03  0.00000000000E+00 0. -1.
         21   -1    0    0  501  502 -0.00000000000E+00 -0.00000000000E+00 -0.43442322848E+03  0.43442322848E+03  0.00000000000E+00 0. -1.
      99926    2    1    2    0    0 -0.17763568394E-14  0.14210854715E-13 -0.31451558975E+03  0.55433086721E+03  0.45646758280E+03 0.  0.
      99925    2    3    3    0    0 -0.12691899548E+02  0.10243684449E+03 -0.13720651939E+03  0.31403853285E+03  0.26294520289E+03 0.  0.
         25    1    4    4    0    0  0.17999449608E+02  0.40451943636E+02 -0.10051143887E+03  0.16646440272E+03  0.12509000000E+03 0.  0.
         25    1    4    4    0    0 -0.30691349156E+02  0.61984900859E+02 -0.36695080527E+02  0.14757413013E+03  0.12509000000E+03 0.  0.
         25    1    3    3    0    0  0.12691899548E+02 -0.10243684449E+03 -0.17730907035E+03  0.24029233436E+03  0.12509000000E+03 0.  0.
<mgrwt>
<rscale>  2 0.45646758E+03</rscale>
<asrwt>0</asrwt>
<pdfrwt beam="1">  1       21 0.17633476E-01 0.45646758E+03</pdfrwt>
<pdfrwt beam="2">  1       21 0.63885769E-01 0.45646758E+03</pdfrwt>
<totfact> 0.60871419E+04</totfact>
</mgrwt>
</event>
<event>
 7    0  0.4707675E-002  0.4548366E+03  0.7546771E-02  0.1026289E+00
         21   -1    0    0  502  501  0.00000000000E+00  0.00000000000E+00  0.14827061349E+03  0.14827061349E+03  0.00000000000E+00 0.  1.
         21   -1    0    0  501  502 -0.00000000000E+00 -0.00000000000E+00 -0.34881549993E+03  0.34881549993E+03  0.00000000000E+00 0.  1.
      99926    2    1    2    0    0  0.35527136788E-14  0.00000000000E+00 -0.20054488644E+03  0.49708611342E+03  0.45483662196E+03 0.  0.
      99925    2    3    3    0    0  0.22461563103E+02 -0.10645938124E+03 -0.90918324437E+02  0.29833095532E+03  0.26248256230E+03 0.  0.
         25    1    3    3    0    0 -0.22461563103E+02  0.10645938124E+03 -0.10962656201E+03  0.19875515809E+03  0.12509000000E+03 0.  0.
         25    1    4    4    0    0  0.88327704762E+00 -0.64668077513E+02 -0.79786608431E+01  0.14104576405E+03  0.12509000000E+03 0.  0.
         25    1    4    4    0    0  0.21578286055E+02 -0.41791303728E+02 -0.82939663594E+02  0.15728519127E+03  0.12509000000E+03 0.  0.
<mgrwt>
<rscale>  2 0.45483662E+03</rscale>
<asrwt>0</asrwt>
<pdfrwt beam="1">  1       21 0.21804502E-01 0.45483662E+03</pdfrwt>
<pdfrwt beam="2">  1       21 0.51296396E-01 0.45483662E+03</pdfrwt>
<totfact> 0.65560844E+04</totfact>
</mgrwt>
</event>
<event>
 7    0  0.4707675E-002  0.4509833E+03  0.7546771E-02  0.1027429E+00
         21   -1    0    0  502  501  0.00000000000E+00  0.00000000000E+00  0.44895155345E+02  0.44895155345E+02  0.00000000000E+00 0.  1.
         21   -1    0    0  501  502 -0.00000000000E+00 -0.00000000000E+00 -0.11325604694E+04  0.11325604694E+04  0.00000000000E+00 0.  1.
      99926    2    1    2    0    0 -0.14210854715E-13  0.00000000000E+00 -0.10876653140E+04  0.11774556247E+04  0.45098327335E+03 0.  0.
      99925    2    3    3    0    0 -0.87518143995E+02 -0.22528905441E+02 -0.84825307916E+03  0.89261759458E+03  0.26280393212E+03 0.  0.
         25    1    3    3    0    0  0.87518143995E+02  0.22528905441E+02 -0.23941223485E+03  0.28483803012E+03  0.12509000000E+03 0.  0.
         25    1    4    4    0    0 -0.59417696702E+02  0.18462300879E+02 -0.50338786804E+03  0.52241570901E+03  0.12509000000E+03 0.  0.
         25    1    4    4    0    0 -0.28100447294E+02 -0.40991206320E+02 -0.34486521112E+03  0.37020188557E+03  0.12509000000E+03 0.  0.
<mgrwt>
<rscale>  2 0.45098327E+03</rscale>
<asrwt>0</asrwt>
<pdfrwt beam="1">  1       21 0.66022284E-02 0.45098327E+03</pdfrwt>
<pdfrwt beam="2">  1       21 0.16655302E+00 0.45098327E+03</pdfrwt>
<totfact> 0.33928253E+04</totfact>
</mgrwt>
</event>
<event>
 7    0  0.4707675E-002  0.4459607E+03  0.7546771E-02  0.1028934E+00
         21   -1    0    0  502  501  0.00000000000E+00  0.00000000000E+00  0.39652576366E+03  0.39652576366E+03  0.00000000000E+00 0.  1.
         21   -1    0    0  501  502 -0.00000000000E+00 -0.00000000000E+00 -0.12538964829E+03  0.12538964829E+03  0.00000000000E+00 0.  1.
      99926    2    1    2    0    0  0.00000000000E+00  0.00000000000E+00  0.27113611536E+03  0.52191541195E+03  0.44596065317E+03 0.  0.
      99925    2    3    3    0    0 -0.34361545109E+02 -0.74815787043E+02  0.96711633105E+02  0.29202516447E+03  0.26295900619E+03 0.  0.
         25    1    4    4    0    0  0.21305074636E+02 -0.44285650480E+02  0.35742195147E+02  0.13906882346E+03  0.12509000000E+03 0.  0.
         25    1    3    3    0    0  0.34361545109E+02  0.74815787043E+02  0.17442448226E+03  0.22989024748E+03  0.12509000000E+03 0.  0.
         25    1    4    4    0    0 -0.55666619745E+02 -0.30530136563E+02  0.60969437958E+02  0.15295634102E+03  0.12509000000E+03 0.  0.
<mgrwt>
<rscale>  2 0.44596065E+03</rscale>
<asrwt>0</asrwt>
<pdfrwt beam="1">  1       21 0.58312612E-01 0.44596065E+03</pdfrwt>
<pdfrwt beam="2">  1       21 0.18439654E-01 0.44596065E+03</pdfrwt>
<totfact> 0.68536298E+04</totfact>
</mgrwt>
</event>
<event>
 7    0  0.4707675E-002  0.4224009E+03  0.7546771E-02  0.1036288E+00
         21   -1    0    0  502  501  0.00000000000E+00  0.00000000000E+00  0.15985546121E+03  0.15985546121E+03  0.00000000000E+00 0.  1.
         21   -1    0    0  501  502 -0.00000000000E+00 -0.00000000000E+00 -0.27903722982E+03  0.27903722982E+03  0.00000000000E+00 0.  1.
      99926    2    1    2    0    0  0.35527136788E-14  0.71054273576E-14 -0.11918176861E+03  0.43889269102E+03  0.42240087626E+03 0.  0.
      99925    2    3    3    0    0  0.13121362976E+02  0.55862945695E+02 -0.22952750256E+02  0.27096303033E+03  0.26382057575E+03 0.  0.
         25    1    4    4    0    0 -0.74045592716E+01  0.25154970095E+02  0.28163234496E+02  0.13087503924E+03  0.12509000000E+03 0.  0.
         25    1    3    3    0    0 -0.13121362976E+02 -0.55862945695E+02 -0.96229018353E+02  0.16792966070E+03  0.12509000000E+03 0.  0.
         25    1    4    4    0    0  0.20525922248E+02  0.30707975601E+02 -0.51115984752E+02  0.14008799109E+03  0.12509000000E+03 0.  0.
<mgrwt>
<rscale>  2 0.42240088E+03</rscale>
<asrwt>0</asrwt>
<pdfrwt beam="1">  1       21 0.23508156E-01 0.42240088E+03</pdfrwt>
<pdfrwt beam="2">  1       21 0.41034886E-01 0.42240088E+03</pdfrwt>
<totfact> 0.91224706E+04</totfact>
</mgrwt>
</event>
<event>
 7    0  0.4707675E-002  0.4580086E+03  0.7546771E-02  0.1025360E+00
         21   -1    0    0  502  501  0.00000000000E+00  0.00000000000E+00  0.45889765276E+03  0.45889765276E+03  0.00000000000E+00 0. -1.
         21   -1    0    0  501  502 -0.00000000000E+00 -0.00000000000E+00 -0.11428031673E+03  0.11428031673E+03  0.00000000000E+00 0. -1.
      99926    2    1    2    0    0  0.00000000000E+00 -0.88817841970E-15  0.34461733602E+03  0.57317796949E+03  0.45800859863E+03 0.  0.
      99925    2    3    3    0    0  0.11401560538E+03  0.73883579306E+01  0.18978678209E+03  0.34366946282E+03  0.26274613398E+03 0.  0.
         25    1    4    4    0    0  0.45837143354E+02  0.35867666720E+02  0.11835097055E+03  0.18177456796E+03  0.12509000000E+03 0.  0.
         25    1    3    3    0    0 -0.11401560538E+03 -0.73883579306E+01  0.15483055393E+03  0.22950850667E+03  0.12509000000E+03 0.  0.
         25    1    4    4    0    0  0.68178462021E+02 -0.28479308790E+02  0.71435811540E+02  0.16189489486E+03  0.12509000000E+03 0.  0.
<mgrwt>
<rscale>  2 0.45800860E+03</rscale>
<asrwt>0</asrwt>
<pdfrwt beam="1">  1       21 0.67484948E-01 0.45800860E+03</pdfrwt>
<pdfrwt beam="2">  1       21 0.16805929E-01 0.45800860E+03</pdfrwt>
<totfact> 0.58945514E+04</totfact>
</mgrwt>
</event>
<event>
 7    0  0.4707675E-002  0.4590512E+03  0.7546771E-02  0.1025057E+00
         21   -1    0    0  502  501  0.00000000000E+00  0.00000000000E+00  0.19234896255E+03  0.19234896255E+03  0.00000000000E+00 0.  1.
         21   -1    0    0  501  502 -0.00000000000E+00 -0.00000000000E+00 -0.27388759641E+03  0.27388759641E+03  0.00000000000E+00 0.  1.
      99926    2    1    2    0    0  0.00000000000E+00  0.35527136788E-14 -0.81538633859E+02  0.46623655897E+03  0.45905117373E+03 0.  0.
      99925    2    3    3    0    0 -0.51679358687E+02 -0.30403604754E+02  0.51393791187E+02  0.27410724568E+03  0.26248490445E+03 0.  0.
         25    1    4    4    0    0 -0.17227389741E+02 -0.53484946548E+02  0.32992539228E+02  0.14104410023E+03  0.12509000000E+03 0.  0.
         25    1    4    4    0    0 -0.34451968946E+02  0.23081341794E+02  0.18401251959E+02  0.13306314545E+03  0.12509000000E+03 0.  0.
         25    1    3    3    0    0  0.51679358687E+02  0.30403604754E+02 -0.13293242505E+03  0.19212931329E+03  0.12509000000E+03 0.  0.
<mgrwt>
<rscale>  2 0.45905117E+03</rscale>
<asrwt>0</asrwt>
<pdfrwt beam="1">  1       21 0.28286612E-01 0.45905117E+03</pdfrwt>
<pdfrwt beam="2">  1       21 0.40277588E-01 0.45905117E+03</pdfrwt>
<totfact> 0.65580873E+04</totfact>
</mgrwt>
</event>
<event>
 7    0  0.4707675E-002  0.4561346E+03  0.7546771E-02  0.1025908E+00
         21   -1    0    0  502  501  0.00000000000E+00  0.00000000000E+00  0.31374738011E+03  0.31374738011E+03  0.00000000000E+00 0.  1.
         21   -1    0    0  501  502 -0.00000000000E+00 -0.00000000000E+00 -0.16578530361E+03  0.16578530361E+03  0.00000000000E+00 0.  1.
      99926    2    1    2    0    0 -0.35527136788E-14  0.00000000000E+00  0.14796207650E+03  0.47953268372E+03  0.45613464972E+03 0.  0.
      99925    2    3    3    0    0  0.12187347670E+02 -0.76948001341E+02  0.51562049562E+01  0.27432412786E+03  0.26297835333E+03 0.  0.
         25    1    3    3    0    0 -0.12187347670E+02  0.76948001341E+02  0.14280587154E+03  0.20520855587E+03  0.12509000000E+03 0.  0.
         25    1    4    4    0    0  0.37795083999E+02 -0.13820822999E+02 -0.52386649880E+01  0.13150830861E+03  0.12509000000E+03 0.  0.
         25    1    4    4    0    0 -0.25607736329E+02 -0.63127178342E+02  0.10394869944E+02  0.14281581924E+03  0.12509000000E+03 0.  0.
<mgrwt>
<rscale>  2 0.45613465E+03</rscale>
<asrwt>0</asrwt>
<pdfrwt beam="1">  1       21 0.46139321E-01 0.45613465E+03</pdfrwt>
<pdfrwt beam="2">  1       21 0.24380192E-01 0.45613465E+03</pdfrwt>
<totfact> 0.66136501E+04</totfact>
</mgrwt>
</event>
<event>
 7    0  0.4707675E-002  0.4470578E+03  0.7546771E-02  0.1028603E+00
         21   -1    0    0  502  501  0.00000000000E+00  0.00000000000E+00  0.46039588826E+02  0.46039588826E+02  0.00000000000E+00 0.  1.
         21   -1    0    0  501  502 -0.00000000000E+00 -0.00000000000E+00 -0.10852652015E+04  0.10852652015E+04  0.00000000000E+00 0.  1.
      99926    2    1    2    0    0  0.00000000000E+00 -0.71054273576E-14 -0.10392256127E+04  0.11313047903E+04  0.44705777544E+03 0.  0.
      99925    2    3    3    0    0  0.84734879568E+02  0.46406945356E+02 -0.76629336656E+03  0.81591118947E+03  0.26300559134E+03 0.  0.
         25    1    3    3    0    0 -0.84734879568E+02 -0.46406945356E+02 -0.27293224611E+03  0.31539360086E+03  0.12509000000E+03 0.  0.
         25    1    4    4    0    0  0.57673822784E+02 -0.14084689082E+02 -0.39293524392E+03  0.41661764523E+03  0.12509000000E+03 0.  0.
         25    1    4    4    0    0  0.27061056783E+02  0.60491634438E+02 -0.37335812264E+03  0.39929354424E+03  0.12509000000E+03 0.  0.
<mgrwt>
<rscale>  2 0.44705778E+03</rscale>
<asrwt>0</asrwt>
<pdfrwt beam="1">  1       21 0.67705276E-02 0.44705778E+03</pdfrwt>
<pdfrwt beam="2">  1       21 0.15959783E+00 0.44705778E+03</pdfrwt>
<totfact> 0.36628431E+04</totfact>
</mgrwt>
</event>
<event>
 7    0  0.4707675E-002  0.4492306E+03  0.7546771E-02  0.1027952E+00
         21   -1    0    0  502  501  0.00000000000E+00  0.00000000000E+00  0.18833053427E+03  0.18833053427E+03  0.00000000000E+00 0.  1.
         21   -1    0    0  501  502 -0.00000000000E+00 -0.00000000000E+00 -0.26789085476E+03  0.26789085476E+03  0.00000000000E+00 0.  1.
      99926    2    1    2    0    0  0.00000000000E+00 -0.14210854715E-13 -0.79560320497E+02  0.45622138903E+03  0.44923057689E+03 0.  0.
      99925    2    3    3    0    0  0.36095332094E+02 -0.98812721405E+02 -0.26809227989E+02  0.28447444504E+03  0.26294514307E+03 0.  0.
         25    1    4    4    0    0  0.24000715750E+02 -0.74280161764E+02 -0.47192612086E+02  0.15481675466E+03  0.12509000000E+03 0.  0.
         25    1    4    4    0    0  0.12094616344E+02 -0.24532559641E+02  0.20383384097E+02  0.12965769038E+03  0.12509000000E+03 0.  0.
         25    1    3    3    0    0 -0.36095332094E+02  0.98812721405E+02 -0.52751092507E+02  0.17174694399E+03  0.12509000000E+03 0.  0.
<mgrwt>
<rscale>  2 0.44923058E+03</rscale>
<asrwt>0</asrwt>
<pdfrwt beam="1">  1       21 0.27695667E-01 0.44923058E+03</pdfrwt>
<pdfrwt beam="2">  1       21 0.39395713E-01 0.44923058E+03</pdfrwt>
<totfact> 0.71698961E+04</totfact>
</mgrwt>
</event>
<event>
 7    0  0.4707675E-002  0.4546053E+03  0.7546771E-02  0.1026358E+00
         21   -1    0    0  502  501  0.00000000000E+00  0.00000000000E+00  0.20249882139E+03  0.20249882139E+03  0.00000000000E+00 0. -1.
         21   -1    0    0  501  502 -0.00000000000E+00 -0.00000000000E+00 -0.25514465097E+03  0.25514465097E+03  0.00000000000E+00 0. -1.
      99926    2    1    2    0    0 -0.14210854715E-13  0.00000000000E+00 -0.52645829574E+02  0.45764347236E+03  0.45460528420E+03 0.  0.
      99925    2    3    3    0    0 -0.66090981622E+02 -0.83031277640E+02  0.22457552847E+01  0.28466137760E+03  0.26413035714E+03 0.  0.
         25    1    4    4    0    0 -0.34003928149E+02  0.26332922926E+01  0.29766309207E+01  0.12969028410E+03  0.12509000000E+03 0.  0.
         25    1    3    3    0    0  0.66090981622E+02  0.83031277640E+02 -0.54891584858E+02  0.17298209476E+03  0.12509000000E+03 0.  0.
         25    1    4    4    0    0 -0.32087053473E+02 -0.85664569933E+02 -0.73087563605E+00  0.15497109350E+03  0.12509000000E+03 0.  0.
<mgrwt>
<rscale>  2 0.45460528E+03</rscale>
<asrwt>0</asrwt>
<pdfrwt beam="1">  1       21 0.29779239E-01 0.45460528E+03</pdfrwt>
<pdfrwt beam="2">  1       21 0.37521272E-01 0.45460528E+03</pdfrwt>
<totfact> 0.68568159E+04</totfact>
</mgrwt>
</event>
<event>
 7    0  0.4707675E-002  0.4584342E+03  0.7546771E-02  0.1025236E+00
         21   -1    0    0  502  501  0.00000000000E+00  0.00000000000E+00  0.71637992844E+03  0.71637992844E+03  0.00000000000E+00 0.  1.
         21   -1    0    0  501  502 -0.00000000000E+00 -0.00000000000E+00 -0.73341642751E+02  0.73341642751E+02  0.00000000000E+00 0.  1.
      99926    2    1    2    0    0 -0.14210854715E-13  0.00000000000E+00  0.64303828569E+03  0.78972157120E+03  0.45843420809E+03 0.  0.
      99925    2    3    3    0    0  0.11370302741E+03 -0.16976027516E+02  0.43462723203E+03  0.52083639246E+03  0.26296987078E+03 0.  0.
         25    1    4    4    0    0  0.42321935282E+02  0.28413209697E+02  0.22606172132E+03  0.26334362844E+03  0.12509000000E+03 0.  0.
         25    1    4    4    0    0  0.71381092131E+02 -0.45389237212E+02  0.20856551070E+03  0.25749276402E+03  0.12509000000E+03 0.  0.
         25    1    3    3    0    0 -0.11370302741E+03  0.16976027516E+02  0.20841105367E+03  0.26888517874E+03  0.12509000000E+03 0.  0.
<mgrwt>
<rscale>  2 0.45843421E+03</rscale>
<asrwt>0</asrwt>
<pdfrwt beam="1">  1       21 0.10534999E+00 0.45843421E+03</pdfrwt>
<pdfrwt beam="2">  1       21 0.10785536E-01 0.45843421E+03</pdfrwt>
<totfact> 0.46986708E+04</totfact>
</mgrwt>
</event>
<event>
 7    0  0.4707675E-002  0.4576727E+03  0.7546771E-02  0.1025458E+00
         21   -1    0    0  502  501  0.00000000000E+00  0.00000000000E+00  0.25082534089E+03  0.25082534089E+03  0.00000000000E+00 0. -1.
         21   -1    0    0  501  502 -0.00000000000E+00 -0.00000000000E+00 -0.20877504915E+03  0.20877504915E+03  0.00000000000E+00 0. -1.
      99926    2    1    2    0    0  0.00000000000E+00  0.00000000000E+00  0.42050291739E+02  0.45960039005E+03  0.45767269035E+03 0.  0.
      99925    2    3    3    0    0 -0.76523739854E+02 -0.62326020835E+02  0.88456824704E+02  0.29364410051E+03  0.26203402888E+03 0.  0.
         25    1    4    4    0    0 -0.14801755024E+02 -0.57327281982E+02  0.26389790940E+02  0.14088803490E+03  0.12509000000E+03 0.  0.
         25    1    4    4    0    0 -0.61721984830E+02 -0.49987388531E+01  0.62067033764E+02  0.15275606561E+03  0.12509000000E+03 0.  0.
         25    1    3    3    0    0  0.76523739854E+02  0.62326020835E+02 -0.46406532965E+02  0.16595628954E+03  0.12509000000E+03 0.  0.
<mgrwt>
<rscale>  2 0.45767269E+03</rscale>
<asrwt>0</asrwt>
<pdfrwt beam="1">  1       21 0.36886079E-01 0.45767269E+03</pdfrwt>
<pdfrwt beam="2">  1       21 0.30702213E-01 0.45767269E+03</pdfrwt>
<totfact> 0.66774759E+04</totfact>
</mgrwt>
</event>
<event>
 7    0  0.4707675E-002  0.4566372E+03  0.7546771E-02  0.1025761E+00
         21   -1    0    0  502  501  0.00000000000E+00  0.00000000000E+00  0.10057003588E+03  0.10057003588E+03  0.00000000000E+00 0. -1.
         21   -1    0    0  501  502 -0.00000000000E+00 -0.00000000000E+00 -0.51833906767E+03  0.51833906767E+03  0.00000000000E+00 0. -1.
      99926    2    1    2    0    0  0.71054273576E-14  0.00000000000E+00 -0.41776903179E+03  0.61890910356E+03  0.45663718042E+03 0.  0.
      99925    2    3    3    0    0  0.63809069180E+02  0.68189850916E+02 -0.35262406312E+03  0.44975583542E+03  0.26308768221E+03 0.  0.
         25    1    4    4    0    0  0.69574471668E+02  0.24746388753E+02 -0.20650291580E+03  0.25247564872E+03  0.12509000000E+03 0.  0.
         25    1    4    4    0    0 -0.57654024883E+01  0.43443462163E+02 -0.14612114732E+03  0.19728018670E+03  0.12509000000E+03 0.  0.
         25    1    3    3    0    0 -0.63809069180E+02 -0.68189850916E+02 -0.65144968671E+02  0.16915326814E+03  0.12509000000E+03 0.  0.
<mgrwt>
<rscale>  2 0.45663718E+03</rscale>
<asrwt>0</asrwt>
<pdfrwt beam="1">  1       21 0.14789711E-01 0.45663718E+03</pdfrwt>
<pdfrwt beam="2">  1       21 0.76226334E-01 0.45663718E+03</pdfrwt>
<totfact> 0.56791400E+04</totfact>
</mgrwt>
</event>
<event>
 7    0  0.4707675E-002  0.4542196E+03  0.7546771E-02  0.1026471E+00
         21   -1    0    0  502  501  0.00000000000E+00  0.00000000000E+00  0.26110594035E+03  0.26110594035E+03  0.00000000000E+00 0. -1.
         21   -1    0    0  501  502 -0.00000000000E+00 -0.00000000000E+00 -0.19753993817E+03  0.19753993817E+03  0.00000000000E+00 0. -1.
      99926    2    1    2    0    0  0.00000000000E+00  0.71054273576E-14  0.63566002187E+02  0.45864587852E+03  0.45421955622E+03 0.  0.
      99925    2    3    3    0    0 -0.76025888901E+02 -0.50598144924E+02 -0.25981826722E+02  0.27974246934E+03  0.26313624946E+03 0.  0.
         25    1    4    4    0    0 -0.45807386512E+02 -0.64663409532E+02 -0.20389538512E+01  0.14809233142E+03  0.12509000000E+03 0.  0.
         25    1    3    3    0    0  0.76025888901E+02  0.50598144924E+02  0.89547828909E+02  0.17890340918E+03  0.12509000000E+03 0.  0.
         25    1    4    4    0    0 -0.30218502388E+02  0.14065264608E+02 -0.23942872871E+02  0.13165013793E+03  0.12509000000E+03 0.  0.
<mgrwt>
<rscale>  2 0.45421956E+03</rscale>
<asrwt>0</asrwt>
<pdfrwt beam="1">  1       21 0.38397932E-01 0.45421956E+03</pdfrwt>
<pdfrwt beam="2">  1       21 0.29049991E-01 0.45421956E+03</pdfrwt>
<totfact> 0.68705993E+04</totfact>
</mgrwt>
</event>
<event>
 7    0  0.4707675E-002  0.4515410E+03  0.7546771E-02  0.1027264E+00
         21   -1    0    0  502  501  0.00000000000E+00  0.00000000000E+00  0.51339729926E+02  0.51339729926E+02  0.00000000000E+00 0. -1.
         21   -1    0    0  501  502 -0.00000000000E+00 -0.00000000000E+00 -0.99284331751E+03  0.99284331751E+03  0.00000000000E+00 0. -1.
      99926    2    1    2    0    0 -0.71054273576E-14 -0.14210854715E-13 -0.94150358758E+03  0.10441830474E+04  0.45154095176E+03 0.  0.
      99925    2    3    3    0    0 -0.48369924141E+02 -0.92574277645E+02 -0.51515881565E+03  0.58775449980E+03  0.26297737592E+03 0.  0.
         25    1    3    3    0    0  0.48369924141E+02  0.92574277645E+02 -0.42634477193E+03  0.45642854764E+03  0.12509000000E+03 0.  0.
         25    1    4    4    0    0 -0.28978365166E+02 -0.85688961765E+02 -0.24941906048E+03  0.29332527959E+03  0.12509000000E+03 0.  0.
         25    1    4    4    0    0 -0.19391558975E+02 -0.68853158794E+01 -0.26573975516E+03  0.29442922020E+03  0.12509000000E+03 0.  0.
<mgrwt>
<rscale>  2 0.45154095E+03</rscale>
<asrwt>0</asrwt>
<pdfrwt beam="1">  1       21 0.75499614E-02 0.45154095E+03</pdfrwt>
<pdfrwt beam="2">  1       21 0.14600635E+00 0.45154095E+03</pdfrwt>
<totfact> 0.38521181E+04</totfact>
</mgrwt>
</event>
<event>
 7    0  0.4707675E-002  0.4473652E+03  0.7546771E-02  0.1028511E+00
         21   -1    0    0  502  501  0.00000000000E+00  0.00000000000E+00  0.17593284782E+03  0.17593284782E+03  0.00000000000E+00 0. -1.
         21   -1    0    0  501  502 -0.00000000000E+00 -0.00000000000E+00 -0.28439209423E+03  0.28439209423E+03  0.00000000000E+00 0. -1.
      99926    2    1    2    0    0  0.71054273576E-14  0.14210854715E-13 -0.10845924641E+03  0.46032494205E+03  0.44736522456E+03 0.  0.
      99925    2    3    3    0    0  0.57435298294E+02  0.88998482080E+02 -0.69435929223E+02  0.29183200247E+03  0.26291638614E+03 0.  0.
         25    1    4    4    0    0  0.52548944410E+02  0.64967145829E+02 -0.88397294203E+01  0.15069097688E+03  0.12509000000E+03 0.  0.
         25    1    4    4    0    0  0.48863538836E+01  0.24031336251E+02 -0.60596199802E+02  0.14114102560E+03  0.12509000000E+03 0.  0.
         25    1    3    3    0    0 -0.57435298294E+02 -0.88998482080E+02 -0.39023317192E+02  0.16849293958E+03  0.12509000000E+03 0.  0.
<mgrwt>
<rscale>  2 0.44736522E+03</rscale>
<asrwt>0</asrwt>
<pdfrwt beam="1">  1       21 0.25872478E-01 0.44736522E+03</pdfrwt>
<pdfrwt beam="2">  1       21 0.41822366E-01 0.44736522E+03</pdfrwt>
<totfact> 0.72451525E+04</totfact>
</mgrwt>
</event>
<event>
 7    0  0.4707675E-002  0.4524980E+03  0.7546771E-02  0.1026980E+00
         21   -1    0    0  502  501  0.00000000000E+00  0.00000000000E+00  0.71560044152E+03  0.71560044152E+03  0.00000000000E+00 0. -1.
         21   -1    0    0  501  502 -0.00000000000E+00 -0.00000000000E+00 -0.71532399117E+02  0.71532399117E+02  0.00000000000E+00 0. -1.
      99926    2    1    2    0    0 -0.24424906542E-14  0.14210854715E-13  0.64406804240E+03  0.78713284063E+03  0.45249802824E+03 0.  0.
      99925    2    3    3    0    0 -0.17056535341E+01  0.10301066118E+03  0.47723758207E+03  0.55455163726E+03  0.26297852207E+03 0.  0.
         25    1    4    4    0    0 -0.23710284815E+02  0.86707164665E+02  0.27424510219E+03  0.31454442323E+03  0.12509000000E+03 0.  0.
         25    1    3    3    0    0  0.17056535341E+01 -0.10301066118E+03  0.16683046033E+03  0.23258120338E+03  0.12509000000E+03 0.  0.
         25    1    4    4    0    0  0.22004631281E+02  0.16303496514E+02  0.20299247988E+03  0.24000721403E+03  0.12509000000E+03 0.  0.
<mgrwt>
<rscale>  2 0.45249803E+03</rscale>
<asrwt>0</asrwt>
<pdfrwt beam="1">  1       21 0.10523536E+00 0.45249803E+03</pdfrwt>
<pdfrwt beam="2">  1       21 0.10519471E-01 0.45249803E+03</pdfrwt>
<totfact> 0.49355595E+04</totfact>
</mgrwt>
</event>
<event>
 7    0  0.4707675E-002  0.4631428E+03  0.7546771E-02  0.1023874E+00
         21   -1    0    0  502  501  0.00000000000E+00  0.00000000000E+00  0.61438009436E+03  0.61438009436E+03  0.00000000000E+00 0.  1.
         21   -1    0    0  501  502 -0.00000000000E+00 -0.00000000000E+00 -0.87283626715E+02  0.87283626715E+02  0.00000000000E+00 0.  1.
      99926    2    1    2    0    0  0.00000000000E+00  0.71054273576E-14  0.52709646765E+03  0.70166372108E+03  0.46314284111E+03 0.  0.
      99925    2    3    3    0    0  0.91240942658E+02 -0.56447134205E+02  0.24579525470E+03  0.37564367709E+03  0.26302409838E+03 0.  0.
         25    1    4    4    0    0  0.72154684721E+02 -0.61584627112E+02  0.14629136949E+03  0.21458713315E+03  0.12509000000E+03 0.  0.
         25    1    3    3    0    0 -0.91240942658E+02  0.56447134205E+02  0.28130121294E+03  0.32602004399E+03  0.12509000000E+03 0.  0.
         25    1    4    4    0    0  0.19086257937E+02  0.51374929063E+01  0.99503885212E+02  0.16105654395E+03  0.12509000000E+03 0.  0.
<mgrwt>
<rscale>  2 0.46314284E+03</rscale>
<asrwt>0</asrwt>
<pdfrwt beam="1">  1       21 0.90350012E-01 0.46314284E+03</pdfrwt>
<pdfrwt beam="2">  1       21 0.12835828E-01 0.46314284E+03</pdfrwt>
<totfact> 0.49559679E+04</totfact>
</mgrwt>
</event>
<event>
 7    0  0.4707675E-002  0.4574706E+03  0.7546771E-02  0.1025517E+00
         21   -1    0    0  502  501  0.00000000000E+00  0.00000000000E+00  0.51593162756E+03  0.51593162756E+03  0.00000000000E+00 0. -1.
         21   -1    0    0  501  502 -0.00000000000E+00 -0.00000000000E+00 -0.10140845859E+03  0.10140845859E+03  0.00000000000E+00 0. -1.
      99926    2    1    2    0    0 -0.71054273576E-14  0.00000000000E+00  0.41452316897E+03  0.61734008615E+03  0.45747057211E+03 0.  0.
      99925    2    3    3    0    0  0.32836262795E+02  0.78292434366E+02  0.15472350153E+03  0.31675515516E+03  0.26303334572E+03 0.  0.
         25    1    4    4    0    0 -0.19158095315E+02  0.57940141194E+02  0.84402945225E+02  0.16277425423E+03  0.12509000000E+03 0.  0.
         25    1    4    4    0    0  0.51994358110E+02  0.20352293172E+02  0.70320556308E+02  0.15398090093E+03  0.12509000000E+03 0.  0.
         25    1    3    3    0    0 -0.32836262795E+02 -0.78292434366E+02  0.25979966744E+03  0.30058493099E+03  0.12509000000E+03 0.  0.
<mgrwt>
<rscale>  2 0.45747057E+03</rscale>
<asrwt>0</asrwt>
<pdfrwt beam="1">  1       21 0.75872297E-01 0.45747057E+03</pdfrwt>
<pdfrwt beam="2">  1       21 0.14913009E-01 0.45747057E+03</pdfrwt>
<totfact> 0.56512731E+04</totfact>
</mgrwt>
</event>
<event>
 7    0  0.4707675E-002  0.4527368E+03  0.7546771E-02  0.1026909E+00
         21   -1    0    0  502  501  0.00000000000E+00  0.00000000000E+00  0.73361756708E+02  0.73361756708E+02  0.00000000000E+00 0.  1.
         21   -1    0    0  501  502 -0.00000000000E+00 -0.00000000000E+00 -0.69849277341E+03  0.69849277341E+03  0.00000000000E+00 0.  1.
      99926    2    1    2    0    0  0.00000000000E+00 -0.71054273576E-14 -0.62513101670E+03  0.77185453012E+03  0.45273681938E+03 0.  0.
      99925    2    3    3    0    0 -0.61720503409E+02 -0.38875560984E+02 -0.25177415080E+03  0.37140030402E+03  0.26311068590E+03 0.  0.
         25    1    3    3    0    0  0.61720503409E+02  0.38875560984E+02 -0.37335686590E+03  0.40045422609E+03  0.12509000000E+03 0.  0.
         25    1    4    4    0    0 -0.71768265894E+02 -0.29310161618E+02 -0.13756501686E+03  0.20144828500E+03  0.12509000000E+03 0.  0.
         25    1    4    4    0    0  0.10047762485E+02 -0.95653993659E+01 -0.11420913394E+03  0.16995201903E+03  0.12509000000E+03 0.  0.
<mgrwt>
<rscale>  2 0.45273682E+03</rscale>
<asrwt>0</asrwt>
<pdfrwt beam="1">  1       21 0.10788493E-01 0.45273682E+03</pdfrwt>
<pdfrwt beam="2">  1       21 0.10271953E+00 0.45273682E+03</pdfrwt>
<totfact> 0.50039369E+04</totfact>
</mgrwt>
</event>
<event>
 7    0  0.4707675E-002  0.4568749E+03  0.7546771E-02  0.1025691E+00
         21   -1    0    0  502  501  0.00000000000E+00  0.00000000000E+00  0.96795039669E+02  0.96795039669E+02  0.00000000000E+00 0.  1.
         21   -1    0    0  501  502 -0.00000000000E+00 -0.00000000000E+00 -0.53911522641E+03  0.53911522641E+03  0.00000000000E+00 0.  1.
      99926    2    1    2    0    0  0.35527136788E-14  0.88817841970E-15 -0.44232018674E+03  0.63591026608E+03  0.45687494887E+03 0.  0.
      99925    2    3    3    0    0  0.29128554575E+02 -0.15217119771E+01 -0.43251221705E+03  0.50709065318E+03  0.26310325795E+03 0.  0.
         25    1    4    4    0    0  0.42285936617E+02 -0.30116299455E+02 -0.20963696495E+03  0.24958016167E+03  0.12509000000E+03 0.  0.
         25    1    4    4    0    0 -0.13157382042E+02  0.28594587477E+02 -0.22287525210E+03  0.25751049150E+03  0.12509000000E+03 0.  0.
         25    1    3    3    0    0 -0.29128554575E+02  0.15217119771E+01 -0.98079696934E+01  0.12881961290E+03  0.12509000000E+03 0.  0.
<mgrwt>
<rscale>  2 0.45687495E+03</rscale>
<asrwt>0</asrwt>
<pdfrwt beam="1">  1       21 0.14234565E-01 0.45687495E+03</pdfrwt>
<pdfrwt beam="2">  1       21 0.79281651E-01 0.45687495E+03</pdfrwt>
<totfact> 0.55691850E+04</totfact>
</mgrwt>
</event>
<event>
 7    0  0.4707675E-002  0.4571083E+03  0.7546771E-02  0.1025623E+00
         21   -1    0    0  502  501  0.00000000000E+00  0.00000000000E+00  0.15666775530E+04  0.15666775530E+04  0.00000000000E+00 0.  1.
         21   -1    0    0  501  502 -0.00000000000E+00 -0.00000000000E+00 -0.33342527740E+02  0.33342527740E+02  0.00000000000E+00 0.  1.
      99926    2    1    2    0    0  0.88817841970E-15  0.00000000000E+00  0.15333350253E+04  0.16000200808E+04  0.45710825751E+03 0.  0.
      99925    2    3    3    0    0  0.52569737711E+00  0.10911040549E+03  0.10917227961E+04  0.11282423513E+04  0.26299578480E+03 0.  0.
         25    1    4    4    0    0 -0.28402145958E+02  0.57904954336E+02  0.66354896917E+03  0.67830996471E+03  0.12509000000E+03 0.  0.
         25    1    4    4    0    0  0.28927843335E+02  0.51205451156E+02  0.42817382691E+03  0.44993238658E+03  0.12509000000E+03 0.  0.
         25    1    3    3    0    0 -0.52569737711E+00 -0.10911040549E+03  0.44161222922E+03  0.47177772949E+03  0.12509000000E+03 0.  0.
<mgrwt>
<rscale>  2 0.45710826E+03</rscale>
<asrwt>0</asrwt>
<pdfrwt beam="1">  1       21 0.23039371E+00 0.45710826E+03</pdfrwt>
<pdfrwt beam="2">  1       21 0.49033139E-02 0.45710826E+03</pdfrwt>
<totfact> 0.21082100E+04</totfact>
</mgrwt>
</event>
<event>
 7    0  0.4707675E-002  0.4141930E+03  0.7546771E-02  0.1038973E+00
         21   -1    0    0  502  501  0.00000000000E+00  0.00000000000E+00  0.22892995823E+03  0.22892995823E+03  0.00000000000E+00 0. -1.
         21   -1    0    0  501  502 -0.00000000000E+00 -0.00000000000E+00 -0.18734533734E+03  0.18734533734E+03  0.00000000000E+00 0. -1.
      99926    2    1    2    0    0 -0.71054273576E-14  0.00000000000E+00  0.41584620890E+02  0.41627529557E+03  0.41419299971E+03 0.  0.
      99925    2    3    3    0    0 -0.42351678577E+02  0.39915814850E+02 -0.82158358853E+01  0.26959697219E+03  0.26311231538E+03 0.  0.
         25    1    4    4    0    0 -0.34178609771E+02  0.10293940358E+02  0.33272937053E+02  0.13427113992E+03  0.12509000000E+03 0.  0.
         25    1    3    3    0    0  0.42351678577E+02 -0.39915814850E+02  0.49800456776E+02  0.14667832338E+03  0.12509000000E+03 0.  0.
         25    1    4    4    0    0 -0.81730688052E+01  0.29621874492E+02 -0.41488772938E+02  0.13532583228E+03  0.12509000000E+03 0.  0.
<mgrwt>
<rscale>  2 0.41419300E+03</rscale>
<asrwt>0</asrwt>
<pdfrwt beam="1">  1       21 0.33666170E-01 0.41419300E+03</pdfrwt>
<pdfrwt beam="2">  1       21 0.27550785E-01 0.41419300E+03</pdfrwt>
<totfact> 0.10039916E+05</totfact>
</mgrwt>
</event>
<event>
 7    0  0.4707675E-002  0.4620121E+03  0.7546771E-02  0.1024199E+00
         21   -1    0    0  502  501  0.00000000000E+00  0.00000000000E+00  0.24376918857E+03  0.24376918857E+03  0.00000000000E+00 0. -1.
         21   -1    0    0  501  502 -0.00000000000E+00 -0.00000000000E+00 -0.21891116734E+03  0.21891116734E+03  0.00000000000E+00 0. -1.
      99926    2    1    2    0    0  0.14210854715E-13  0.17763568394E-14  0.24858021233E+02  0.46268035591E+03  0.46201211080E+03 0.  0.
      99925    2    3    3    0    0 -0.11361947684E+03 -0.14826256586E+02  0.49831697097E+02  0.29121491920E+03  0.26304700668E+03 0.  0.
         25    1    4    4    0    0 -0.54136882508E+02 -0.18493069905E+02 -0.14755633591E+02  0.13834027796E+03  0.12509000000E+03 0.  0.
         25    1    4    4    0    0 -0.59482594336E+02  0.36668133189E+01  0.64587330687E+02  0.15287464124E+03  0.12509000000E+03 0.  0.
         25    1    3    3    0    0  0.11361947684E+03  0.14826256586E+02 -0.24973675863E+02  0.17146543672E+03  0.12509000000E+03 0.  0.
<mgrwt>
<rscale>  2 0.46201211E+03</rscale>
<asrwt>0</asrwt>
<pdfrwt beam="1">  1       21 0.35848410E-01 0.46201211E+03</pdfrwt>
<pdfrwt beam="2">  1       21 0.32192818E-01 0.46201211E+03</pdfrwt>
<totfact> 0.64312571E+04</totfact>
</mgrwt>
</event>
<event>
 7    0  0.4707675E-002  0.4558563E+03  0.7546771E-02  0.1025990E+00
         21   -1    0    0  502  501  0.00000000000E+00  0.00000000000E+00  0.26211106566E+03  0.26211106566E+03  0.00000000000E+00 0. -1.
         21   -1    0    0  501  502 -0.00000000000E+00 -0.00000000000E+00 -0.19820319565E+03  0.19820319565E+03  0.00000000000E+00 0. -1.
      99926    2    1    2    0    0 -0.35527136788E-14  0.00000000000E+00  0.63907870002E+02  0.46031426131E+03  0.45585634066E+03 0.  0.
      99925    2    3    3    0    0  0.11352048396E+02 -0.20593134889E+02 -0.72541480184E+02  0.27371608481E+03  0.26287883621E+03 0.  0.
         25    1    4    4    0    0  0.38290058583E+02  0.93225701248E+01 -0.22312217513E+02  0.13303526619E+03  0.12509000000E+03 0.  0.
         25    1    4    4    0    0 -0.26938010187E+02 -0.29915705014E+02 -0.50229262671E+02  0.14068081862E+03  0.12509000000E+03 0.  0.
         25    1    3    3    0    0 -0.11352048396E+02  0.20593134889E+02  0.13644935019E+03  0.18659817650E+03  0.12509000000E+03 0.  0.
<mgrwt>
<rscale>  2 0.45585634E+03</rscale>
<asrwt>0</asrwt>
<pdfrwt beam="1">  1       21 0.38545745E-01 0.45585634E+03</pdfrwt>
<pdfrwt beam="2">  1       21 0.29147529E-01 0.45585634E+03</pdfrwt>
<totfact> 0.67694205E+04</totfact>
</mgrwt>
</event>
<event>
 7    0  0.4707675E-002  0.4985961E+03  0.7546771E-02  0.1014146E+00
         21   -1    0    0  502  501  0.00000000000E+00  0.00000000000E+00  0.15298996142E+04  0.15298996142E+04  0.00000000000E+00 0.  1.
         21   -1    0    0  501  502 -0.00000000000E+00 -0.00000000000E+00 -0.40623264460E+02  0.40623264460E+02  0.00000000000E+00 0.  1.
      99926    2    1    2    0    0 -0.71054273576E-14  0.00000000000E+00  0.14892763498E+04  0.15705228787E+04  0.49859609556E+03 0.  0.
      99925    2    3    3    0    0  0.59215849899E+02  0.13456021768E+03  0.10038255969E+04  0.10481026354E+04  0.26313558525E+03 0.  0.
         25    1    4    4    0    0  0.10978013392E+02  0.29995249646E+02  0.37039834021E+03  0.39225332415E+03  0.12509000000E+03 0.  0.
         25    1    4    4    0    0  0.48237836508E+02  0.10456496804E+03  0.63342725671E+03  0.65584931124E+03  0.12509000000E+03 0.  0.
         25    1    3    3    0    0 -0.59215849899E+02 -0.13456021768E+03  0.48545075285E+03  0.52242024329E+03  0.12509000000E+03 0.  0.
<mgrwt>
<rscale>  2 0.49859610E+03</rscale>
<asrwt>0</asrwt>
<pdfrwt beam="1">  1       21 0.22498520E+00 0.49859610E+03</pdfrwt>
<pdfrwt beam="2">  1       21 0.59740105E-02 0.49859610E+03</pdfrwt>
<totfact> 0.15972490E+04</totfact>
</mgrwt>
</event>
<event>
 7    0  0.4707675E-002  0.4510073E+03  0.7546771E-02  0.1027422E+00
         21   -1    0    0  502  501  0.00000000000E+00  0.00000000000E+00  0.37827140880E+03  0.37827140880E+03  0.00000000000E+00 0.  1.
         21   -1    0    0  501  502 -0.00000000000E+00 -0.00000000000E+00 -0.13443231079E+03  0.13443231079E+03  0.00000000000E+00 0.  1.
      99926    2    1    2    0    0  0.71054273576E-14  0.35527136788E-14  0.24383909800E+03  0.51270371959E+03  0.45100731521E+03 0.  0.
      99925    2    3    3    0    0 -0.39623245467E+02 -0.28080382666E+02  0.26531551062E+03  0.37680944499E+03  0.26312454881E+03 0.  0.
         25    1    4    4    0    0  0.27342066668E+01  0.50260692113E+01  0.16763566506E+03  0.20924139542E+03  0.12509000000E+03 0.  0.
         25    1    3    3    0    0  0.39623245467E+02  0.28080382666E+02 -0.21476412614E+02  0.13589427461E+03  0.12509000000E+03 0.  0.
         25    1    4    4    0    0 -0.42357452133E+02 -0.33106451877E+02  0.97679845560E+02  0.16756804957E+03  0.12509000000E+03 0.  0.
<mgrwt>
<rscale>  2 0.45100732E+03</rscale>
<asrwt>0</asrwt>
<pdfrwt beam="1">  1       21 0.55628148E-01 0.45100732E+03</pdfrwt>
<pdfrwt beam="2">  1       21 0.19769458E-01 0.45100732E+03</pdfrwt>
<totfact> 0.66468117E+04</totfact>
</mgrwt>
</event>
<event>
 7    0  0.4707675E-002  0.4578846E+03  0.7546771E-02  0.1025397E+00
         21   -1    0    0  502  501  0.00000000000E+00  0.00000000000E+00  0.49929373238E+03  0.49929373238E+03  0.00000000000E+00 0. -1.
         21   -1    0    0  501  502 -0.00000000000E+00 -0.00000000000E+00 -0.10497745264E+03  0.10497745264E+03  0.00000000000E+00 0. -1.
      99926    2    1    2    0    0  0.00000000000E+00  0.17763568394E-14  0.39431627974E+03  0.60427118502E+03  0.45788463239E+03 0.  0.
      99925    2    3    3    0    0  0.80498207000E+02  0.14679611155E+02  0.35570129162E+03  0.44988829179E+03  0.26302207877E+03 0.  0.
         25    1    3    3    0    0 -0.80498207000E+02 -0.14679611155E+02  0.38614988126E+02  0.15438289323E+03  0.12509000000E+03 0.  0.
         25    1    4    4    0    0  0.53784832446E+02  0.24532728816E+02  0.24054369746E+03  0.27749493954E+03  0.12509000000E+03 0.  0.
         25    1    4    4    0    0  0.26713374554E+02 -0.98531176614E+01  0.11515759416E+03  0.17239335225E+03  0.12509000000E+03 0.  0.
<mgrwt>
<rscale>  2 0.45788463E+03</rscale>
<asrwt>0</asrwt>
<pdfrwt beam="1">  1       21 0.73425548E-01 0.45788463E+03</pdfrwt>
<pdfrwt beam="2">  1       21 0.15437861E-01 0.45788463E+03</pdfrwt>
<totfact> 0.57103589E+04</totfact>
</mgrwt>
</event>
<event>
 7    0  0.4707675E-002  0.4541421E+03  0.7546771E-02  0.1026494E+00
         21   -1    0    0  502  501  0.00000000000E+00  0.00000000000E+00  0.17909842569E+03  0.17909842569E+03  0.00000000000E+00 0. -1.
         21   -1    0    0  501  502 -0.00000000000E+00 -0.00000000000E+00 -0.28789341857E+03  0.28789341857E+03  0.00000000000E+00 0. -1.
      99926    2    1    2    0    0  0.00000000000E+00  0.00000000000E+00 -0.10879499287E+03  0.46699184426E+03  0.45414208364E+03 0.  0.
      99925    2    3    3    0    0 -0.25559038202E+02  0.71327325712E+02 -0.15376470560E+03  0.31398650125E+03  0.26306479516E+03 0.  0.
         25    1    3    3    0    0  0.25559038202E+02 -0.71327325712E+02  0.44969712721E+02  0.15300534301E+03  0.12509000000E+03 0.  0.
         25    1    4    4    0    0  0.27068827782E+01  0.22505840202E+02 -0.33366551956E+02  0.13143315772E+03  0.12509000000E+03 0.  0.
         25    1    4    4    0    0 -0.28265920980E+02  0.48821485510E+02 -0.12039815364E+03  0.18255334354E+03  0.12509000000E+03 0.  0.
<mgrwt>
<rscale>  2 0.45414208E+03</rscale>
<asrwt>0</asrwt>
<pdfrwt beam="1">  1       21 0.26338004E-01 0.45414208E+03</pdfrwt>
<pdfrwt beam="2">  1       21 0.42337267E-01 0.45414208E+03</pdfrwt>
<totfact> 0.68122667E+04</totfact>
</mgrwt>
</event>
<event>
 7    0  0.4707675E-002  0.4521808E+03  0.7546771E-02  0.1027074E+00
         21   -1    0    0  502  501  0.00000000000E+00  0.00000000000E+00  0.19332325492E+03  0.19332325492E+03  0.00000000000E+00 0. -1.
         21   -1    0    0  501  502 -0.00000000000E+00 -0.00000000000E+00 -0.26441141891E+03  0.26441141891E+03  0.00000000000E+00 0. -1.
      99926    2    1    2    0    0  0.00000000000E+00  0.00000000000E+00 -0.71088163988E+02  0.45773467384E+03  0.45218083172E+03 0.  0.
      99925    2    3    3    0    0  0.83493949406E+02  0.18342966860E+02  0.26023681707E+02  0.27777378171E+03  0.26300824659E+03 0.  0.
         25    1    3    3    0    0 -0.83493949406E+02 -0.18342966860E+02 -0.97111845695E+02  0.17996089213E+03  0.12509000000E+03 0.  0.
         25    1    4    4    0    0  0.70697172989E+02  0.35402890730E+02  0.29212917195E+02  0.15083884636E+03  0.12509000000E+03 0.  0.
         25    1    4    4    0    0  0.12796776417E+02 -0.17059923870E+02 -0.31892354876E+01  0.12693493535E+03  0.12509000000E+03 0.  0.
<mgrwt>
<rscale>  2 0.45218083E+03</rscale>
<asrwt>0</asrwt>
<pdfrwt beam="1">  1       21 0.28429891E-01 0.45218083E+03</pdfrwt>
<pdfrwt beam="2">  1       21 0.38884032E-01 0.45218083E+03</pdfrwt>
<totfact> 0.69904347E+04</totfact>
</mgrwt>
</event>
<event>
 7    0  0.4707675E-002  0.4495383E+03  0.7546771E-02  0.1027860E+00
         21   -1    0    0  502  501  0.00000000000E+00  0.00000000000E+00  0.39524276917E+02  0.39524276917E+02  0.00000000000E+00 0. -1.
         21   -1    0    0  501  502 -0.00000000000E+00 -0.00000000000E+00 -0.12782314246E+04  0.12782314246E+04  0.00000000000E+00 0. -1.
      99926    2    1    2    0    0  0.00000000000E+00  0.00000000000E+00 -0.12387071476E+04  0.13177557015E+04  0.44953830888E+03 0.  0.
      99925    2    3    3    0    0 -0.63164294714E+02 -0.32988351607E+02 -0.10210994998E+04  0.10568370246E+04  0.26302537615E+03 0.  0.
         25    1    4    4    0    0 -0.52863444376E+02 -0.14387658210E+02 -0.66312733203E+03  0.67704277194E+03  0.12509000000E+03 0.  0.
         25    1    3    3    0    0  0.63164294714E+02  0.32988351607E+02 -0.21760764782E+03  0.26091867690E+03  0.12509000000E+03 0.  0.
         25    1    4    4    0    0 -0.10300850338E+02 -0.18600693397E+02 -0.35797216780E+03  0.37979425263E+03  0.12509000000E+03 0.  0.
<mgrwt>
<rscale>  2 0.44953831E+03</rscale>
<asrwt>0</asrwt>
<pdfrwt beam="1">  1       21 0.58123945E-02 0.44953831E+03</pdfrwt>
<pdfrwt beam="2">  1       21 0.18797518E+00 0.44953831E+03</pdfrwt>
<totfact> 0.29851188E+04</totfact>
</mgrwt>
</event>
<event>
 7    0  0.4707675E-002  0.4552391E+03  0.7546771E-02  0.1026171E+00
         21   -1    0    0  502  501  0.00000000000E+00  0.00000000000E+00  0.15134722314E+04  0.15134722314E+04  0.00000000000E+00 0. -1.
         21   -1    0    0  501  502 -0.00000000000E+00 -0.00000000000E+00 -0.34232975531E+02  0.34232975531E+02  0.00000000000E+00 0. -1.
      99926    2    1    2    0    0  0.14210854715E-13 -0.71054273576E-14  0.14792392559E+04  0.15477052070E+04  0.45523909263E+03 0.  0.
      99925    2    3    3    0    0 -0.98486689540E+02  0.55808004052E+02  0.95236890756E+03  0.99448370214E+03  0.26301546801E+03 0.  0.
         25    1    4    4    0    0 -0.11180380206E+02  0.36070279602E+02  0.49431793189E+03  0.51129618799E+03  0.12509000000E+03 0.  0.
         25    1    3    3    0    0  0.98486689540E+02 -0.55808004052E+02  0.52687034836E+03  0.55322150483E+03  0.12509000000E+03 0.  0.
         25    1    4    4    0    0 -0.87306309334E+02  0.19737724450E+02  0.45805097567E+03  0.48318751415E+03  0.12509000000E+03 0.  0.
<mgrwt>
<rscale>  2 0.45523909E+03</rscale>
<asrwt>0</asrwt>
<pdfrwt beam="1">  1       21 0.22256940E+00 0.45523909E+03</pdfrwt>
<pdfrwt beam="2">  1       21 0.50342621E-02 0.45523909E+03</pdfrwt>
<totfact> 0.22591840E+04</totfact>
</mgrwt>
</event>
<event>
 7    0  0.4707675E-002  0.4358359E+03  0.7546771E-02  0.1032032E+00
         21   -1    0    0  502  501  0.00000000000E+00  0.00000000000E+00  0.13166356361E+03  0.13166356361E+03  0.00000000000E+00 0.  1.
         21   -1    0    0  501  502 -0.00000000000E+00 -0.00000000000E+00 -0.36067856537E+03  0.36067856537E+03  0.00000000000E+00 0.  1.
      99926    2    1    2    0    0  0.00000000000E+00 -0.14210854715E-13 -0.22901500176E+03  0.49234212898E+03  0.43583586468E+03 0.  0.
      99925    2    3    3    0    0  0.63254816338E+02  0.69462564182E+02 -0.14236921006E+03  0.31350918758E+03  0.26304524156E+03 0.  0.
         25    1    4    4    0    0  0.17488047764E+02  0.18194869625E+02 -0.10683383741E+03  0.16642674668E+03  0.12509000000E+03 0.  0.
         25    1    4    4    0    0  0.45766768575E+02  0.51267694557E+02 -0.35535372659E+02  0.14708244090E+03  0.12509000000E+03 0.  0.
         25    1    3    3    0    0 -0.63254816338E+02 -0.69462564182E+02 -0.86645791693E+02  0.17883294140E+03  0.12509000000E+03 0.  0.
<mgrwt>
<rscale>  2 0.43583586E+03</rscale>
<asrwt>0</asrwt>
<pdfrwt beam="1">  1       21 0.19362289E-01 0.43583586E+03</pdfrwt>
<pdfrwt beam="2">  1       21 0.53040965E-01 0.43583586E+03</pdfrwt>
<totfact> 0.76853990E+04</totfact>
</mgrwt>
</event>
<event>
 7    0  0.4707675E-002  0.4538629E+03  0.7546771E-02  0.1026576E+00
         21   -1    0    0  502  501  0.00000000000E+00  0.00000000000E+00  0.13359276781E+03  0.13359276781E+03  0.00000000000E+00 0. -1.
         21   -1    0    0  501  502 -0.00000000000E+00 -0.00000000000E+00 -0.38548412667E+03  0.38548412667E+03  0.00000000000E+00 0. -1.
      99926    2    1    2    0    0  0.00000000000E+00  0.00000000000E+00 -0.25189135886E+03  0.51907689448E+03  0.45386293715E+03 0.  0.
      99925    2    3    3    0    0 -0.77723125569E+02 -0.27981487653E+02 -0.72606468173E+02  0.28537959448E+03  0.26333622202E+03 0.  0.
         25    1    4    4    0    0 -0.14371513217E+02 -0.26828058518E+02 -0.28644227430E+01  0.12877110753E+03  0.12509000000E+03 0.  0.
         25    1    3    3    0    0  0.77723125569E+02  0.27981487653E+02 -0.17928489068E+03  0.23369730000E+03  0.12509000000E+03 0.  0.
         25    1    4    4    0    0 -0.63351612352E+02 -0.11534291348E+01 -0.69742045430E+02  0.15660848696E+03  0.12509000000E+03 0.  0.
<mgrwt>
<rscale>  2 0.45386294E+03</rscale>
<asrwt>0</asrwt>
<pdfrwt beam="1">  1       21 0.19645996E-01 0.45386294E+03</pdfrwt>
<pdfrwt beam="2">  1       21 0.56688841E-01 0.45386294E+03</pdfrwt>
<totfact> 0.64530389E+04</totfact>
</mgrwt>
</event>
<event>
 7    0  0.4707675E-002  0.4490791E+03  0.7546771E-02  0.1027997E+00
         21   -1    0    0  502  501  0.00000000000E+00  0.00000000000E+00  0.55436124144E+03  0.55436124144E+03  0.00000000000E+00 0. -1.
         21   -1    0    0  501  502 -0.00000000000E+00 -0.00000000000E+00 -0.90947932648E+02  0.90947932648E+02  0.00000000000E+00 0. -1.
      99926    2    1    2    0    0  0.71054273576E-14  0.14210854715E-13  0.46341330879E+03  0.64530917409E+03  0.44907909704E+03 0.  0.
      99925    2    3    3    0    0  0.37309857270E+02  0.93742726801E+02  0.34599043785E+03  0.44627308942E+03  0.26319301469E+03 0.  0.
         25    1    4    4    0    0 -0.42678906267E+01  0.39351851031E+02  0.21915808911E+03  0.25543014543E+03  0.12509000000E+03 0.  0.
         25    1    4    4    0    0  0.41577747896E+02  0.54390875770E+02  0.12683234874E+03  0.19084294400E+03  0.12509000000E+03 0.  0.
         25    1    3    3    0    0 -0.37309857270E+02 -0.93742726801E+02  0.11742287094E+03  0.19903608466E+03  0.12509000000E+03 0.  0.
<mgrwt>
<rscale>  2 0.44907910E+03</rscale>
<asrwt>0</asrwt>
<pdfrwt beam="1">  1       21 0.81523711E-01 0.44907910E+03</pdfrwt>
<pdfrwt beam="2">  1       21 0.13374696E-01 0.44907910E+03</pdfrwt>
<totfact> 0.58665415E+04</totfact>
</mgrwt>
</event>
<event>
 7    0  0.4707675E-002  0.4505034E+03  0.7546771E-02  0.1027572E+00
         21   -1    0    0  502  501  0.00000000000E+00  0.00000000000E+00  0.11782284463E+04  0.11782284463E+04  0.00000000000E+00 0.  1.
         21   -1    0    0  501  502 -0.00000000000E+00 -0.00000000000E+00 -0.43063231021E+02  0.43063231021E+02  0.00000000000E+00 0.  1.
      99926    2    1    2    0    0  0.00000000000E+00  0.00000000000E+00  0.11351652153E+04  0.12212916773E+04  0.45050337969E+03 0.  0.
      99925    2    3    3    0    0  0.61175816495E+02 -0.89503710568E+02  0.68953751106E+03  0.74591292980E+03  0.26300327935E+03 0.  0.
         25    1    4    4    0    0  0.27475273382E+02 -0.86884513468E+02  0.36392335219E+03  0.39546368190E+03  0.12509000000E+03 0.  0.
         25    1    3    3    0    0 -0.61175816495E+02  0.89503710568E+02  0.44562770423E+03  0.47537874753E+03  0.12509000000E+03 0.  0.
         25    1    4    4    0    0  0.33700543113E+02 -0.26191971007E+01  0.32561415887E+03  0.35044924790E+03  0.12509000000E+03 0.  0.
<mgrwt>
<rscale>  2 0.45050338E+03</rscale>
<asrwt>0</asrwt>
<pdfrwt beam="1">  1       21 0.17326887E+00 0.45050338E+03</pdfrwt>
<pdfrwt beam="2">  1       21 0.63328289E-02 0.45050338E+03</pdfrwt>
<totfact> 0.32615634E+04</totfact>
</mgrwt>
</event>
<event>
 7    0  0.4707675E-002  0.4616356E+03  0.7546771E-02  0.1024308E+00
         21   -1    0    0  502  501  0.00000000000E+00  0.00000000000E+00  0.11611372167E+03  0.11611372167E+03  0.00000000000E+00 0.  1.
         21   -1    0    0  501  502 -0.00000000000E+00 -0.00000000000E+00 -0.45883341715E+03  0.45883341715E+03  0.00000000000E+00 0.  1.
      99926    2    1    2    0    0  0.00000000000E+00  0.00000000000E+00 -0.34271969548E+03  0.57494713882E+03  0.46163559521E+03 0.  0.
      99925    2    3    3    0    0  0.10291408057E+03 -0.47211182976E+02 -0.26096998681E+03  0.38746186808E+03  0.26306113628E+03 0.  0.
         25    1    4    4    0    0  0.54757546156E+02  0.16214099860E+02 -0.13807246423E+03  0.19486610627E+03  0.12509000000E+03 0.  0.
         25    1    4    4    0    0  0.48156534414E+02 -0.63425282836E+02 -0.12289752258E+03  0.19259576181E+03  0.12509000000E+03 0.  0.
         25    1    3    3    0    0 -0.10291408057E+03  0.47211182976E+02 -0.81749708667E+02  0.18748527074E+03  0.12509000000E+03 0.  0.
<mgrwt>
<rscale>  2 0.46163560E+03</rscale>
<asrwt>0</asrwt>
<pdfrwt beam="1">  1       21 0.17075548E-01 0.46163560E+03</pdfrwt>
<pdfrwt beam="2">  1       21 0.67475502E-01 0.46163560E+03</pdfrwt>
<totfact> 0.57187405E+04</totfact>
</mgrwt>
</event>
<event>
 7    0  0.4707675E-002  0.4448593E+03  0.7546771E-02  0.1029266E+00
         21   -1    0    0  502  501  0.00000000000E+00  0.00000000000E+00  0.10783210240E+04  0.10783210240E+04  0.00000000000E+00 0.  1.
         21   -1    0    0  501  502 -0.00000000000E+00 -0.00000000000E+00 -0.45881461014E+02  0.45881461014E+02  0.00000000000E+00 0.  1.
      99926    2    1    2    0    0  0.00000000000E+00  0.71054273576E-14  0.10324395630E+04  0.11242024850E+04  0.44485927673E+03 0.  0.
      99925    2    3    3    0    0 -0.94087304531E+02  0.46036761214E+02  0.65834843381E+03  0.71608058498E+03  0.26148984613E+03 0.  0.
         25    1    4    4    0    0 -0.67718516601E+02  0.35077911950E+02  0.27145864529E+03  0.30846970937E+03  0.12509000000E+03 0.  0.
         25    1    4    4    0    0 -0.26368787930E+02  0.10958849263E+02  0.38688978852E+03  0.40761087561E+03  0.12509000000E+03 0.  0.
         25    1    3    3    0    0  0.94087304531E+02 -0.46036761214E+02  0.37409112915E+03  0.40812190001E+03  0.12509000000E+03 0.  0.
<mgrwt>
<rscale>  2 0.44485928E+03</rscale>
<asrwt>0</asrwt>
<pdfrwt beam="1">  1       21 0.15857661E+00 0.44485928E+03</pdfrwt>
<pdfrwt beam="2">  1       21 0.67472743E-02 0.44485928E+03</pdfrwt>
<totfact> 0.37536240E+04</totfact>
</mgrwt>
</event>
<event>
 7    0  0.4707675E-002  0.4589185E+03  0.7546771E-02  0.1025095E+00
         21   -1    0    0  502  501  0.00000000000E+00  0.00000000000E+00  0.33783896565E+03  0.33783896565E+03  0.00000000000E+00 0.  1.
         21   -1    0    0  501  502 -0.00000000000E+00 -0.00000000000E+00 -0.15584803021E+03  0.15584803021E+03  0.00000000000E+00 0.  1.
      99926    2    1    2    0    0 -0.35527136788E-14  0.00000000000E+00  0.18199093544E+03  0.49368699585E+03  0.45891845604E+03 0.  0.
      99925    2    3    3    0    0 -0.19392649498E+02 -0.10992024632E+03  0.76605830323E+02  0.29566663355E+03  0.26285313304E+03 0.  0.
         25    1    3    3    0    0  0.19392649498E+02  0.10992024632E+03  0.10538510512E+03  0.19802036230E+03  0.12509000000E+03 0.  0.
         25    1    4    4    0    0  0.21913338590E+02 -0.54319110108E+02  0.11641103564E+02  0.13861379269E+03  0.12509000000E+03 0.  0.
         25    1    4    4    0    0 -0.41305988088E+02 -0.55601136215E+02  0.64964726759E+02  0.15705284086E+03  0.12509000000E+03 0.  0.
<mgrwt>
<rscale>  2 0.45891846E+03</rscale>
<asrwt>0</asrwt>
<pdfrwt beam="1">  1       21 0.49682201E-01 0.45891846E+03</pdfrwt>
<pdfrwt beam="2">  1       21 0.22918828E-01 0.45891846E+03</pdfrwt>
<totfact> 0.63711405E+04</totfact>
</mgrwt>
</event>
<event>
 6    0  0.4707675E-002  0.4408559E+03  0.7546771E-02  0.1030485E+00
         21   -1    0    0  502  501  0.00000000000E+00  0.00000000000E+00  0.34501692584E+02  0.34501692584E+02  0.00000000000E+00 0. -1.
         21   -1    0    0  501  502 -0.00000000000E+00 -0.00000000000E+00 -0.14082927825E+04  0.14082927825E+04  0.00000000000E+00 0. -1.
      99926    2    1    2    0    0 -0.88817841970E-15  0.00000000000E+00 -0.13737910899E+04  0.14427944751E+04  0.44085591591E+03 0.  0.
         25    1    3    3    0    0  0.12624997204E+02  0.46490188130E+02 -0.30300895739E+03  0.33133467145E+03  0.12509000000E+03 0.  0.
         25    1    3    3    0    0 -0.18035625515E+02  0.53944800589E+02 -0.49926999209E+03  0.51783526183E+03  0.12509000000E+03 0.  0.
         25    1    3    3    0    0  0.54106283117E+01 -0.10043498872E+03 -0.57151214042E+03  0.59362454178E+03  0.12509000000E+03 0.  0.
<mgrwt>
<rscale>  2 0.44085592E+03</rscale>
<asrwt>0</asrwt>
<pdfrwt beam="1">  1       21 0.50737794E-02 0.44085592E+03</pdfrwt>
<pdfrwt beam="2">  1       21 0.20710183E+00 0.44085592E+03</pdfrwt>
<totfact> 0.28186326E+04</totfact>
</mgrwt>
</event>
<event>
 7    0  0.4707675E-002  0.4459879E+03  0.7546771E-02  0.1028925E+00
         21   -1    0    0  502  501  0.00000000000E+00  0.00000000000E+00  0.46261204250E+03  0.46261204250E+03  0.00000000000E+00 0. -1.
         21   -1    0    0  501  502 -0.00000000000E+00 -0.00000000000E+00 -0.10749029235E+03  0.10749029235E+03  0.00000000000E+00 0. -1.
      99926    2    1    2    0    0  0.00000000000E+00  0.00000000000E+00  0.35512175016E+03  0.57010233485E+03  0.44598790877E+03 0.  0.
      99925    2    3    3    0    0  0.69331092489E+02  0.71873455330E+02  0.26407182004E+03  0.38595513329E+03  0.26316315245E+03 0.  0.
         25    1    3    3    0    0 -0.69331092489E+02 -0.71873455330E+02  0.91049930116E+02  0.18414720156E+03  0.12509000000E+03 0.  0.
         25    1    4    4    0    0  0.36429540514E+02 -0.56813827925E+01  0.13057545655E+03  0.18454497415E+03  0.12509000000E+03 0.  0.
         25    1    4    4    0    0  0.32901551976E+02  0.77554838123E+02  0.13349636349E+03  0.20141015914E+03  0.12509000000E+03 0.  0.
<mgrwt>
<rscale>  2 0.44598791E+03</rscale>
<asrwt>0</asrwt>
<pdfrwt beam="1">  1       21 0.68031182E-01 0.44598791E+03</pdfrwt>
<pdfrwt beam="2">  1       21 0.15807396E-01 0.44598791E+03</pdfrwt>
<totfact> 0.65072160E+04</totfact>
</mgrwt>
</event>
<event>
 7    0  0.4707675E-002  0.4559076E+03  0.7546771E-02  0.1025975E+00
         21   -1    0    0  502  501  0.00000000000E+00  0.00000000000E+00  0.63282367141E+02  0.63282367141E+02  0.00000000000E+00 0.  1.
         21   -1    0    0  501  502 -0.00000000000E+00 -0.00000000000E+00 -0.82112817769E+03  0.82112817769E+03  0.00000000000E+00 0.  1.
      99926    2    1    2    0    0  0.14210854715E-13  0.00000000000E+00 -0.75784581054E+03  0.88441054483E+03  0.45590759946E+03 0.  0.
      99925    2    3    3    0    0 -0.75173940565E+02 -0.47314252925E+02 -0.33762282954E+03  0.43705763969E+03  0.26294570830E+03 0.  0.
         25    1    4    4    0    0 -0.56801573643E+02 -0.60410531903E+02 -0.17172436718E+03  0.22806274908E+03  0.12509000000E+03 0.  0.
         25    1    4    4    0    0 -0.18372366922E+02  0.13096278978E+02 -0.16589846236E+03  0.20899489062E+03  0.12509000000E+03 0.  0.
         25    1    3    3    0    0  0.75173940565E+02  0.47314252925E+02 -0.42022298100E+03  0.44735290513E+03  0.12509000000E+03 0.  0.
<mgrwt>
<rscale>  2 0.45590760E+03</rscale>
<asrwt>0</asrwt>
<pdfrwt beam="1">  1       21 0.93062304E-02 0.45590760E+03</pdfrwt>
<pdfrwt beam="2">  1       21 0.12075414E+00 0.45590760E+03</pdfrwt>
<totfact> 0.43603853E+04</totfact>
</mgrwt>
</event>
<event>
 7    0  0.4707675E-002  0.4535670E+03  0.7546771E-02  0.1026664E+00
         21   -1    0    0  502  501  0.00000000000E+00  0.00000000000E+00  0.36463306231E+02  0.36463306231E+02  0.00000000000E+00 0. -1.
         21   -1    0    0  501  502 -0.00000000000E+00 -0.00000000000E+00 -0.14104797251E+04  0.14104797251E+04  0.00000000000E+00 0. -1.
      99926    2    1    2    0    0  0.00000000000E+00  0.00000000000E+00 -0.13740164189E+04  0.14469430314E+04  0.45356699240E+03 0.  0.
      99925    2    3    3    0    0 -0.89044731686E+02 -0.64903188772E+02 -0.80571551888E+03  0.85469746640E+03  0.26303777970E+03 0.  0.
         25    1    4    4    0    0 -0.45510712820E+02 -0.66906183927E+02 -0.35701508762E+03  0.38685261188E+03  0.12509000000E+03 0.  0.
         25    1    3    3    0    0  0.89044731686E+02  0.64903188772E+02 -0.56830090001E+03  0.59224556495E+03  0.12509000000E+03 0.  0.
         25    1    4    4    0    0 -0.43534018866E+02  0.20029951556E+01 -0.44870043126E+03  0.46784485452E+03  0.12509000000E+03 0.  0.
<mgrwt>
<rscale>  2 0.45356699E+03</rscale>
<asrwt>0</asrwt>
<pdfrwt beam="1">  1       21 0.53622505E-02 0.45356699E+03</pdfrwt>
<pdfrwt beam="2">  1       21 0.20742350E+00 0.45356699E+03</pdfrwt>
<totfact> 0.25388959E+04</totfact>
</mgrwt>
</event>
<event>
 7    0  0.4707675E-002  0.4704140E+03  0.7546771E-02  0.1021803E+00
         21   -1    0    0  502  501  0.00000000000E+00  0.00000000000E+00  0.17246095512E+03  0.17246095512E+03  0.00000000000E+00 0. -1.
         21   -1    0    0  501  502 -0.00000000000E+00 -0.00000000000E+00 -0.32078174081E+03  0.32078174081E+03  0.00000000000E+00 0. -1.
      99926    2    1    2    0    0  0.00000000000E+00  0.00000000000E+00 -0.14832078569E+03  0.49324269593E+03  0.47041396835E+03 0.  0.
      99925    2    3    3    0    0 -0.10760624186E+03 -0.37794442860E+02 -0.15075366671E+03  0.32394724351E+03  0.26307342199E+03 0.  0.
         25    1    4    4    0    0 -0.53872752751E+02 -0.52647447091E+02 -0.10386996503E+03  0.17919404262E+03  0.12509000000E+03 0.  0.
         25    1    4    4    0    0 -0.53733489113E+02  0.14853004232E+02 -0.46883701681E+02  0.14475320090E+03  0.12509000000E+03 0.  0.
         25    1    3    3    0    0  0.10760624186E+03  0.37794442860E+02  0.24328810211E+01  0.16929545242E+03  0.12509000000E+03 0.  0.
<mgrwt>
<rscale>  2 0.47041397E+03</rscale>
<asrwt>0</asrwt>
<pdfrwt beam="1">  1       21 0.25361905E-01 0.47041397E+03</pdfrwt>
<pdfrwt beam="2">  1       21 0.47173785E-01 0.47041397E+03</pdfrwt>
<totfact> 0.58283452E+04</totfact>
</mgrwt>
</event>
<event>
 7    0  0.4707675E-002  0.4535165E+03  0.7546771E-02  0.1026679E+00
         21   -1    0    0  502  501  0.00000000000E+00  0.00000000000E+00  0.12126451454E+03  0.12126451454E+03  0.00000000000E+00 0.  1.
         21   -1    0    0  501  502 -0.00000000000E+00 -0.00000000000E+00 -0.42402595666E+03  0.42402595666E+03  0.00000000000E+00 0.  1.
      99926    2    1    2    0    0  0.00000000000E+00  0.71054273576E-14 -0.30276144212E+03  0.54529047120E+03  0.45351649049E+03 0.  0.
      99925    2    3    3    0    0  0.35745630456E+02 -0.62773892410E+02 -0.29336976503E+03  0.40053542513E+03  0.26295341048E+03 0.  0.
         25    1    4    4    0    0  0.32901282805E+02  0.22933520106E+01 -0.16640097143E+03  0.21077131035E+03  0.12509000000E+03 0.  0.
         25    1    3    3    0    0 -0.35745630456E+02  0.62773892410E+02 -0.93916770933E+01  0.14475504607E+03  0.12509000000E+03 0.  0.
         25    1    4    4    0    0  0.28443476512E+01 -0.65067244421E+02 -0.12696879360E+03  0.18976411478E+03  0.12509000000E+03 0.  0.
<mgrwt>
<rscale>  2 0.45351649E+03</rscale>
<asrwt>0</asrwt>
<pdfrwt beam="1">  1       21 0.17833017E-01 0.45351649E+03</pdfrwt>
<pdfrwt beam="2">  1       21 0.62356757E-01 0.45351649E+03</pdfrwt>
<totfact> 0.62914086E+04</totfact>
</mgrwt>
</event>
<event>
 7    0  0.4707675E-002  0.4424768E+03  0.7546771E-02  0.1029990E+00
         21   -1    0    0  502  501  0.00000000000E+00  0.00000000000E+00  0.91322049099E+02  0.91322049099E+02  0.00000000000E+00 0.  1.
         21   -1    0    0  501  502 -0.00000000000E+00 -0.00000000000E+00 -0.53597600881E+03  0.53597600881E+03  0.00000000000E+00 0.  1.
      99926    2    1    2    0    0  0.13322676296E-14  0.00000000000E+00 -0.44465395971E+03  0.62729805791E+03  0.44247678987E+03 0.  0.
      99925    2    3    3    0    0 -0.37069806042E+01  0.10089167596E+03 -0.29010169505E+03  0.40430302973E+03  0.26288604830E+03 0.  0.
         25    1    4    4    0    0 -0.34036373340E+02  0.37392792332E+02 -0.11049498249E+03  0.17439422262E+03  0.12509000000E+03 0.  0.
         25    1    4    4    0    0  0.30329392736E+02  0.63498883630E+02 -0.17960671257E+03  0.22990880711E+03  0.12509000000E+03 0.  0.
         25    1    3    3    0    0  0.37069806042E+01 -0.10089167596E+03 -0.15455226466E+03  0.22299502818E+03  0.12509000000E+03 0.  0.
<mgrwt>
<rscale>  2 0.44247679E+03</rscale>
<asrwt>0</asrwt>
<pdfrwt beam="1">  1       21 0.13429713E-01 0.44247679E+03</pdfrwt>
<pdfrwt beam="2">  1       21 0.78820002E-01 0.44247679E+03</pdfrwt>
<totfact> 0.63032701E+04</totfact>
</mgrwt>
</event>
<event>
 7    0  0.4707675E-002  0.4538108E+03  0.7546771E-02  0.1026592E+00
         21   -1    0    0  502  501  0.00000000000E+00  0.00000000000E+00  0.17034986661E+03  0.17034986661E+03  0.00000000000E+00 0. -1.
         21   -1    0    0  501  502 -0.00000000000E+00 -0.00000000000E+00 -0.30223710854E+03  0.30223710854E+03  0.00000000000E+00 0. -1.
      99926    2    1    2    0    0  0.00000000000E+00  0.00000000000E+00 -0.13188724193E+03  0.47258697515E+03  0.45381075846E+03 0.  0.
      99925    2    3    3    0    0  0.84436438137E+02 -0.41551904282E+02 -0.14652739797E+03  0.31536765348E+03  0.26292661652E+03 0.  0.
         25    1    4    4    0    0  0.43456602971E+02 -0.54835368979E+02 -0.10145003620E+03  0.17559900905E+03  0.12509000000E+03 0.  0.
         25    1    3    3    0    0 -0.84436438137E+02  0.41551904282E+02  0.14640156039E+02  0.15721932166E+03  0.12509000000E+03 0.  0.
         25    1    4    4    0    0  0.40979835166E+02  0.13283464697E+02 -0.45077361767E+02  0.13976864444E+03  0.12509000000E+03 0.  0.
<mgrwt>
<rscale>  2 0.45381076E+03</rscale>
<asrwt>0</asrwt>
<pdfrwt beam="1">  1       21 0.25051451E-01 0.45381076E+03</pdfrwt>
<pdfrwt beam="2">  1       21 0.44446633E-01 0.45381076E+03</pdfrwt>
<totfact> 0.67882162E+04</totfact>
</mgrwt>
</event>
<event>
 7    0  0.4707675E-002  0.4448538E+03  0.7546771E-02  0.1029268E+00
         21   -1    0    0  502  501  0.00000000000E+00  0.00000000000E+00  0.35349401923E+03  0.35349401923E+03  0.00000000000E+00 0. -1.
         21   -1    0    0  501  502 -0.00000000000E+00 -0.00000000000E+00 -0.13995633015E+03  0.13995633015E+03  0.00000000000E+00 0. -1.
      99926    2    1    2    0    0  0.00000000000E+00  0.00000000000E+00  0.21353768908E+03  0.49345034938E+03  0.44485379919E+03 0.  0.
      99925    2    3    3    0    0  0.22879280096E+02 -0.36351267970E+02  0.23998218043E+03  0.35857375629E+03  0.26294260902E+03 0.  0.
         25    1    4    4    0    0  0.22552436116E+02  0.11914753727E+02  0.83689744103E+02  0.15265010678E+03  0.12509000000E+03 0.  0.
         25    1    3    3    0    0 -0.22879280096E+02  0.36351267970E+02 -0.26444491352E+02  0.13487659309E+03  0.12509000000E+03 0.  0.
         25    1    4    4    0    0  0.32684397954E+00 -0.48266021698E+02  0.15629243632E+03  0.20592364952E+03  0.12509000000E+03 0.  0.
<mgrwt>
<rscale>  2 0.44485380E+03</rscale>
<asrwt>0</asrwt>
<pdfrwt beam="1">  1       21 0.51984414E-01 0.44485380E+03</pdfrwt>
<pdfrwt beam="2">  1       21 0.20581813E-01 0.44485380E+03</pdfrwt>
<totfact> 0.71305604E+04</totfact>
</mgrwt>
</event>
<event>
 7    0  0.4707675E-002  0.4538020E+03  0.7546771E-02  0.1026594E+00
         21   -1    0    0  502  501  0.00000000000E+00  0.00000000000E+00  0.30925465728E+03  0.30925465728E+03  0.00000000000E+00 0. -1.
         21   -1    0    0  501  502 -0.00000000000E+00 -0.00000000000E+00 -0.16647790459E+03  0.16647790459E+03  0.00000000000E+00 0. -1.
      99926    2    1    2    0    0  0.00000000000E+00  0.00000000000E+00  0.14277675269E+03  0.47573256187E+03  0.45380201555E+03 0.  0.
      99925    2    3    3    0    0 -0.68552321724E+02  0.42880277353E+02  0.86749642507E+01  0.27531066496E+03  0.26302579386E+03 0.  0.
         25    1    3    3    0    0  0.68552321724E+02 -0.42880277353E+02  0.13410178844E+03  0.20042189692E+03  0.12509000000E+03 0.  0.
         25    1    4    4    0    0 -0.39520374905E+02 -0.10124318856E+02  0.29482243495E+02  0.13483720795E+03  0.12509000000E+03 0.  0.
         25    1    4    4    0    0 -0.29031946819E+02  0.53004596209E+02 -0.20807279245E+02  0.14047345701E+03  0.12509000000E+03 0.  0.
<mgrwt>
<rscale>  2 0.45380202E+03</rscale>
<asrwt>0</asrwt>
<pdfrwt beam="1">  1       21 0.45478626E-01 0.45380202E+03</pdfrwt>
<pdfrwt beam="2">  1       21 0.24482045E-01 0.45380202E+03</pdfrwt>
<totfact> 0.67653007E+04</totfact>
</mgrwt>
</event>
<event>
 7    0  0.4707675E-002  0.4260986E+03  0.7546771E-02  0.1035100E+00
         21   -1    0    0  502  501  0.00000000000E+00  0.00000000000E+00  0.30467015758E+02  0.30467015758E+02  0.00000000000E+00 0.  1.
         21   -1    0    0  501  502 -0.00000000000E+00 -0.00000000000E+00 -0.14898081152E+04  0.14898081152E+04  0.00000000000E+00 0.  1.
      99926    2    1    2    0    0  0.35527136788E-14  0.00000000000E+00 -0.14593410995E+04  0.15202751310E+04  0.42609861451E+03 0.  0.
      99925    2    3    3    0    0 -0.20585206852E+02 -0.79710259519E+02 -0.90371008457E+03  0.94481808738E+03  0.26308140390E+03 0.  0.
         25    1    4    4    0    0 -0.31606568036E+02 -0.76603410170E+02 -0.49182044728E+03  0.51420027038E+03  0.12509000000E+03 0.  0.
         25    1    3    3    0    0  0.20585206852E+02  0.79710259519E+02 -0.55563101488E+03  0.57545704359E+03  0.12509000000E+03 0.  0.
         25    1    4    4    0    0  0.11021361184E+02 -0.31068493497E+01 -0.41188963729E+03  0.43061781700E+03  0.12509000000E+03 0.  0.
<mgrwt>
<rscale>  2 0.42609861E+03</rscale>
<asrwt>0</asrwt>
<pdfrwt beam="1">  1       21 0.44804424E-02 0.42609861E+03</pdfrwt>
<pdfrwt beam="2">  1       21 0.21908948E+00 0.42609861E+03</pdfrwt>
<totfact> 0.29341068E+04</totfact>
</mgrwt>
</event>
<event>
 7    0  0.4707675E-002  0.4550585E+03  0.7546771E-02  0.1026224E+00
         21   -1    0    0  502  501  0.00000000000E+00  0.00000000000E+00  0.45997176511E+02  0.45997176511E+02  0.00000000000E+00 0. -1.
         21   -1    0    0  501  502 -0.00000000000E+00 -0.00000000000E+00 -0.11254942559E+04  0.11254942559E+04  0.00000000000E+00 0. -1.
      99926    2    1    2    0    0  0.35527136788E-14  0.00000000000E+00 -0.10794970794E+04  0.11714914324E+04  0.45505849273E+03 0.  0.
      99925    2    3    3    0    0 -0.26760024076E+02  0.49119592015E+02 -0.42668835057E+03  0.50445651749E+03  0.26321967311E+03 0.  0.
         25    1    3    3    0    0  0.26760024076E+02 -0.49119592015E+02 -0.65280872885E+03  0.66703491496E+03  0.12509000000E+03 0.  0.
         25    1    4    4    0    0  0.11528278173E+02  0.34148498482E+02 -0.15405428127E+03  0.20169097854E+03  0.12509000000E+03 0.  0.
         25    1    4    4    0    0 -0.38288302249E+02  0.14971093533E+02 -0.27263406931E+03  0.30276553895E+03  0.12509000000E+03 0.  0.
<mgrwt>
<rscale>  2 0.45505849E+03</rscale>
<asrwt>0</asrwt>
<pdfrwt beam="1">  1       21 0.67642901E-02 0.45505849E+03</pdfrwt>
<pdfrwt beam="2">  1       21 0.16551387E+00 0.45505849E+03</pdfrwt>
<totfact> 0.33057789E+04</totfact>
</mgrwt>
</event>
<event>
 7    0  0.4707675E-002  0.4550150E+03  0.7546771E-02  0.1026237E+00
         21   -1    0    0  502  501  0.00000000000E+00  0.00000000000E+00  0.17087828922E+03  0.17087828922E+03  0.00000000000E+00 0.  1.
         21   -1    0    0  501  502 -0.00000000000E+00 -0.00000000000E+00 -0.30290370612E+03  0.30290370612E+03  0.00000000000E+00 0.  1.
      99926    2    1    2    0    0  0.00000000000E+00  0.00000000000E+00 -0.13202541690E+03  0.47378199535E+03  0.45501501998E+03 0.  0.
      99925    2    3    3    0    0  0.10698147075E+03 -0.12452425547E+02 -0.11932145698E+03  0.30822536853E+03  0.26299271801E+03 0.  0.
         25    1    3    3    0    0 -0.10698147075E+03  0.12452425547E+02 -0.12703959917E+02  0.16555662682E+03  0.12509000000E+03 0.  0.
         25    1    4    4    0    0  0.24059069717E+02  0.34630650220E-01 -0.22953958568E+02  0.12943427811E+03  0.12509000000E+03 0.  0.
         25    1    4    4    0    0  0.82922401028E+02 -0.12487056197E+02 -0.96367498413E+02  0.17879109042E+03  0.12509000000E+03 0.  0.
<mgrwt>
<rscale>  2 0.45501502E+03</rscale>
<asrwt>0</asrwt>
<pdfrwt beam="1">  1       21 0.25129160E-01 0.45501502E+03</pdfrwt>
<pdfrwt beam="2">  1       21 0.44544662E-01 0.45501502E+03</pdfrwt>
<totfact> 0.67147605E+04</totfact>
</mgrwt>
</event>
<event>
 7    0  0.4707675E-002  0.4683823E+03  0.7546771E-02  0.1022378E+00
         21   -1    0    0  502  501  0.00000000000E+00  0.00000000000E+00  0.62843832091E+03  0.62843832091E+03  0.00000000000E+00 0. -1.
         21   -1    0    0  501  502 -0.00000000000E+00 -0.00000000000E+00 -0.87272689265E+02  0.87272689265E+02  0.00000000000E+00 0. -1.
      99926    2    1    2    0    0  0.26645352591E-14  0.00000000000E+00  0.54116563164E+03  0.71571101017E+03  0.46838233230E+03 0.  0.
      99925    2    3    3    0    0 -0.73674825718E+01  0.65731284774E+02  0.49921018952E+03  0.56812154977E+03  0.26301406883E+03 0.  0.
         25    1    4    4    0    0 -0.39788348229E+02  0.33815455665E+02  0.29066549986E+03  0.32071878430E+03  0.12509000000E+03 0.  0.
         25    1    3    3    0    0  0.73674825718E+01 -0.65731284774E+02  0.41955442129E+02  0.14758946040E+03  0.12509000000E+03 0.  0.
         25    1    4    4    0    0  0.32420865657E+02  0.31915829109E+02  0.20854468966E+03  0.24740276547E+03  0.12509000000E+03 0.  0.
<mgrwt>
<rscale>  2 0.46838233E+03</rscale>
<asrwt>0</asrwt>
<pdfrwt beam="1">  1       21 0.92417398E-01 0.46838233E+03</pdfrwt>
<pdfrwt beam="2">  1       21 0.12834219E-01 0.46838233E+03</pdfrwt>
<totfact> 0.46920107E+04</totfact>
</mgrwt>
</event>
<event>
 7    0  0.4707675E-002  0.4471966E+03  0.7546771E-02  0.1028561E+00
         21   -1    0    0  502  501  0.00000000000E+00  0.00000000000E+00  0.17193988923E+03  0.17193988923E+03  0.00000000000E+00 0. -1.
         21   -1    0    0  501  502 -0.00000000000E+00 -0.00000000000E+00 -0.29077716878E+03  0.29077716878E+03  0.00000000000E+00 0. -1.
      99926    2    1    2    0    0 -0.14210854715E-13  0.71054273576E-14 -0.11883727955E+03  0.46271705801E+03  0.44719657508E+03 0.  0.
      99925    2    3    3    0    0 -0.79319746558E+02  0.57680810112E+02 -0.11604814175E+03  0.30373911791E+03  0.26300490964E+03 0.  0.
         25    1    4    4    0    0 -0.41269458511E+02  0.24874000012E+02 -0.10152512760E+03  0.16815690208E+03  0.12509000000E+03 0.  0.
         25    1    4    4    0    0 -0.38050288047E+02  0.32806810100E+02 -0.14523014148E+02  0.13558221583E+03  0.12509000000E+03 0.  0.
         25    1    3    3    0    0  0.79319746558E+02 -0.57680810112E+02 -0.27891378026E+01  0.15897794010E+03  0.12509000000E+03 0.  0.
<mgrwt>
<rscale>  2 0.44719658E+03</rscale>
<asrwt>0</asrwt>
<pdfrwt beam="1">  1       21 0.25285278E-01 0.44719658E+03</pdfrwt>
<pdfrwt beam="2">  1       21 0.42761348E-01 0.44719658E+03</pdfrwt>
<totfact> 0.72357672E+04</totfact>
</mgrwt>
</event>
<event>
 7    0  0.4707675E-002  0.4518796E+03  0.7546771E-02  0.1027163E+00
         21   -1    0    0  502  501  0.00000000000E+00  0.00000000000E+00  0.60152519719E+03  0.60152519719E+03  0.00000000000E+00 0. -1.
         21   -1    0    0  501  502 -0.00000000000E+00 -0.00000000000E+00 -0.84865583950E+02  0.84865583950E+02  0.00000000000E+00 0. -1.
      99926    2    1    2    0    0  0.00000000000E+00 -0.71054273576E-14  0.51665961324E+03  0.68639078114E+03  0.45187957298E+03 0.  0.
      99925    2    3    3    0    0 -0.79249311746E+02 -0.59031705181E+02  0.40007404154E+03  0.48889420077E+03  0.26304582339E+03 0.  0.
         25    1    4    4    0    0 -0.54155891930E+02 -0.51883222674E+02  0.26803928686E+03  0.30515126876E+03  0.12509000000E+03 0.  0.
         25    1    3    3    0    0  0.79249311746E+02  0.59031705181E+02  0.11658557170E+03  0.19749658037E+03  0.12509000000E+03 0.  0.
         25    1    4    4    0    0 -0.25093419816E+02 -0.71484825076E+01  0.13203475467E+03  0.18374293201E+03  0.12509000000E+03 0.  0.
<mgrwt>
<rscale>  2 0.45187957E+03</rscale>
<asrwt>0</asrwt>
<pdfrwt beam="1">  1       21 0.88459586E-01 0.45187957E+03</pdfrwt>
<pdfrwt beam="2">  1       21 0.12480233E-01 0.45187957E+03</pdfrwt>
<totfact> 0.54986697E+04</totfact>
</mgrwt>
</event>
<event>
 7    0  0.4707675E-002  0.4599378E+03  0.7546771E-02  0.1024799E+00
         21   -1    0    0  502  501  0.00000000000E+00  0.00000000000E+00  0.55245606782E+03  0.55245606782E+03  0.00000000000E+00 0.  1.
         21   -1    0    0  501  502 -0.00000000000E+00 -0.00000000000E+00 -0.95728346277E+02  0.95728346277E+02  0.00000000000E+00 0.  1.
      99926    2    1    2    0    0  0.00000000000E+00  0.00000000000E+00  0.45672772155E+03  0.64818441410E+03  0.45993784695E+03 0.  0.
      99925    2    3    3    0    0 -0.71176824359E+02 -0.91998193051E+02  0.31160749827E+03  0.42404785940E+03  0.26303525663E+03 0.  0.
         25    1    3    3    0    0  0.71176824359E+02  0.91998193051E+02  0.14512022328E+03  0.22413655470E+03  0.12509000000E+03 0.  0.
         25    1    4    4    0    0 -0.16965989738E+02 -0.47816275351E+02  0.97963833858E+02  0.16678927376E+03  0.12509000000E+03 0.  0.
         25    1    4    4    0    0 -0.54210834621E+02 -0.44181917700E+02  0.21364366441E+03  0.25725858564E+03  0.12509000000E+03 0.  0.
<mgrwt>
<rscale>  2 0.45993785E+03</rscale>
<asrwt>0</asrwt>
<pdfrwt beam="1">  1       21 0.81243538E-01 0.45993785E+03</pdfrwt>
<pdfrwt beam="2">  1       21 0.14077698E-01 0.45993785E+03</pdfrwt>
<totfact> 0.53683993E+04</totfact>
</mgrwt>
</event>
<event>
 7    0  0.4707675E-002  0.4522946E+03  0.7546771E-02  0.1027040E+00
         21   -1    0    0  502  501  0.00000000000E+00  0.00000000000E+00  0.26799484298E+03  0.26799484298E+03  0.00000000000E+00 0. -1.
         21   -1    0    0  501  502 -0.00000000000E+00 -0.00000000000E+00 -0.19083430149E+03  0.19083430149E+03  0.00000000000E+00 0. -1.
      99926    2    1    2    0    0  0.00000000000E+00  0.00000000000E+00  0.77160541496E+02  0.45882914447E+03  0.45229463257E+03 0.  0.
      99925    2    3    3    0    0  0.10523954313E+03 -0.28384400755E+02  0.29153807871E+02  0.28610627332E+03  0.26291789494E+03 0.  0.
         25    1    4    4    0    0  0.24719288547E+02  0.17928988217E+02  0.10624281057E+02  0.12920091057E+03  0.12509000000E+03 0.  0.
         25    1    4    4    0    0  0.80520254584E+02 -0.46313388973E+02  0.18529526814E+02  0.15690536275E+03  0.12509000000E+03 0.  0.
         25    1    3    3    0    0 -0.10523954313E+03  0.28384400755E+02  0.48006733624E+02  0.17272287115E+03  0.12509000000E+03 0.  0.
<mgrwt>
<rscale>  2 0.45229463E+03</rscale>
<asrwt>0</asrwt>
<pdfrwt beam="1">  1       21 0.39411006E-01 0.45229463E+03</pdfrwt>
<pdfrwt beam="2">  1       21 0.28063868E-01 0.45229463E+03</pdfrwt>
<totfact> 0.69758715E+04</totfact>
</mgrwt>
</event>
<event>
 7    0  0.4707675E-002  0.4532316E+03  0.7546771E-02  0.1026763E+00
         21   -1    0    0  502  501  0.00000000000E+00  0.00000000000E+00  0.86429875430E+02  0.86429875430E+02  0.00000000000E+00 0.  1.
         21   -1    0    0  501  502 -0.00000000000E+00 -0.00000000000E+00 -0.59417801571E+03  0.59417801571E+03  0.00000000000E+00 0.  1.
      99926    2    1    2    0    0  0.17763568394E-14  0.00000000000E+00 -0.50774814028E+03  0.68060789114E+03  0.45323164885E+03 0.  0.
      99925    2    3    3    0    0 -0.71582662473E+01  0.95623903223E+02 -0.23506640053E+03  0.36565073384E+03  0.26315218953E+03 0.  0.
         25    1    3    3    0    0  0.71582662473E+01 -0.95623903223E+02 -0.27268173975E+03  0.31495715730E+03  0.12509000000E+03 0.  0.
         25    1    4    4    0    0 -0.34498345119E+02  0.36776927219E+02 -0.83166261237E+02  0.15845129630E+03  0.12509000000E+03 0.  0.
         25    1    4    4    0    0  0.27340078871E+02  0.58846976004E+02 -0.15190013929E+03  0.20719943753E+03  0.12509000000E+03 0.  0.
<mgrwt>
<rscale>  2 0.45323165E+03</rscale>
<asrwt>0</asrwt>
<pdfrwt beam="1">  1       21 0.12710276E-01 0.45323165E+03</pdfrwt>
<pdfrwt beam="2">  1       21 0.87379121E-01 0.45323165E+03</pdfrwt>
<totfact> 0.54726964E+04</totfact>
</mgrwt>
</event>
<event>
 7    0  0.4707675E-002  0.4518473E+03  0.7546771E-02  0.1027173E+00
         21   -1    0    0  502  501  0.00000000000E+00  0.00000000000E+00  0.74042670093E+02  0.74042670093E+02  0.00000000000E+00 0. -1.
         21   -1    0    0  501  502 -0.00000000000E+00 -0.00000000000E+00 -0.68935248438E+03  0.68935248438E+03  0.00000000000E+00 0. -1.
      99926    2    1    2    0    0  0.00000000000E+00  0.14210854715E-13 -0.61530981429E+03  0.76339515448E+03  0.45184731306E+03 0.  0.
      99925    2    3    3    0    0  0.49195445931E+02 -0.92545665533E+02 -0.33963838306E+03  0.44304044761E+03  0.26447252195E+03 0.  0.
         25    1    4    4    0    0  0.56766594001E+02 -0.66285816560E+02 -0.14773240499E+03  0.21234082805E+03  0.12509000000E+03 0.  0.
         25    1    4    4    0    0 -0.75711480695E+01 -0.26259848973E+02 -0.19190597807E+03  0.23069961957E+03  0.12509000000E+03 0.  0.
         25    1    3    3    0    0 -0.49195445931E+02  0.92545665533E+02 -0.27567143123E+03  0.32035470686E+03  0.12509000000E+03 0.  0.
<mgrwt>
<rscale>  2 0.45184731E+03</rscale>
<asrwt>0</asrwt>
<pdfrwt beam="1">  1       21 0.10888628E-01 0.45184731E+03</pdfrwt>
<pdfrwt beam="2">  1       21 0.10137536E+00 0.45184731E+03</pdfrwt>
<totfact> 0.50832589E+04</totfact>
</mgrwt>
</event>
<event>
 7    0  0.4707675E-002  0.4566750E+03  0.7546771E-02  0.1025750E+00
         21   -1    0    0  502  501  0.00000000000E+00  0.00000000000E+00  0.30842929384E+03  0.30842929384E+03  0.00000000000E+00 0. -1.
         21   -1    0    0  501  502 -0.00000000000E+00 -0.00000000000E+00 -0.16904367576E+03  0.16904367576E+03  0.00000000000E+00 0. -1.
      99926    2    1    2    0    0 -0.88817841970E-15  0.00000000000E+00  0.13938561808E+03  0.47747296960E+03  0.45667503344E+03 0.  0.
      99925    2    3    3    0    0  0.78209304209E+01  0.75550145332E+02 -0.22826908134E+01  0.27379084162E+03  0.26303464195E+03 0.  0.
         25    1    4    4    0    0  0.25722702959E+02  0.13384206798E+02 -0.25908861655E+02  0.13099454817E+03  0.12509000000E+03 0.  0.
         25    1    4    4    0    0 -0.17901772538E+02  0.62165938534E+02  0.23626170841E+02  0.14279629345E+03  0.12509000000E+03 0.  0.
         25    1    3    3    0    0 -0.78209304209E+01 -0.75550145332E+02  0.14166830889E+03  0.20368212797E+03  0.12509000000E+03 0.  0.
<mgrwt>
<rscale>  2 0.45667503E+03</rscale>
<asrwt>0</asrwt>
<pdfrwt beam="1">  1       21 0.45357249E-01 0.45667503E+03</pdfrwt>
<pdfrwt beam="2">  1       21 0.24859364E-01 0.45667503E+03</pdfrwt>
<totfact> 0.66002716E+04</totfact>
</mgrwt>
</event>
<event>
 7    0  0.4707675E-002  0.4526274E+03  0.7546771E-02  0.1026941E+00
         21   -1    0    0  502  501  0.00000000000E+00  0.00000000000E+00  0.94228007238E+03  0.94228007238E+03  0.00000000000E+00 0. -1.
         21   -1    0    0  501  502 -0.00000000000E+00 -0.00000000000E+00 -0.54355282623E+02  0.54355282623E+02  0.00000000000E+00 0. -1.
      99926    2    1    2    0    0  0.00000000000E+00  0.00000000000E+00  0.88792478976E+03  0.99663535501E+03  0.45262743905E+03 0.  0.
      99925    2    3    3    0    0  0.10447834216E+03  0.36950733717E+02  0.56739895142E+03  0.63515865887E+03  0.26306628664E+03 0.  0.
         25    1    4    4    0    0  0.54159093858E+02 -0.22111126291E+02  0.26393107468E+03  0.29787451995E+03  0.12509000000E+03 0.  0.
         25    1    3    3    0    0 -0.10447834216E+03 -0.36950733717E+02  0.32052583834E+03  0.36147669614E+03  0.12509000000E+03 0.  0.
         25    1    4    4    0    0  0.50319248302E+02  0.59061860007E+02  0.30346787674E+03  0.33728413892E+03  0.12509000000E+03 0.  0.
<mgrwt>
<rscale>  2 0.45262744E+03</rscale>
<asrwt>0</asrwt>
<pdfrwt beam="1">  1       21 0.13857059E+00 0.45262744E+03</pdfrwt>
<pdfrwt beam="2">  1       21 0.79934245E-02 0.45262744E+03</pdfrwt>
<totfact> 0.40034629E+04</totfact>
</mgrwt>
</event>
<event>
 7    0  0.4707675E-002  0.4442056E+03  0.7546771E-02  0.1029464E+00
         21   -1    0    0  502  501  0.00000000000E+00  0.00000000000E+00  0.39006525249E+02  0.39006525249E+02  0.00000000000E+00 0. -1.
         21   -1    0    0  501  502 -0.00000000000E+00 -0.00000000000E+00 -0.12646512745E+04  0.12646512745E+04  0.00000000000E+00 0. -1.
      99926    2    1    2    0    0  0.00000000000E+00 -0.13322676296E-14 -0.12256447493E+04  0.13036577998E+04  0.44420559146E+03 0.  0.
      99925    2    3    3    0    0 -0.46361589497E+02 -0.65898809130E+00 -0.51123644531E+03  0.57690023076E+03  0.26325148051E+03 0.  0.
         25    1    3    3    0    0  0.46361589497E+02  0.65898809130E+00 -0.71440830398E+03  0.72675756903E+03  0.12509000000E+03 0.  0.
         25    1    4    4    0    0 -0.20443169490E+02 -0.23536167991E+02 -0.32743197068E+03  0.35189640224E+03  0.12509000000E+03 0.  0.
         25    1    4    4    0    0 -0.25918420007E+02  0.22877179900E+02 -0.18380447462E+03  0.22500382852E+03  0.12509000000E+03 0.  0.
<mgrwt>
<rscale>  2 0.44420559E+03</rscale>
<asrwt>0</asrwt>
<pdfrwt beam="1">  1       21 0.57362540E-02 0.44420559E+03</pdfrwt>
<pdfrwt beam="2">  1       21 0.18597812E+00 0.44420559E+03</pdfrwt>
<totfact> 0.31577423E+04</totfact>
</mgrwt>
</event>
<event>
 7    0  0.4707675E-002  0.4576327E+03  0.7546771E-02  0.1025470E+00
         21   -1    0    0  502  501  0.00000000000E+00  0.00000000000E+00  0.76626346639E+02  0.76626346639E+02  0.00000000000E+00 0.  1.
         21   -1    0    0  501  502 -0.00000000000E+00 -0.00000000000E+00 -0.68327582420E+03  0.68327582420E+03  0.00000000000E+00 0.  1.
      99926    2    1    2    0    0  0.14210854715E-13  0.00000000000E+00 -0.60664947756E+03  0.75990217084E+03  0.45763273552E+03 0.  0.
      99925    2    3    3    0    0 -0.85164923554E+02 -0.56623397798E+02 -0.47042134541E+03  0.54856148505E+03  0.26299085017E+03 0.  0.
         25    1    3    3    0    0  0.85164923554E+02  0.56623397798E+02 -0.13622813214E+03  0.21134068579E+03  0.12509000000E+03 0.  0.
         25    1    4    4    0    0 -0.84021910843E+02 -0.23501267625E+02 -0.24272613020E+03  0.28666264749E+03  0.12509000000E+03 0.  0.
         25    1    4    4    0    0 -0.11430127104E+01 -0.33122130173E+02 -0.22769521521E+03  0.26189883756E+03  0.12509000000E+03 0.  0.
<mgrwt>
<rscale>  2 0.45763274E+03</rscale>
<asrwt>0</asrwt>
<pdfrwt beam="1">  1       21 0.11268580E-01 0.45763274E+03</pdfrwt>
<pdfrwt beam="2">  1       21 0.10048174E+00 0.45763274E+03</pdfrwt>
<totfact> 0.48749471E+04</totfact>
</mgrwt>
</event>
<event>
 7    0  0.4707675E-002  0.4528730E+03  0.7546771E-02  0.1026869E+00
         21   -1    0    0  502  501  0.00000000000E+00  0.00000000000E+00  0.19839728116E+03  0.19839728116E+03  0.00000000000E+00 0.  1.
         21   -1    0    0  501  502 -0.00000000000E+00 -0.00000000000E+00 -0.25843847072E+03  0.25843847072E+03  0.00000000000E+00 0.  1.
      99926    2    1    2    0    0  0.00000000000E+00  0.00000000000E+00 -0.60041189559E+02  0.45683575188E+03  0.45287300621E+03 0.  0.
      99925    2    3    3    0    0  0.36832994346E+02 -0.98605078311E+02 -0.73738929695E+02  0.29277854501E+03  0.26306314018E+03 0.  0.
         25    1    4    4    0    0  0.57582131887E+02 -0.45522349613E+02 -0.49127312933E+02  0.15313062138E+03  0.12509000000E+03 0.  0.
         25    1    4    4    0    0 -0.20749137541E+02 -0.53082728698E+02 -0.24611616763E+02  0.13964792363E+03  0.12509000000E+03 0.  0.
         25    1    3    3    0    0 -0.36832994346E+02  0.98605078311E+02  0.13697740136E+02  0.16405720687E+03  0.12509000000E+03 0.  0.
<mgrwt>
<rscale>  2 0.45287301E+03</rscale>
<asrwt>0</asrwt>
<pdfrwt beam="1">  1       21 0.29176071E-01 0.45287301E+03</pdfrwt>
<pdfrwt beam="2">  1       21 0.38005657E-01 0.45287301E+03</pdfrwt>
<totfact> 0.69584633E+04</totfact>
</mgrwt>
</event>
<event>
 7    0  0.4707675E-002  0.4554777E+03  0.7546771E-02  0.1026101E+00
         21   -1    0    0  502  501  0.00000000000E+00  0.00000000000E+00  0.47932688836E+03  0.47932688836E+03  0.00000000000E+00 0.  1.
         21   -1    0    0  501  502 -0.00000000000E+00 -0.00000000000E+00 -0.10820377887E+03  0.10820377887E+03  0.00000000000E+00 0.  1.
      99926    2    1    2    0    0  0.00000000000E+00 -0.88817841970E-15  0.37112310948E+03  0.58753066723E+03  0.45547768611E+03 0.  0.
      99925    2    3    3    0    0  0.11137035628E+03 -0.71286387897E+01  0.20615843083E+03  0.35233919831E+03  0.26303505150E+03 0.  0.
         25    1    3    3    0    0 -0.11137035628E+03  0.71286387897E+01  0.16496467866E+03  0.23519146892E+03  0.12509000000E+03 0.  0.
         25    1    4    4    0    0  0.91287084017E+02 -0.13919118798E+02  0.86418675937E+02  0.17788414552E+03  0.12509000000E+03 0.  0.
         25    1    4    4    0    0  0.20083272259E+02  0.67904800084E+01  0.11973975489E+03  0.17445505279E+03  0.12509000000E+03 0.  0.
<mgrwt>
<rscale>  2 0.45547769E+03</rscale>
<asrwt>0</asrwt>
<pdfrwt beam="1">  1       21 0.70489247E-01 0.45547769E+03</pdfrwt>
<pdfrwt beam="2">  1       21 0.15912321E-01 0.45547769E+03</pdfrwt>
<totfact> 0.59228481E+04</totfact>
</mgrwt>
</event>
<event>
 7    0  0.4707675E-002  0.4501351E+03  0.7546771E-02  0.1027682E+00
         21   -1    0    0  502  501  0.00000000000E+00  0.00000000000E+00  0.11458302212E+03  0.11458302212E+03  0.00000000000E+00 0. -1.
         21   -1    0    0  501  502 -0.00000000000E+00 -0.00000000000E+00 -0.44208468531E+03  0.44208468531E+03  0.00000000000E+00 0. -1.
      99926    2    1    2    0    0  0.22204460493E-15  0.14210854715E-13 -0.32750166319E+03  0.55666770743E+03  0.45013508762E+03 0.  0.
      99925    2    3    3    0    0 -0.18289058115E+01  0.10042408136E+03 -0.15672351347E+03  0.32235802872E+03  0.26318073257E+03 0.  0.
         25    1    4    4    0    0  0.24123864857E+02  0.52477482159E+02 -0.11556943228E+03  0.17983227955E+03  0.12509000000E+03 0.  0.
         25    1    3    3    0    0  0.18289058115E+01 -0.10042408136E+03 -0.17077814972E+03  0.23430967871E+03  0.12509000000E+03 0.  0.
         25    1    4    4    0    0 -0.25952770668E+02  0.47946599202E+02 -0.41154081192E+02  0.14252574918E+03  0.12509000000E+03 0.  0.
<mgrwt>
<rscale>  2 0.45013509E+03</rscale>
<asrwt>0</asrwt>
<pdfrwt beam="1">  1       21 0.16850445E-01 0.45013509E+03</pdfrwt>
<pdfrwt beam="2">  1       21 0.65012452E-01 0.45013509E+03</pdfrwt>
<totfact> 0.63849986E+04</totfact>
</mgrwt>
</event>
<event>
 7    0  0.4707675E-002  0.4538599E+03  0.7546771E-02  0.1026577E+00
         21   -1    0    0  502  501  0.00000000000E+00  0.00000000000E+00  0.12613652954E+04  0.12613652954E+04  0.00000000000E+00 0. -1.
         21   -1    0    0  501  502 -0.00000000000E+00 -0.00000000000E+00 -0.40826551376E+02  0.40826551376E+02  0.00000000000E+00 0. -1.
      99926    2    1    2    0    0  0.00000000000E+00  0.00000000000E+00  0.12205387440E+04  0.13021918468E+04  0.45385986840E+03 0.  0.
      99925    2    3    3    0    0  0.22470414387E+02  0.57886159580E+02  0.10362213091E+04  0.10709427345E+04  0.26326414919E+03 0.  0.
         25    1    4    4    0    0  0.45068009224E+02  0.36003701333E+02  0.44581042806E+03  0.46660672716E+03  0.12509000000E+03 0.  0.
         25    1    4    4    0    0 -0.22597594837E+02  0.21882458247E+02  0.59041088100E+03  0.60433600735E+03  0.12509000000E+03 0.  0.
         25    1    3    3    0    0 -0.22470414387E+02 -0.57886159580E+02  0.18431743496E+03  0.23124911227E+03  0.12509000000E+03 0.  0.
<mgrwt>
<rscale>  2 0.45385987E+03</rscale>
<asrwt>0</asrwt>
<pdfrwt beam="1">  1       21 0.18549487E+00 0.45385987E+03</pdfrwt>
<pdfrwt beam="2">  1       21 0.60039054E-02 0.45385987E+03</pdfrwt>
<totfact> 0.29310123E+04</totfact>
</mgrwt>
</event>
<event>
 7    0  0.4707675E-002  0.4548603E+03  0.7546771E-02  0.1026282E+00
         21   -1    0    0  502  501  0.00000000000E+00  0.00000000000E+00  0.18791751703E+03  0.18791751703E+03  0.00000000000E+00 0. -1.
         21   -1    0    0  501  502 -0.00000000000E+00 -0.00000000000E+00 -0.27525095869E+03  0.27525095869E+03  0.00000000000E+00 0. -1.
      99926    2    1    2    0    0  0.00000000000E+00 -0.71054273576E-14 -0.87333441657E+02  0.46316847572E+03  0.45486031578E+03 0.  0.
      99925    2    3    3    0    0  0.50565277018E+02 -0.39611838605E+02 -0.14974265386E+03  0.30932321949E+03  0.26292973725E+03 0.  0.
         25    1    3    3    0    0 -0.50565277018E+02  0.39611838605E+02  0.62409212199E+02  0.15384525623E+03  0.12509000000E+03 0.  0.
         25    1    4    4    0    0  0.58490224722E+02 -0.14462300669E+02 -0.10427029466E+03  0.17363774640E+03  0.12509000000E+03 0.  0.
         25    1    4    4    0    0 -0.79249477038E+01 -0.25149537936E+02 -0.45472359200E+02  0.13568547308E+03  0.12509000000E+03 0.  0.
<mgrwt>
<rscale>  2 0.45486032E+03</rscale>
<asrwt>0</asrwt>
<pdfrwt beam="1">  1       21 0.27634929E-01 0.45486032E+03</pdfrwt>
<pdfrwt beam="2">  1       21 0.40478082E-01 0.45486032E+03</pdfrwt>
<totfact> 0.68021857E+04</totfact>
</mgrwt>
</event>
<event>
 7    0  0.4707675E-002  0.4272974E+03  0.7546771E-02  0.1034717E+00
         21   -1    0    0  502  501  0.00000000000E+00  0.00000000000E+00  0.40151744438E+03  0.40151744438E+03  0.00000000000E+00 0.  1.
         21   -1    0    0  501  502 -0.00000000000E+00 -0.00000000000E+00 -0.11368316273E+03  0.11368316273E+03  0.00000000000E+00 0.  1.
      99926    2    1    2    0    0  0.00000000000E+00  0.71054273576E-14  0.28783428165E+03  0.51520060712E+03  0.42729742789E+03 0.  0.
      99925    2    3    3    0    0 -0.55449500745E+02 -0.63501348966E+02  0.19425700529E+03  0.33768642965E+03  0.26303853750E+03 0.  0.
         25    1    4    4    0    0 -0.48068373271E+02 -0.10890913905E+02  0.13123514121E+03  0.18788121488E+03  0.12509000000E+03 0.  0.
         25    1    4    4    0    0 -0.73811274735E+01 -0.52610435061E+02  0.63021864079E+02  0.14980521477E+03  0.12509000000E+03 0.  0.
         25    1    3    3    0    0  0.55449500745E+02  0.63501348966E+02  0.93577276357E+02  0.17751417747E+03  0.12509000000E+03 0.  0.
<mgrwt>
<rscale>  2 0.42729743E+03</rscale>
<asrwt>0</asrwt>
<pdfrwt beam="1">  1       21 0.59046683E-01 0.42729743E+03</pdfrwt>
<pdfrwt beam="2">  1       21 0.16718112E-01 0.42729743E+03</pdfrwt>
<totfact> 0.80481345E+04</totfact>
</mgrwt>
</event>
<event>
 7    0  0.4707675E-002  0.4561268E+03  0.7546771E-02  0.1025911E+00
         21   -1    0    0  502  501  0.00000000000E+00  0.00000000000E+00  0.13027751883E+03  0.13027751883E+03  0.00000000000E+00 0.  1.
         21   -1    0    0  501  502 -0.00000000000E+00 -0.00000000000E+00 -0.39924702685E+03  0.39924702685E+03  0.00000000000E+00 0.  1.
      99926    2    1    2    0    0  0.00000000000E+00  0.00000000000E+00 -0.26896950802E+03  0.52952454568E+03  0.45612678965E+03 0.  0.
      99925    2    3    3    0    0  0.83921889344E+02 -0.77467360807E+02 -0.16674525814E+03  0.33168273801E+03  0.26299312173E+03 0.  0.
         25    1    3    3    0    0 -0.83921889344E+02  0.77467360807E+02 -0.10222424988E+03  0.19784180768E+03  0.12509000000E+03 0.  0.
         25    1    4    4    0    0  0.38898185610E+02 -0.16838057601E+02 -0.11950810070E+03  0.17811873360E+03  0.12509000000E+03 0.  0.
         25    1    4    4    0    0  0.45023703734E+02 -0.60629303206E+02 -0.47237157442E+02  0.15356400440E+03  0.12509000000E+03 0.  0.
<mgrwt>
<rscale>  2 0.45612679E+03</rscale>
<asrwt>0</asrwt>
<pdfrwt beam="1">  1       21 0.19158459E-01 0.45612679E+03</pdfrwt>
<pdfrwt beam="2">  1       21 0.58712798E-01 0.45612679E+03</pdfrwt>
<totfact> 0.62677077E+04</totfact>
</mgrwt>
</event>
<event>
 7    0  0.4707675E-002  0.4569133E+03  0.7546771E-02  0.1025680E+00
         21   -1    0    0  502  501  0.00000000000E+00  0.00000000000E+00  0.22294042733E+03  0.22294042733E+03  0.00000000000E+00 0.  1.
         21   -1    0    0  501  502 -0.00000000000E+00 -0.00000000000E+00 -0.23410940200E+03  0.23410940200E+03  0.00000000000E+00 0.  1.
      99926    2    1    2    0    0  0.00000000000E+00  0.14210854715E-13 -0.11168974673E+02  0.45704982933E+03  0.45691334025E+03 0.  0.
      99925    2    3    3    0    0  0.50622643398E+02  0.93130297541E+02  0.37627458547E+02  0.28598111700E+03  0.26293244246E+03 0.  0.
         25    1    3    3    0    0 -0.50622643398E+02 -0.93130297541E+02 -0.48796433220E+02  0.17106871233E+03  0.12509000000E+03 0.  0.
         25    1    4    4    0    0  0.62244824741E+02  0.63922284532E+02  0.31575424423E+02  0.15685978514E+03  0.12509000000E+03 0.  0.
         25    1    4    4    0    0 -0.11622181343E+02  0.29208013009E+02  0.60520341242E+01  0.12912133186E+03  0.12509000000E+03 0.  0.
<mgrwt>
<rscale>  2 0.45691334E+03</rscale>
<asrwt>0</asrwt>
<pdfrwt beam="1">  1       21 0.32785357E-01 0.45691334E+03</pdfrwt>
<pdfrwt beam="2">  1       21 0.34427853E-01 0.45691334E+03</pdfrwt>
<totfact> 0.67361630E+04</totfact>
</mgrwt>
</event>
<event>
 7    0  0.4707675E-002  0.4621882E+03  0.7546771E-02  0.1024148E+00
         21   -1    0    0  502  501  0.00000000000E+00  0.00000000000E+00  0.74539286646E+03  0.74539286646E+03  0.00000000000E+00 0.  1.
         21   -1    0    0  501  502 -0.00000000000E+00 -0.00000000000E+00 -0.71646080656E+02  0.71646080656E+02  0.00000000000E+00 0.  1.
      99926    2    1    2    0    0  0.00000000000E+00  0.00000000000E+00  0.67374678581E+03  0.81703894712E+03  0.46218817567E+03 0.  0.
      99925    2    3    3    0    0  0.10389992399E+03 -0.58419095618E+02  0.39937445532E+03  0.49279263832E+03  0.26293847926E+03 0.  0.
         25    1    4    4    0    0  0.77045785882E+02  0.26260260157E+01  0.20367221861E+03  0.25114304662E+03  0.12509000000E+03 0.  0.
         25    1    3    3    0    0 -0.10389992399E+03  0.58419095618E+02  0.27437233048E+03  0.32424630880E+03  0.12509000000E+03 0.  0.
         25    1    4    4    0    0  0.26854138110E+02 -0.61045121634E+02  0.19570223672E+03  0.24164959169E+03  0.12509000000E+03 0.  0.
<mgrwt>
<rscale>  2 0.46218818E+03</rscale>
<asrwt>0</asrwt>
<pdfrwt beam="1">  1       21 0.10961659E+00 0.46218818E+03</pdfrwt>
<pdfrwt beam="2">  1       21 0.10536189E-01 0.46218818E+03</pdfrwt>
<totfact> 0.44394177E+04</totfact>
</mgrwt>
</event>
<event>
 7    0  0.4707675E-002  0.4563015E+03  0.7546771E-02  0.1025859E+00
         21   -1    0    0  502  501  0.00000000000E+00  0.00000000000E+00  0.21738126101E+03  0.21738126101E+03  0.00000000000E+00 0. -1.
         21   -1    0    0  501  502 -0.00000000000E+00 -0.00000000000E+00 -0.23945375579E+03  0.23945375579E+03  0.00000000000E+00 0. -1.
      99926    2    1    2    0    0 -0.71054273576E-14  0.00000000000E+00 -0.22072494787E+02  0.45683501680E+03  0.45630147660E+03 0.  0.
      99925    2    3    3    0    0  0.25137893877E+02  0.39217115571E+02 -0.11880976675E+03  0.29198507367E+03  0.26262068980E+03 0.  0.
         25    1    3    3    0    0 -0.25137893877E+02 -0.39217115571E+02  0.96737271961E+02  0.16484994313E+03  0.12509000000E+03 0.  0.
         25    1    4    4    0    0  0.20222406537E+02  0.57077038595E+02 -0.76506311693E+02  0.15864254754E+03  0.12509000000E+03 0.  0.
         25    1    4    4    0    0  0.49154873401E+01 -0.17859923024E+02 -0.42303455054E+02  0.13334252613E+03  0.12509000000E+03 0.  0.
<mgrwt>
<rscale>  2 0.45630148E+03</rscale>
<asrwt>0</asrwt>
<pdfrwt beam="1">  1       21 0.31967833E-01 0.45630148E+03</pdfrwt>
<pdfrwt beam="2">  1       21 0.35213787E-01 0.45630148E+03</pdfrwt>
<totfact> 0.67705781E+04</totfact>
</mgrwt>
</event>
<event>
 7    0  0.4707675E-002  0.4585407E+03  0.7546771E-02  0.1025205E+00
         21   -1    0    0  502  501  0.00000000000E+00  0.00000000000E+00  0.16593707715E+03  0.16593707715E+03  0.00000000000E+00 0.  1.
         21   -1    0    0  501  502 -0.00000000000E+00 -0.00000000000E+00 -0.31677600416E+03  0.31677600416E+03  0.00000000000E+00 0.  1.
      99926    2    1    2    0    0  0.00000000000E+00  0.14210854715E-13 -0.15083892701E+03  0.48271308131E+03  0.45854066010E+03 0.  0.
      99925    2    3    3    0    0  0.46636872569E+02  0.10327678599E+03 -0.67075403060E+02  0.29428556619E+03  0.26318015192E+03 0.  0.
         25    1    3    3    0    0 -0.46636872569E+02 -0.10327678599E+03 -0.83763523953E+02  0.18842751511E+03  0.12509000000E+03 0.  0.
         25    1    4    4    0    0  0.80932887865E+01  0.31086416234E+02 -0.65471361560E+02  0.14479597329E+03  0.12509000000E+03 0.  0.
         25    1    4    4    0    0  0.38543583783E+02  0.72190369754E+02 -0.16040415000E+01  0.14948959290E+03  0.12509000000E+03 0.  0.
<mgrwt>
<rscale>  2 0.45854066E+03</rscale>
<asrwt>0</asrwt>
<pdfrwt beam="1">  1       21 0.24402512E-01 0.45854066E+03</pdfrwt>
<pdfrwt beam="2">  1       21 0.46584705E-01 0.45854066E+03</pdfrwt>
<totfact> 0.64666523E+04</totfact>
</mgrwt>
</event>
<event>
 7    0  0.4707675E-002  0.4507608E+03  0.7546771E-02  0.1027495E+00
         21   -1    0    0  502  501  0.00000000000E+00  0.00000000000E+00  0.89158280244E+02  0.89158280244E+02  0.00000000000E+00 0.  1.
         21   -1    0    0  501  502 -0.00000000000E+00 -0.00000000000E+00 -0.56973204722E+03  0.56973204722E+03  0.00000000000E+00 0.  1.
      99926    2    1    2    0    0 -0.14210854715E-13  0.00000000000E+00 -0.48057376698E+03  0.65889032747E+03  0.45076082141E+03 0.  0.
      99925    2    3    3    0    0 -0.77782150920E+02  0.14285781809E+02 -0.19361627778E+03  0.33601844069E+03  0.26299616518E+03 0.  0.
         25    1    4    4    0    0 -0.45420535253E+02  0.27197662395E+02 -0.14136903444E+03  0.19604961071E+03  0.12509000000E+03 0.  0.
         25    1    3    3    0    0  0.77782150920E+02 -0.14285781809E+02 -0.28695748920E+03  0.32287188678E+03  0.12509000000E+03 0.  0.
         25    1    4    4    0    0 -0.32361615667E+02 -0.12911880586E+02 -0.52247243346E+02  0.13996882998E+03  0.12509000000E+03 0.  0.
<mgrwt>
<rscale>  2 0.45076082E+03</rscale>
<asrwt>0</asrwt>
<pdfrwt beam="1">  1       21 0.13111511E-01 0.45076082E+03</pdfrwt>
<pdfrwt beam="2">  1       21 0.83784127E-01 0.45076082E+03</pdfrwt>
<totfact> 0.57076057E+04</totfact>
</mgrwt>
</event>
<event>
 7    0  0.4707675E-002  0.4615254E+03  0.7546771E-02  0.1024340E+00
         21   -1    0    0  502  501  0.00000000000E+00  0.00000000000E+00  0.92259131433E+03  0.92259131433E+03  0.00000000000E+00 0.  1.
         21   -1    0    0  501  502 -0.00000000000E+00 -0.00000000000E+00 -0.57719405155E+02  0.57719405155E+02  0.00000000000E+00 0.  1.
      99926    2    1    2    0    0  0.00000000000E+00  0.00000000000E+00  0.86487190918E+03  0.98031071949E+03  0.46152539200E+03 0.  0.
      99925    2    3    3    0    0 -0.92389922502E+02  0.24422084238E+02  0.69263166381E+03  0.74697288243E+03  0.26286408921E+03 0.  0.
         25    1    4    4    0    0 -0.51324674677E+02 -0.27835087433E+02  0.34094393919E+03  0.36783052088E+03  0.12509000000E+03 0.  0.
         25    1    3    3    0    0  0.92389922502E+02 -0.24422084238E+02  0.17224024537E+03  0.23333783706E+03  0.12509000000E+03 0.  0.
         25    1    4    4    0    0 -0.41065247825E+02  0.52257171670E+02  0.35168772462E+03  0.37914236155E+03  0.12509000000E+03 0.  0.
<mgrwt>
<rscale>  2 0.46152539E+03</rscale>
<asrwt>0</asrwt>
<pdfrwt beam="1">  1       21 0.13567518E+00 0.46152539E+03</pdfrwt>
<pdfrwt beam="2">  1       21 0.84881484E-02 0.46152539E+03</pdfrwt>
<totfact> 0.37963277E+04</totfact>
</mgrwt>
</event>
<event>
 7    0  0.4707675E-002  0.4548199E+03  0.7546771E-02  0.1026294E+00
         21   -1    0    0  502  501  0.00000000000E+00  0.00000000000E+00  0.10039704269E+04  0.10039704269E+04  0.00000000000E+00 0. -1.
         21   -1    0    0  501  502 -0.00000000000E+00 -0.00000000000E+00 -0.51510766650E+02  0.51510766650E+02  0.00000000000E+00 0. -1.
      99926    2    1    2    0    0  0.00000000000E+00  0.00000000000E+00  0.95245966028E+03  0.10554811936E+04  0.45481990451E+03 0.  0.
      99925    2    3    3    0    0 -0.12384921816E+02 -0.84442986633E+02  0.77141889690E+03  0.81945731685E+03  0.26294329307E+03 0.  0.
         25    1    4    4    0    0  0.61728341812E+01 -0.66861333279E+02  0.31496916552E+03  0.34548751801E+03  0.12509000000E+03 0.  0.
         25    1    3    3    0    0  0.12384921816E+02  0.84442986633E+02  0.18104076338E+03  0.23602387673E+03  0.12509000000E+03 0.  0.
         25    1    4    4    0    0 -0.18557755997E+02 -0.17581653354E+02  0.45644973138E+03  0.47396979885E+03  0.12509000000E+03 0.  0.
<mgrwt>
<rscale>  2 0.45481990E+03</rscale>
<asrwt>0</asrwt>
<pdfrwt beam="1">  1       21 0.14764270E+00 0.45481990E+03</pdfrwt>
<pdfrwt beam="2">  1       21 0.75751134E-02 0.45481990E+03</pdfrwt>
<totfact> 0.37129069E+04</totfact>
</mgrwt>
</event>
<event>
 7    0  0.4707675E-002  0.4606681E+03  0.7546771E-02  0.1024588E+00
         21   -1    0    0  502  501  0.00000000000E+00  0.00000000000E+00  0.31290052483E+03  0.31290052483E+03  0.00000000000E+00 0.  1.
         21   -1    0    0  501  502 -0.00000000000E+00 -0.00000000000E+00 -0.16955472922E+03  0.16955472922E+03  0.00000000000E+00 0.  1.
      99926    2    1    2    0    0 -0.14210854715E-13  0.00000000000E+00  0.14334579560E+03  0.48245525405E+03  0.46066805299E+03 0.  0.
      99925    2    3    3    0    0  0.64784959174E+02  0.16929493596E+02  0.19200600749E+03  0.33245851072E+03  0.26301835629E+03 0.  0.
         25    1    4    4    0    0  0.76977871872E+00  0.22595501147E+02  0.11845508775E+03  0.17375346081E+03  0.12509000000E+03 0.  0.
         25    1    3    3    0    0 -0.64784959174E+02 -0.16929493596E+02 -0.48660211887E+02  0.14999674333E+03  0.12509000000E+03 0.  0.
         25    1    4    4    0    0  0.64015180455E+02 -0.56660075508E+01  0.73550919744E+02  0.15870504991E+03  0.12509000000E+03 0.  0.
<mgrwt>
<rscale>  2 0.46066805E+03</rscale>
<asrwt>0</asrwt>
<pdfrwt beam="1">  1       21 0.46014783E-01 0.46066805E+03</pdfrwt>
<pdfrwt beam="2">  1       21 0.24934519E-01 0.46066805E+03</pdfrwt>
<totfact> 0.63611488E+04</totfact>
</mgrwt>
</event>
<event>
 7    0  0.4707675E-002  0.4474034E+03  0.7546771E-02  0.1028499E+00
         21   -1    0    0  502  501  0.00000000000E+00  0.00000000000E+00  0.19400722344E+03  0.19400722344E+03  0.00000000000E+00 0.  1.
         21   -1    0    0  501  502 -0.00000000000E+00 -0.00000000000E+00 -0.25794122590E+03  0.25794122590E+03  0.00000000000E+00 0.  1.
      99926    2    1    2    0    0  0.00000000000E+00  0.00000000000E+00 -0.63934002464E+02  0.45194844935E+03  0.44740344678E+03 0.  0.
      99925    2    3    3    0    0  0.12616304817E+02  0.73397266664E+02 -0.11656877542E+03  0.29714451747E+03  0.26298337392E+03 0.  0.
         25    1    4    4    0    0  0.44140886604E+02  0.32077589289E+02 -0.43509074641E+02  0.14324083664E+03  0.12509000000E+03 0.  0.
         25    1    4    4    0    0 -0.31524581787E+02  0.41319677375E+02 -0.73059700777E+02  0.15390368083E+03  0.12509000000E+03 0.  0.
         25    1    3    3    0    0 -0.12616304817E+02 -0.73397266664E+02  0.52634772953E+02  0.15480393188E+03  0.12509000000E+03 0.  0.
<mgrwt>
<rscale>  2 0.44740345E+03</rscale>
<asrwt>0</asrwt>
<pdfrwt beam="1">  1       21 0.28530474E-01 0.44740345E+03</pdfrwt>
<pdfrwt beam="2">  1       21 0.37932533E-01 0.44740345E+03</pdfrwt>
<totfact> 0.73100460E+04</totfact>
</mgrwt>
</event>
<event>
 7    0  0.4707675E-002  0.4535376E+03  0.7546771E-02  0.1026672E+00
         21   -1    0    0  502  501  0.00000000000E+00  0.00000000000E+00  0.14617931216E+03  0.14617931216E+03  0.00000000000E+00 0.  1.
         21   -1    0    0  501  502 -0.00000000000E+00 -0.00000000000E+00 -0.35178772330E+03  0.35178772330E+03  0.00000000000E+00 0.  1.
      99926    2    1    2    0    0  0.71054273576E-14  0.00000000000E+00 -0.20560841114E+03  0.49796703545E+03  0.45353759455E+03 0.  0.
      99925    2    3    3    0    0  0.52077827369E+02 -0.91075864513E+02 -0.87284886464E+02  0.29633648769E+03  0.26303944444E+03 0.  0.
         25    1    3    3    0    0 -0.52077827369E+02  0.91075864513E+02 -0.11832352468E+03  0.20163054777E+03  0.12509000000E+03 0.  0.
         25    1    4    4    0    0 -0.14473973929E+02 -0.36847087322E+02 -0.34028205266E+02  0.13554567724E+03  0.12509000000E+03 0.  0.
         25    1    4    4    0    0  0.66551801298E+02 -0.54228777191E+02 -0.53256681197E+02  0.16079081045E+03  0.12509000000E+03 0.  0.
<mgrwt>
<rscale>  2 0.45353759E+03</rscale>
<asrwt>0</asrwt>
<pdfrwt beam="1">  1       21 0.21496958E-01 0.45353759E+03</pdfrwt>
<pdfrwt beam="2">  1       21 0.51733489E-01 0.45353759E+03</pdfrwt>
<totfact> 0.66178647E+04</totfact>
</mgrwt>
</event>
<event>
 7    0  0.4707675E-002  0.4545243E+03  0.7546771E-02  0.1026381E+00
         21   -1    0    0  502  501  0.00000000000E+00  0.00000000000E+00  0.26144249008E+03  0.26144249008E+03  0.00000000000E+00 0.  1.
         21   -1    0    0  501  502 -0.00000000000E+00 -0.00000000000E+00 -0.19755050479E+03  0.19755050479E+03  0.00000000000E+00 0.  1.
      99926    2    1    2    0    0  0.00000000000E+00  0.00000000000E+00  0.63891985292E+02  0.45899299487E+03  0.45452434870E+03 0.  0.
      99925    2    3    3    0    0  0.88709512794E+02 -0.57453452324E+02  0.79811131579E+02  0.29445970291E+03  0.26299510085E+03 0.  0.
         25    1    4    4    0    0  0.47878827886E+02 -0.10987013453E+02  0.14132465787E+01  0.13439717999E+03  0.12509000000E+03 0.  0.
         25    1    3    3    0    0 -0.88709512794E+02  0.57453452324E+02 -0.15919146287E+02  0.16453329196E+03  0.12509000000E+03 0.  0.
         25    1    4    4    0    0  0.40830684908E+02 -0.46466438870E+02  0.78397885000E+02  0.16006252292E+03  0.12509000000E+03 0.  0.
<mgrwt>
<rscale>  2 0.45452435E+03</rscale>
<asrwt>0</asrwt>
<pdfrwt beam="1">  1       21 0.38447425E-01 0.45452435E+03</pdfrwt>
<pdfrwt beam="2">  1       21 0.29051545E-01 0.45452435E+03</pdfrwt>
<totfact> 0.68513542E+04</totfact>
</mgrwt>
</event>
<event>
 7    0  0.4707675E-002  0.4175074E+03  0.7546771E-02  0.1037881E+00
         21   -1    0    0  502  501  0.00000000000E+00  0.00000000000E+00  0.42651848551E+02  0.42651848551E+02  0.00000000000E+00 0. -1.
         21   -1    0    0  501  502 -0.00000000000E+00 -0.00000000000E+00 -0.10217165238E+04  0.10217165238E+04  0.00000000000E+00 0. -1.
      99926    2    1    2    0    0  0.00000000000E+00  0.00000000000E+00 -0.97906467529E+03  0.10643683724E+04  0.41750735772E+03 0.  0.
      99925    2    3    3    0    0 -0.58335086833E+02 -0.37054132329E+02 -0.58255894358E+03  0.64289441773E+03  0.26298729727E+03 0.  0.
         25    1    3    3    0    0  0.58335086833E+02  0.37054132329E+02 -0.39650573171E+03  0.42147395466E+03  0.12509000000E+03 0.  0.
         25    1    4    4    0    0 -0.54181267819E+02 -0.34512982638E+02 -0.23979107141E+03  0.27798205298E+03  0.12509000000E+03 0.  0.
         25    1    4    4    0    0 -0.41538190140E+01 -0.25411496906E+01 -0.34276787217E+03  0.36491236475E+03  0.12509000000E+03 0.  0.
<mgrwt>
<rscale>  2 0.41750736E+03</rscale>
<asrwt>0</asrwt>
<pdfrwt beam="1">  1       21 0.62723303E-02 0.41750736E+03</pdfrwt>
<pdfrwt beam="2">  1       21 0.15025244E+00 0.41750736E+03</pdfrwt>
<totfact> 0.49808992E+04</totfact>
</mgrwt>
</event>
<event>
 7    0  0.4707675E-002  0.4398364E+03  0.7546771E-02  0.1030797E+00
         21   -1    0    0  502  501  0.00000000000E+00  0.00000000000E+00  0.15138200371E+03  0.15138200371E+03  0.00000000000E+00 0. -1.
         21   -1    0    0  501  502 -0.00000000000E+00 -0.00000000000E+00 -0.31948325378E+03  0.31948325378E+03  0.00000000000E+00 0. -1.
      99926    2    1    2    0    0 -0.71054273576E-14  0.00000000000E+00 -0.16810125007E+03  0.47086525749E+03  0.43983640190E+03 0.  0.
      99925    2    3    3    0    0  0.43434310079E+02  0.88088426288E+02 -0.11075373252E+03  0.30180208584E+03  0.26300570263E+03 0.  0.
         25    1    4    4    0    0  0.16846101781E+02  0.80282237523E+02 -0.37500498085E+02  0.15421680928E+03  0.12509000000E+03 0.  0.
         25    1    3    3    0    0 -0.43434310079E+02 -0.88088426288E+02 -0.57347517545E+02  0.16906317164E+03  0.12509000000E+03 0.  0.
         25    1    4    4    0    0  0.26588208298E+02  0.78061887653E+01 -0.73253234436E+02  0.14758527657E+03  0.12509000000E+03 0.  0.
<mgrwt>
<rscale>  2 0.43983640E+03</rscale>
<asrwt>0</asrwt>
<pdfrwt beam="1">  1       21 0.22262059E-01 0.43983640E+03</pdfrwt>
<pdfrwt beam="2">  1       21 0.46982832E-01 0.43983640E+03</pdfrwt>
<totfact> 0.76129569E+04</totfact>
</mgrwt>
</event>
<event>
 7    0  0.4707675E-002  0.4531856E+03  0.7546771E-02  0.1026776E+00
         21   -1    0    0  502  501  0.00000000000E+00  0.00000000000E+00  0.35222916425E+03  0.35222916425E+03  0.00000000000E+00 0.  1.
         21   -1    0    0  501  502 -0.00000000000E+00 -0.00000000000E+00 -0.14576957566E+03  0.14576957566E+03  0.00000000000E+00 0.  1.
      99926    2    1    2    0    0 -0.71054273576E-14  0.00000000000E+00  0.20645958859E+03  0.49799873992E+03  0.45318559469E+03 0.  0.
      99925    2    3    3    0    0  0.59482159714E+02  0.39772022469E+02  0.22397034286E+03  0.35282961196E+03  0.26307048390E+03 0.  0.
         25    1    4    4    0    0  0.67693248986E+02  0.97502335971E+01  0.10134794211E+03  0.17491814224E+03  0.12509000000E+03 0.  0.
         25    1    3    3    0    0 -0.59482159714E+02 -0.39772022469E+02 -0.17510754271E+02  0.14516912795E+03  0.12509000000E+03 0.  0.
         25    1    4    4    0    0 -0.82110892714E+01  0.30021788872E+02  0.12262240075E+03  0.17791146973E+03  0.12509000000E+03 0.  0.
<mgrwt>
<rscale>  2 0.45318559E+03</rscale>
<asrwt>0</asrwt>
<pdfrwt beam="1">  1       21 0.51798406E-01 0.45318559E+03</pdfrwt>
<pdfrwt beam="2">  1       21 0.21436702E-01 0.45318559E+03</pdfrwt>
<totfact> 0.66362163E+04</totfact>
</mgrwt>
</event>
<event>
 7    0  0.4707675E-002  0.4545469E+03  0.7546771E-02  0.1026375E+00
         21   -1    0    0  502  501  0.00000000000E+00  0.00000000000E+00  0.22984550665E+03  0.22984550665E+03  0.00000000000E+00 0. -1.
         21   -1    0    0  501  502 -0.00000000000E+00 -0.00000000000E+00 -0.22473014901E+03  0.22473014901E+03  0.00000000000E+00 0. -1.
      99926    2    1    2    0    0 -0.71054273576E-14  0.00000000000E+00  0.51153576336E+01  0.45457565566E+03  0.45454687309E+03 0.  0.
      99925    2    3    3    0    0  0.45280059391E+02  0.78510159319E+02  0.70361906220E+02  0.28688919498E+03  0.26294578044E+03 0.  0.
         25    1    4    4    0    0  0.27340195225E+02  0.51358615480E+00  0.47840082868E+02  0.13668917907E+03  0.12509000000E+03 0.  0.
         25    1    3    3    0    0 -0.45280059391E+02 -0.78510159319E+02 -0.65246548586E+02  0.16768646069E+03  0.12509000000E+03 0.  0.
         25    1    4    4    0    0  0.17939864166E+02  0.77996573164E+02  0.22521823351E+02  0.15020001591E+03  0.12509000000E+03 0.  0.
<mgrwt>
<rscale>  2 0.45454687E+03</rscale>
<asrwt>0</asrwt>
<pdfrwt beam="1">  1       21 0.33800810E-01 0.45454687E+03</pdfrwt>
<pdfrwt beam="2">  1       21 0.33048551E-01 0.45454687E+03</pdfrwt>
<totfact> 0.68825390E+04</totfact>
</mgrwt>
</event>
<event>
 7    0  0.4707675E-002  0.4474462E+03  0.7546771E-02  0.1028486E+00
         21   -1    0    0  502  501  0.00000000000E+00  0.00000000000E+00  0.19321363574E+03  0.19321363574E+03  0.00000000000E+00 0. -1.
         21   -1    0    0  501  502 -0.00000000000E+00 -0.00000000000E+00 -0.25905021942E+03  0.25905021942E+03  0.00000000000E+00 0. -1.
      99926    2    1    2    0    0  0.00000000000E+00 -0.71054273576E-14 -0.65836583676E+02  0.45226385516E+03  0.44744624139E+03 0.  0.
      99925    2    3    3    0    0 -0.25873876917E+02  0.60849236151E+02 -0.12538074775E+03  0.29875456351E+03  0.26298644502E+03 0.  0.
         25    1    3    3    0    0  0.25873876917E+02 -0.60849236151E+02  0.59544164077E+02  0.15350929165E+03  0.12509000000E+03 0.  0.
         25    1    4    4    0    0 -0.17212804385E+01  0.45263949182E+02 -0.10348980821E+03  0.16855099052E+03  0.12509000000E+03 0.  0.
         25    1    4    4    0    0 -0.24152596479E+02  0.15585286969E+02 -0.21890939547E+02  0.13020357300E+03  0.12509000000E+03 0.  0.
<mgrwt>
<rscale>  2 0.44744624E+03</rscale>
<asrwt>0</asrwt>
<pdfrwt beam="1">  1       21 0.28413770E-01 0.44744624E+03</pdfrwt>
<pdfrwt beam="2">  1       21 0.38095620E-01 0.44744624E+03</pdfrwt>
<totfact> 0.73050350E+04</totfact>
</mgrwt>
</event>
<event>
 6    0  0.4707675E-002  0.4617793E+03  0.7546771E-02  0.1024266E+00
         21   -1    0    0  502  501  0.00000000000E+00  0.00000000000E+00  0.46865462691E+02  0.46865462691E+02  0.00000000000E+00 0.  1.
         21   -1    0    0  501  502 -0.00000000000E+00 -0.00000000000E+00 -0.11375119975E+04  0.11375119975E+04  0.00000000000E+00 0.  1.
      99926    2    1    2    0    0  0.66613381478E-15 -0.17763568394E-14 -0.10906465349E+04  0.11843774602E+04  0.46177928096E+03 0.  0.
         25    1    3    3    0    0  0.18033136400E+01 -0.88864418048E+01 -0.65244081057E+03  0.66438598735E+03  0.12509000000E+03 0.  0.
         25    1    3    3    0    0  0.14554170504E+02 -0.31117776665E+02 -0.12577077164E+03  0.18068186130E+03  0.12509000000E+03 0.  0.
         25    1    3    3    0    0 -0.16357484144E+02  0.40004218469E+02 -0.31243495264E+03  0.33930961159E+03  0.12509000000E+03 0.  0.
<mgrwt>
<rscale>  2 0.46177928E+03</rscale>
<asrwt>0</asrwt>
<pdfrwt beam="1">  1       21 0.68919806E-02 0.46177928E+03</pdfrwt>
<pdfrwt beam="2">  1       21 0.16728116E+00 0.46177928E+03</pdfrwt>
<totfact> 0.30985805E+04</totfact>
</mgrwt>
</event>
<event>
 7    0  0.4707675E-002  0.4500841E+03  0.7546771E-02  0.1027697E+00
         21   -1    0    0  502  501  0.00000000000E+00  0.00000000000E+00  0.93458451528E+02  0.93458451528E+02  0.00000000000E+00 0.  1.
         21   -1    0    0  501  502 -0.00000000000E+00 -0.00000000000E+00 -0.54188700989E+03  0.54188700989E+03  0.00000000000E+00 0.  1.
      99926    2    1    2    0    0 -0.14210854715E-13  0.00000000000E+00 -0.44842855836E+03  0.63534546141E+03  0.45008408480E+03 0.  0.
      99925    2    3    3    0    0 -0.68553776843E+02 -0.32328538087E+02 -0.39304816539E+03  0.47895092596E+03  0.26298740363E+03 0.  0.
         25    1    4    4    0    0 -0.52978463625E+02 -0.43218051322E+02 -0.16414304288E+03  0.21740506939E+03  0.12509000000E+03 0.  0.
         25    1    3    3    0    0  0.68553776843E+02  0.32328538087E+02 -0.55380392963E+02  0.15639453545E+03  0.12509000000E+03 0.  0.
         25    1    4    4    0    0 -0.15575313218E+02  0.10889513236E+02 -0.22890512251E+03  0.26154585658E+03  0.12509000000E+03 0.  0.
<mgrwt>
<rscale>  2 0.45008408E+03</rscale>
<asrwt>0</asrwt>
<pdfrwt beam="1">  1       21 0.13743890E-01 0.45008408E+03</pdfrwt>
<pdfrwt beam="2">  1       21 0.79689267E-01 0.45008408E+03</pdfrwt>
<totfact> 0.58802174E+04</totfact>
</mgrwt>
</event>
<event>
 7    0  0.4707675E-002  0.4539460E+03  0.7546771E-02  0.1026552E+00
         21   -1    0    0  502  501  0.00000000000E+00  0.00000000000E+00  0.10680956115E+04  0.10680956115E+04  0.00000000000E+00 0. -1.
         21   -1    0    0  501  502 -0.00000000000E+00 -0.00000000000E+00 -0.48232324335E+02  0.48232324335E+02  0.00000000000E+00 0. -1.
      99926    2    1    2    0    0  0.00000000000E+00  0.00000000000E+00  0.10198632872E+04  0.11163279359E+04  0.45394596135E+03 0.  0.
      99925    2    3    3    0    0  0.14620592545E+02  0.83372983243E+02  0.82332354865E+03  0.86845661242E+03  0.26304069234E+03 0.  0.
         25    1    3    3    0    0 -0.14620592545E+02 -0.83372983243E+02  0.19653973855E+03  0.24787132345E+03  0.12509000000E+03 0.  0.
         25    1    4    4    0    0 -0.28095303814E+01  0.45041102464E+01  0.43137579801E+03  0.44917787977E+03  0.12509000000E+03 0.  0.
         25    1    4    4    0    0  0.17430122927E+02  0.78868872996E+02  0.39194775065E+03  0.41927873265E+03  0.12509000000E+03 0.  0.
<mgrwt>
<rscale>  2 0.45394596E+03</rscale>
<asrwt>0</asrwt>
<pdfrwt beam="1">  1       21 0.15707287E+00 0.45394596E+03</pdfrwt>
<pdfrwt beam="2">  1       21 0.70929895E-02 0.45394596E+03</pdfrwt>
<totfact> 0.35215168E+04</totfact>
</mgrwt>
</event>
<event>
 7    0  0.4707675E-002  0.4548433E+03  0.7546771E-02  0.1026287E+00
         21   -1    0    0  502  501  0.00000000000E+00  0.00000000000E+00  0.75232798553E+03  0.75232798553E+03  0.00000000000E+00 0.  1.
         21   -1    0    0  501  502 -0.00000000000E+00 -0.00000000000E+00 -0.68747420363E+02  0.68747420363E+02  0.00000000000E+00 0.  1.
      99926    2    1    2    0    0  0.00000000000E+00  0.00000000000E+00  0.68358056516E+03  0.82107540589E+03  0.45484330608E+03 0.  0.
      99925    2    3    3    0    0  0.21318408035E+02 -0.87518335843E+02  0.55339973963E+03  0.61931195760E+03  0.26302489496E+03 0.  0.
         25    1    4    4    0    0 -0.12981134327E+02 -0.38471780913E+02  0.19680129609E+03  0.23669990710E+03  0.12509000000E+03 0.  0.
         25    1    4    4    0    0  0.34299542361E+02 -0.49046554930E+02  0.35659844354E+03  0.38261205050E+03  0.12509000000E+03 0.  0.
         25    1    3    3    0    0 -0.21318408035E+02  0.87518335843E+02  0.13018082553E+03  0.20176344829E+03  0.12509000000E+03 0.  0.
<mgrwt>
<rscale>  2 0.45484331E+03</rscale>
<asrwt>0</asrwt>
<pdfrwt beam="1">  1       21 0.11063646E+00 0.45484331E+03</pdfrwt>
<pdfrwt beam="2">  1       21 0.10109915E-01 0.45484331E+03</pdfrwt>
<totfact> 0.46819800E+04</totfact>
</mgrwt>
</event>
<event>
 7    0  0.4707675E-002  0.4180203E+03  0.7546771E-02  0.1037713E+00
         21   -1    0    0  502  501  0.00000000000E+00  0.00000000000E+00  0.53171748587E+02  0.53171748587E+02  0.00000000000E+00 0. -1.
         21   -1    0    0  501  502 -0.00000000000E+00 -0.00000000000E+00 -0.82158763042E+03  0.82158763042E+03  0.00000000000E+00 0. -1.
      99926    2    1    2    0    0  0.00000000000E+00  0.17763568394E-14 -0.76841588183E+03  0.87475937900E+03  0.41802033887E+03 0.  0.
      99925    2    3    3    0    0  0.11599052600E+02 -0.12287269156E+02 -0.35258064793E+03  0.44018836656E+03  0.26299652042E+03 0.  0.
         25    1    4    4    0    0  0.56664856506E+01  0.25771184483E+02 -0.13243609625E+03  0.18407360131E+03  0.12509000000E+03 0.  0.
         25    1    3    3    0    0 -0.11599052600E+02  0.12287269156E+02 -0.41583523390E+03  0.43457101245E+03  0.12509000000E+03 0.  0.
         25    1    4    4    0    0  0.59325669491E+01 -0.38058453640E+02 -0.22014455168E+03  0.25611476524E+03  0.12509000000E+03 0.  0.
<mgrwt>
<rscale>  2 0.41802034E+03</rscale>
<asrwt>0</asrwt>
<pdfrwt beam="1">  1       21 0.78193751E-02 0.41802034E+03</pdfrwt>
<pdfrwt beam="2">  1       21 0.12082171E+00 0.41802034E+03</pdfrwt>
<totfact> 0.59890605E+04</totfact>
</mgrwt>
</event>
<event>
 7    0  0.4707675E-002  0.5515493E+03  0.7546771E-02  0.1001136E+00
         21   -1    0    0  502  501  0.00000000000E+00  0.00000000000E+00  0.29537181636E+03  0.29537181636E+03  0.00000000000E+00 0. -1.
         21   -1    0    0  501  502 -0.00000000000E+00 -0.00000000000E+00 -0.25747766211E+03  0.25747766211E+03  0.00000000000E+00 0. -1.
      99926    2    1    2    0    0  0.00000000000E+00  0.00000000000E+00  0.37894154257E+02  0.55284947847E+03  0.55154925339E+03 0.  0.
      99925    2    3    3    0    0 -0.86504232245E+02  0.11751864152E+03  0.14379172924E+03  0.33340605116E+03  0.26303976934E+03 0.  0.
         25    1    4    4    0    0 -0.52054128326E+02  0.91017999219E+02  0.48555997713E+02  0.17029122547E+03  0.12509000000E+03 0.  0.
         25    1    3    3    0    0  0.86504232245E+02 -0.11751864152E+03 -0.10589757498E+03  0.21944342731E+03  0.12509000000E+03 0.  0.
         25    1    4    4    0    0 -0.34450103919E+02  0.26500642298E+02  0.95235731527E+02  0.16311482570E+03  0.12509000000E+03 0.  0.
<mgrwt>
<rscale>  2 0.55154925E+03</rscale>
<asrwt>0</asrwt>
<pdfrwt beam="1">  1       21 0.43437032E-01 0.55154925E+03</pdfrwt>
<pdfrwt beam="2">  1       21 0.37864362E-01 0.55154925E+03</pdfrwt>
<totfact> 0.30607005E+04</totfact>
</mgrwt>
</event>
<event>
 7    0  0.4707675E-002  0.4512198E+03  0.7546771E-02  0.1027359E+00
         21   -1    0    0  502  501  0.00000000000E+00  0.00000000000E+00  0.26922316341E+03  0.26922316341E+03  0.00000000000E+00 0.  1.
         21   -1    0    0  501  502 -0.00000000000E+00 -0.00000000000E+00 -0.18906187380E+03  0.18906187380E+03  0.00000000000E+00 0.  1.
      99926    2    1    2    0    0  0.00000000000E+00  0.00000000000E+00  0.80161289611E+02  0.45828503720E+03  0.45121983885E+03 0.  0.
      99925    2    3    3    0    0 -0.93686775554E+02  0.54444925391E+02  0.33947179764E+02  0.28645746705E+03  0.26299050858E+03 0.  0.
         25    1    3    3    0    0  0.93686775554E+02 -0.54444925391E+02  0.46214109848E+02  0.17182757015E+03  0.12509000000E+03 0.  0.
         25    1    4    4    0    0 -0.62275234476E+02 -0.79952369051E+01  0.37293961535E+01  0.14001266063E+03  0.12509000000E+03 0.  0.
         25    1    4    4    0    0 -0.31411541079E+02  0.62440162296E+02  0.30217783610E+02  0.14644480642E+03  0.12509000000E+03 0.  0.
<mgrwt>
<rscale>  2 0.45121984E+03</rscale>
<asrwt>0</asrwt>
<pdfrwt beam="1">  1       21 0.39591642E-01 0.45121984E+03</pdfrwt>
<pdfrwt beam="2">  1       21 0.27803217E-01 0.45121984E+03</pdfrwt>
<totfact> 0.70403444E+04</totfact>
</mgrwt>
</event>
<event>
 7    0  0.4707675E-002  0.4581969E+03  0.7546771E-02  0.1025305E+00
         21   -1    0    0  502  501  0.00000000000E+00  0.00000000000E+00  0.89347383776E+02  0.89347383776E+02  0.00000000000E+00 0. -1.
         21   -1    0    0  501  502 -0.00000000000E+00 -0.00000000000E+00 -0.58743849768E+03  0.58743849768E+03  0.00000000000E+00 0. -1.
      99926    2    1    2    0    0  0.00000000000E+00  0.00000000000E+00 -0.49809111390E+03  0.67678588145E+03  0.45819686990E+03 0.  0.
      99925    2    3    3    0    0 -0.74003131880E+02  0.81218568022E+02 -0.25670916812E+03  0.38355274696E+03  0.26294522886E+03 0.  0.
         25    1    3    3    0    0  0.74003131880E+02 -0.81218568022E+02 -0.24138194578E+03  0.29323313450E+03  0.12509000000E+03 0.  0.
         25    1    4    4    0    0 -0.40392105979E+02  0.34505961913E+02 -0.18124031242E+03  0.22653419738E+03  0.12509000000E+03 0.  0.
         25    1    4    4    0    0 -0.33611025901E+02  0.46712606109E+02 -0.75468855697E+02  0.15701854958E+03  0.12509000000E+03 0.  0.
<mgrwt>
<rscale>  2 0.45819687E+03</rscale>
<asrwt>0</asrwt>
<pdfrwt beam="1">  1       21 0.13139321E-01 0.45819687E+03</pdfrwt>
<pdfrwt beam="2">  1       21 0.86388013E-01 0.45819687E+03</pdfrwt>
<totfact> 0.52838128E+04</totfact>
</mgrwt>
</event>
<event>
 7    0  0.4707675E-002  0.4537040E+03  0.7546771E-02  0.1026623E+00
         21   -1    0    0  502  501  0.00000000000E+00  0.00000000000E+00  0.23630757973E+03  0.23630757973E+03  0.00000000000E+00 0. -1.
         21   -1    0    0  501  502 -0.00000000000E+00 -0.00000000000E+00 -0.21777479109E+03  0.21777479109E+03  0.00000000000E+00 0. -1.
      99926    2    1    2    0    0 -0.14210854715E-13 -0.71054273576E-14  0.18532788632E+02  0.45408237082E+03  0.45370401721E+03 0.  0.
      99925    2    3    3    0    0  0.10884913828E+03  0.23246656891E+02  0.12758730165E-01  0.28562156954E+03  0.26304208572E+03 0.  0.
         25    1    4    4    0    0  0.33425076329E+02 -0.24838359856E+02 -0.43383226512E+00  0.13184034344E+03  0.12509000000E+03 0.  0.
         25    1    3    3    0    0 -0.10884913828E+03 -0.23246656891E+02  0.18520029902E+02  0.16846080128E+03  0.12509000000E+03 0.  0.
         25    1    4    4    0    0  0.75424061951E+02  0.48085016747E+02  0.44659099529E+00  0.15378122610E+03  0.12509000000E+03 0.  0.
<mgrwt>
<rscale>  2 0.45370402E+03</rscale>
<asrwt>0</asrwt>
<pdfrwt beam="1">  1       21 0.34751114E-01 0.45370402E+03</pdfrwt>
<pdfrwt beam="2">  1       21 0.32025705E-01 0.45370402E+03</pdfrwt>
<totfact> 0.69327199E+04</totfact>
</mgrwt>
</event>
<event>
 7    0  0.4707675E-002  0.4498577E+03  0.7546771E-02  0.1027764E+00
         21   -1    0    0  502  501  0.00000000000E+00  0.00000000000E+00  0.25266666870E+02  0.25266666870E+02  0.00000000000E+00 0. -1.
         21   -1    0    0  501  502 -0.00000000000E+00 -0.00000000000E+00 -0.20023611939E+04  0.20023611939E+04  0.00000000000E+00 0. -1.
      99926    2    1    2    0    0  0.14210854715E-13  0.35527136788E-14 -0.19770945270E+04  0.20276278607E+04  0.44985772524E+03 0.  0.
      99925    2    3    3    0    0 -0.10384820563E+03 -0.20064566960E+02 -0.11469819021E+04  0.11815064068E+04  0.26306438178E+03 0.  0.
         25    1    3    3    0    0  0.10384820563E+03  0.20064566960E+02 -0.83011262486E+03  0.84612145388E+03  0.12509000000E+03 0.  0.
         25    1    4    4    0    0 -0.23383948631E+02  0.17391365804E+02 -0.58793959798E+03  0.60180540678E+03  0.12509000000E+03 0.  0.
         25    1    4    4    0    0 -0.80464257004E+02 -0.37455932764E+02 -0.55904230415E+03  0.57970100007E+03  0.12509000000E+03 0.  0.
<mgrwt>
<rscale>  2 0.44985773E+03</rscale>
<asrwt>0</asrwt>
<pdfrwt beam="1">  1       21 0.37156847E-02 0.44985773E+03</pdfrwt>
<pdfrwt beam="2">  1       21 0.29446500E+00 0.44985773E+03</pdfrwt>
<totfact> 0.13806783E+04</totfact>
</mgrwt>
</event>
<event>
 7    0  0.4707675E-002  0.4686447E+03  0.7546771E-02  0.1022303E+00
         21   -1    0    0  502  501  0.00000000000E+00  0.00000000000E+00  0.35142444389E+03  0.35142444389E+03  0.00000000000E+00 0. -1.
         21   -1    0    0  501  502 -0.00000000000E+00 -0.00000000000E+00 -0.15624114056E+03  0.15624114056E+03  0.00000000000E+00 0. -1.
      99926    2    1    2    0    0  0.00000000000E+00  0.00000000000E+00  0.19518330333E+03  0.50766558445E+03  0.46864466682E+03 0.  0.
      99925    2    3    3    0    0  0.12008159250E+03  0.35778050068E+02  0.11793953695E+03  0.31449787165E+03  0.26324801837E+03 0.  0.
         25    1    4    4    0    0  0.51103456547E+02 -0.86175100889E+01  0.89290187621E+02  0.16219146234E+03  0.12509000000E+03 0.  0.
         25    1    4    4    0    0  0.68978135949E+02  0.44395560157E+02  0.28649349328E+02  0.15230640931E+03  0.12509000000E+03 0.  0.
         25    1    3    3    0    0 -0.12008159250E+03 -0.35778050068E+02  0.77243766376E+02  0.19316771280E+03  0.12509000000E+03 0.  0.
<mgrwt>
<rscale>  2 0.46864467E+03</rscale>
<asrwt>0</asrwt>
<pdfrwt beam="1">  1       21 0.51680065E-01 0.46864467E+03</pdfrwt>
<pdfrwt beam="2">  1       21 0.22976638E-01 0.46864467E+03</pdfrwt>
<totfact> 0.58174493E+04</totfact>
</mgrwt>
</event>
<event>
 7    0  0.4707675E-002  0.4519090E+03  0.7546771E-02  0.1027154E+00
         21   -1    0    0  502  501  0.00000000000E+00  0.00000000000E+00  0.88777449177E+02  0.88777449177E+02  0.00000000000E+00 0. -1.
         21   -1    0    0  501  502 -0.00000000000E+00 -0.00000000000E+00 -0.57509470025E+03  0.57509470025E+03  0.00000000000E+00 0. -1.
      99926    2    1    2    0    0  0.00000000000E+00  0.00000000000E+00 -0.48631725107E+03  0.66387214943E+03  0.45190901971E+03 0.  0.
      99925    2    3    3    0    0 -0.53915317879E+02 -0.42306148242E+02 -0.43363435833E+03  0.51182062208E+03  0.26310629179E+03 0.  0.
         25    1    4    4    0    0 -0.57960198137E+02 -0.47922093543E+02 -0.25085945094E+03  0.29023074241E+03  0.12509000000E+03 0.  0.
         25    1    4    4    0    0  0.40448802573E+01  0.56159453007E+01 -0.18277490739E+03  0.22158987966E+03  0.12509000000E+03 0.  0.
         25    1    3    3    0    0  0.53915317879E+02  0.42306148242E+02 -0.52682892745E+02  0.15205152735E+03  0.12509000000E+03 0.  0.
<mgrwt>
<rscale>  2 0.45190902E+03</rscale>
<asrwt>0</asrwt>
<pdfrwt beam="1">  1       21 0.13055508E-01 0.45190902E+03</pdfrwt>
<pdfrwt beam="2">  1       21 0.84572747E-01 0.45190902E+03</pdfrwt>
<totfact> 0.56267237E+04</totfact>
</mgrwt>
</event>
<event>
 7    0  0.4707675E-002  0.4525877E+03  0.7546771E-02  0.1026953E+00
         21   -1    0    0  502  501  0.00000000000E+00  0.00000000000E+00  0.13064563353E+03  0.13064563353E+03  0.00000000000E+00 0.  1.
         21   -1    0    0  501  502 -0.00000000000E+00 -0.00000000000E+00 -0.39196803617E+03  0.39196803617E+03  0.00000000000E+00 0.  1.
      99926    2    1    2    0    0  0.00000000000E+00  0.00000000000E+00 -0.26132240264E+03  0.52261366969E+03  0.45258772589E+03 0.  0.
      99925    2    3    3    0    0 -0.71580218441E+02  0.63516367938E+02 -0.10011043676E+03  0.29723651311E+03  0.26300073861E+03 0.  0.
         25    1    3    3    0    0  0.71580218441E+02 -0.63516367938E+02 -0.16121196588E+03  0.22537715659E+03  0.12509000000E+03 0.  0.
         25    1    4    4    0    0 -0.31895619292E+01  0.25636097579E+02 -0.19724820664E+02  0.12924379852E+03  0.12509000000E+03 0.  0.
         25    1    4    4    0    0 -0.68390656511E+02  0.37880270359E+02 -0.80385616099E+02  0.16799271459E+03  0.12509000000E+03 0.  0.
<mgrwt>
<rscale>  2 0.45258773E+03</rscale>
<asrwt>0</asrwt>
<pdfrwt beam="1">  1       21 0.19212593E-01 0.45258773E+03</pdfrwt>
<pdfrwt beam="2">  1       21 0.57642358E-01 0.45258773E+03</pdfrwt>
<totfact> 0.64942331E+04</totfact>
</mgrwt>
</event>
<event>
 7    0  0.4707675E-002  0.4589384E+03  0.7546771E-02  0.1025090E+00
         21   -1    0    0  502  501  0.00000000000E+00  0.00000000000E+00  0.23276912701E+03  0.23276912701E+03  0.00000000000E+00 0. -1.
         21   -1    0    0  501  502 -0.00000000000E+00 -0.00000000000E+00 -0.22621602223E+03  0.22621602223E+03  0.00000000000E+00 0. -1.
      99926    2    1    2    0    0  0.00000000000E+00  0.71054273576E-14  0.65531047858E+01  0.45898514924E+03  0.45893836628E+03 0.  0.
      99925    2    3    3    0    0  0.96618438684E+02 -0.33284914878E+02 -0.52311457988E+02  0.28706786360E+03  0.26311302025E+03 0.  0.
         25    1    4    4    0    0  0.43345282989E+02  0.19551988029E+02 -0.57386547510E+01  0.13394601170E+03  0.12509000000E+03 0.  0.
         25    1    3    3    0    0 -0.96618438684E+02  0.33284914878E+02  0.58864562773E+02  0.17191728564E+03  0.12509000000E+03 0.  0.
         25    1    4    4    0    0  0.53273155695E+02 -0.52836902907E+02 -0.46572803237E+02  0.15312185190E+03  0.12509000000E+03 0.  0.
<mgrwt>
<rscale>  2 0.45893837E+03</rscale>
<asrwt>0</asrwt>
<pdfrwt beam="1">  1       21 0.34230754E-01 0.45893837E+03</pdfrwt>
<pdfrwt beam="2">  1       21 0.33267062E-01 0.45893837E+03</pdfrwt>
<totfact> 0.66151510E+04</totfact>
</mgrwt>
</event>
<event>
 6    0  0.4707675E-002  0.4523012E+03  0.7546771E-02  0.1027038E+00
         21   -1    0    0  502  501  0.00000000000E+00  0.00000000000E+00  0.91592276974E+03  0.91592276974E+03  0.00000000000E+00 0. -1.
         21   -1    0    0  501  502 -0.00000000000E+00 -0.00000000000E+00 -0.55838875760E+02  0.55838875760E+02  0.00000000000E+00 0. -1.
      99926    2    1    2    0    0  0.00000000000E+00  0.00000000000E+00  0.86008389398E+03  0.97176164550E+03  0.45230121709E+03 0.  0.
         25    1    3    3    0    0  0.35184032732E+02 -0.59426797710E+02  0.48946047202E+03  0.50989069634E+03  0.12509000000E+03 0.  0.
         25    1    3    3    0    0 -0.46478312819E+01 -0.27522579082E+01  0.22678038307E+03  0.25904831114E+03  0.12509000000E+03 0.  0.
         25    1    3    3    0    0 -0.30536201450E+02  0.62179055618E+02  0.14384303890E+03  0.20282263803E+03  0.12509000000E+03 0.  0.
<mgrwt>
<rscale>  2 0.45230122E+03</rscale>
<asrwt>0</asrwt>
<pdfrwt beam="1">  1       21 0.13469452E+00 0.45230122E+03</pdfrwt>
<pdfrwt beam="2">  1       21 0.82116000E-02 0.45230122E+03</pdfrwt>
<totfact> 0.41132959E+04</totfact>
</mgrwt>
</event>
<event>
 7    0  0.4707675E-002  0.4553693E+03  0.7546771E-02  0.1026133E+00
         21   -1    0    0  502  501  0.00000000000E+00  0.00000000000E+00  0.48591640278E+03  0.48591640278E+03  0.00000000000E+00 0. -1.
         21   -1    0    0  501  502 -0.00000000000E+00 -0.00000000000E+00 -0.10668564632E+03  0.10668564632E+03  0.00000000000E+00 0. -1.
      99926    2    1    2    0    0  0.14210854715E-13  0.35527136788E-14  0.37923075646E+03  0.59260204911E+03  0.45536932479E+03 0.  0.
      99925    2    3    3    0    0 -0.10890391557E+03 -0.31692125076E+02  0.24143067639E+03  0.37465521204E+03  0.26308421236E+03 0.  0.
         25    1    4    4    0    0 -0.24570766131E+02 -0.43293254074E+02  0.10208977380E+03  0.16896111508E+03  0.12509000000E+03 0.  0.
         25    1    3    3    0    0  0.10890391557E+03  0.31692125076E+02  0.13780008007E+03  0.21794683707E+03  0.12509000000E+03 0.  0.
         25    1    4    4    0    0 -0.84333149441E+02  0.11601128998E+02  0.13934090259E+03  0.20569409696E+03  0.12509000000E+03 0.  0.
<mgrwt>
<rscale>  2 0.45536932E+03</rscale>
<asrwt>0</asrwt>
<pdfrwt beam="1">  1       21 0.71458294E-01 0.45536932E+03</pdfrwt>
<pdfrwt beam="2">  1       21 0.15689066E-01 0.45536932E+03</pdfrwt>
<totfact> 0.58963666E+04</totfact>
</mgrwt>
</event>
<event>
 7    0  0.4707675E-002  0.4544799E+03  0.7546771E-02  0.1026394E+00
         21   -1    0    0  502  501  0.00000000000E+00  0.00000000000E+00  0.54805869276E+03  0.54805869276E+03  0.00000000000E+00 0.  1.
         21   -1    0    0  501  502 -0.00000000000E+00 -0.00000000000E+00 -0.94219832600E+02  0.94219832600E+02  0.00000000000E+00 0.  1.
      99926    2    1    2    0    0  0.00000000000E+00 -0.35527136788E-14  0.45383886016E+03  0.64227852536E+03  0.45447991501E+03 0.  0.
      99925    2    3    3    0    0 -0.43398951804E+02 -0.28638020748E+02  0.14422571909E+03  0.30432673816E+03  0.26288799946E+03 0.  0.
         25    1    4    4    0    0 -0.51161282969E+02  0.84676405896E+01  0.55477432469E+02  0.14633670567E+03  0.12509000000E+03 0.  0.
         25    1    3    3    0    0  0.43398951804E+02  0.28638020748E+02  0.30961314107E+03  0.33795178720E+03  0.12509000000E+03 0.  0.
         25    1    4    4    0    0  0.77623311652E+01 -0.37105661338E+02  0.88748286623E+02  0.15799003249E+03  0.12509000000E+03 0.  0.
<mgrwt>
<rscale>  2 0.45447992E+03</rscale>
<asrwt>0</asrwt>
<pdfrwt beam="1">  1       21 0.80596865E-01 0.45447992E+03</pdfrwt>
<pdfrwt beam="2">  1       21 0.13855858E-01 0.45447992E+03</pdfrwt>
<totfact> 0.56379550E+04</totfact>
</mgrwt>
</event>
<event>
 7    0  0.4707675E-002  0.4565231E+03  0.7546771E-02  0.1025794E+00
         21   -1    0    0  502  501  0.00000000000E+00  0.00000000000E+00  0.44929539724E+03  0.44929539724E+03  0.00000000000E+00 0.  1.
         21   -1    0    0  501  502 -0.00000000000E+00 -0.00000000000E+00 -0.11596676224E+03  0.11596676224E+03  0.00000000000E+00 0.  1.
      99926    2    1    2    0    0  0.00000000000E+00  0.00000000000E+00  0.33332863500E+03  0.56526215948E+03  0.45652308816E+03 0.  0.
      99925    2    3    3    0    0 -0.77747785974E+02 -0.25765540284E+02  0.11022893896E+03  0.29669268287E+03  0.26299723914E+03 0.  0.
         25    1    4    4    0    0 -0.32225876971E+02  0.25575743845E+01  0.13877757967E+02  0.12994286667E+03  0.12509000000E+03 0.  0.
         25    1    4    4    0    0 -0.45521909004E+02 -0.28323114669E+02  0.96351180994E+02  0.16674981620E+03  0.12509000000E+03 0.  0.
         25    1    3    3    0    0  0.77747785974E+02  0.25765540284E+02  0.22309969604E+03  0.26856947660E+03  0.12509000000E+03 0.  0.
<mgrwt>
<rscale>  2 0.45652309E+03</rscale>
<asrwt>0</asrwt>
<pdfrwt beam="1">  1       21 0.66072852E-01 0.45652309E+03</pdfrwt>
<pdfrwt beam="2">  1       21 0.17053936E-01 0.45652309E+03</pdfrwt>
<totfact> 0.60141366E+04</totfact>
</mgrwt>
</event>
<event>
 7    0  0.4707675E-002  0.4542539E+03  0.7546771E-02  0.1026461E+00
         21   -1    0    0  502  501  0.00000000000E+00  0.00000000000E+00  0.22696588505E+03  0.22696588505E+03  0.00000000000E+00 0.  1.
         21   -1    0    0  501  502 -0.00000000000E+00 -0.00000000000E+00 -0.22728808843E+03  0.22728808843E+03  0.00000000000E+00 0.  1.
      99926    2    1    2    0    0  0.00000000000E+00  0.14210854715E-13 -0.32220338758E+00  0.45425397348E+03  0.45425385921E+03 0.  0.
      99925    2    3    3    0    0  0.44315151263E+02  0.86344349108E+02  0.57187631392E+02  0.28580793330E+03  0.26267198233E+03 0.  0.
         25    1    4    4    0    0  0.10217116270E+02  0.74864054715E+02  0.53406353978E+02  0.15559165433E+03  0.12509000000E+03 0.  0.
         25    1    4    4    0    0  0.34098034993E+02  0.11480294394E+02  0.37812774139E+01  0.13021627897E+03  0.12509000000E+03 0.  0.
         25    1    3    3    0    0 -0.44315151263E+02 -0.86344349108E+02 -0.57509834780E+02  0.16844604018E+03  0.12509000000E+03 0.  0.
<mgrwt>
<rscale>  2 0.45425386E+03</rscale>
<asrwt>0</asrwt>
<pdfrwt beam="1">  1       21 0.33377336E-01 0.45425386E+03</pdfrwt>
<pdfrwt beam="2">  1       21 0.33424719E-01 0.45425386E+03</pdfrwt>
<totfact> 0.69010411E+04</totfact>
</mgrwt>
</event>
<event>
 7    0  0.4707675E-002  0.4856435E+03  0.7546771E-02  0.1017596E+00
         21   -1    0    0  502  501  0.00000000000E+00  0.00000000000E+00  0.36365199809E+03  0.36365199809E+03  0.00000000000E+00 0. -1.
         21   -1    0    0  501  502 -0.00000000000E+00 -0.00000000000E+00 -0.16213961698E+03  0.16213961698E+03  0.00000000000E+00 0. -1.
      99926    2    1    2    0    0  0.00000000000E+00  0.00000000000E+00  0.20151238111E+03  0.52579161507E+03  0.48564347287E+03 0.  0.
      99925    2    3    3    0    0  0.72339074730E+02  0.50215099355E+02  0.54941367482E+01  0.27714496185E+03  0.26272542018E+03 0.  0.
         25    1    3    3    0    0 -0.72339074730E+02 -0.50215099355E+02  0.19601824436E+03  0.24864665322E+03  0.12509000000E+03 0.  0.
         25    1    4    4    0    0  0.33528378231E+02  0.43855765339E+02 -0.32667676775E+02  0.14057796949E+03  0.12509000000E+03 0.  0.
         25    1    4    4    0    0  0.38810696499E+02  0.63593340157E+01  0.38161813523E+02  0.13656699236E+03  0.12509000000E+03 0.  0.
<mgrwt>
<rscale>  2 0.48564347E+03</rscale>
<asrwt>0</asrwt>
<pdfrwt beam="1">  1       21 0.53478235E-01 0.48564347E+03</pdfrwt>
<pdfrwt beam="2">  1       21 0.23844061E-01 0.48564347E+03</pdfrwt>
<totfact> 0.50143975E+04</totfact>
</mgrwt>
</event>
<event>
 7    0  0.4707675E-002  0.4559718E+03  0.7546771E-02  0.1025956E+00
         21   -1    0    0  502  501  0.00000000000E+00  0.00000000000E+00  0.14424624045E+03  0.14424624045E+03  0.00000000000E+00 0.  1.
         21   -1    0    0  501  502 -0.00000000000E+00 -0.00000000000E+00 -0.36033912756E+03  0.36033912756E+03  0.00000000000E+00 0.  1.
      99926    2    1    2    0    0 -0.71054273576E-14  0.00000000000E+00 -0.21609288711E+03  0.50458536801E+03  0.45597177298E+03 0.  0.
      99925    2    3    3    0    0 -0.33540045336E+02  0.49473188467E+02 -0.28350867457E+02  0.27120348127E+03  0.26301145516E+03 0.  0.
         25    1    4    4    0    0  0.85804537383E+00  0.50460865598E+02 -0.40664242185E+02  0.14088336982E+03  0.12509000000E+03 0.  0.
         25    1    4    4    0    0 -0.34398090710E+02 -0.98767713156E+00  0.12313374728E+02  0.13032011145E+03  0.12509000000E+03 0.  0.
         25    1    3    3    0    0  0.33540045336E+02 -0.49473188467E+02 -0.18774201965E+03  0.23338188675E+03  0.12509000000E+03 0.  0.
<mgrwt>
<rscale>  2 0.45597177E+03</rscale>
<asrwt>0</asrwt>
<pdfrwt beam="1">  1       21 0.21212683E-01 0.45597177E+03</pdfrwt>
<pdfrwt beam="2">  1       21 0.52991048E-01 0.45597177E+03</pdfrwt>
<totfact> 0.64451138E+04</totfact>
</mgrwt>
</event>
<event>
 7    0  0.4707675E-002  0.4546398E+03  0.7546771E-02  0.1026347E+00
         21   -1    0    0  502  501  0.00000000000E+00  0.00000000000E+00  0.12941234857E+03  0.12941234857E+03  0.00000000000E+00 0.  1.
         21   -1    0    0  501  502 -0.00000000000E+00 -0.00000000000E+00 -0.39929991109E+03  0.39929991109E+03  0.00000000000E+00 0.  1.
      99926    2    1    2    0    0 -0.14210854715E-13  0.00000000000E+00 -0.26988756252E+03  0.52871225966E+03  0.45463981029E+03 0.  0.
      99925    2    3    3    0    0 -0.10585520123E+03  0.27693924635E+02 -0.20153337790E+03  0.34901228819E+03  0.26309997683E+03 0.  0.
         25    1    4    4    0    0 -0.13790338931E+02 -0.51428490929E+01 -0.96321859006E+02  0.15856238825E+03  0.12509000000E+03 0.  0.
         25    1    3    3    0    0  0.10585520123E+03 -0.27693924635E+02 -0.68354184622E+02  0.17969997147E+03  0.12509000000E+03 0.  0.
         25    1    4    4    0    0 -0.92064862300E+02  0.32836773728E+02 -0.10521151890E+03  0.19044989994E+03  0.12509000000E+03 0.  0.
<mgrwt>
<rscale>  2 0.45463981E+03</rscale>
<asrwt>0</asrwt>
<pdfrwt beam="1">  1       21 0.19031228E-01 0.45463981E+03</pdfrwt>
<pdfrwt beam="2">  1       21 0.58720576E-01 0.45463981E+03</pdfrwt>
<totfact> 0.63474818E+04</totfact>
</mgrwt>
</event>
<event>
 7    0  0.4707675E-002  0.4469070E+03  0.7546771E-02  0.1028648E+00
         21   -1    0    0  502  501  0.00000000000E+00  0.00000000000E+00  0.25060655436E+02  0.25060655436E+02  0.00000000000E+00 0. -1.
         21   -1    0    0  501  502 -0.00000000000E+00 -0.00000000000E+00 -0.19924249077E+04  0.19924249077E+04  0.00000000000E+00 0. -1.
      99926    2    1    2    0    0  0.00000000000E+00 -0.14210854715E-13 -0.19673642522E+04  0.20174855631E+04  0.44690703325E+03 0.  0.
      99925    2    3    3    0    0 -0.67725158069E+02  0.73711938900E+02 -0.13960864402E+04  0.14241677785E+04  0.26301400282E+03 0.  0.
         25    1    4    4    0    0 -0.41840349661E+02  0.40657029001E+02 -0.51154069061E+03  0.52983487533E+03  0.12509000000E+03 0.  0.
         25    1    4    4    0    0 -0.25884808407E+02  0.33054909899E+02 -0.88454574962E+03  0.89433290314E+03  0.12509000000E+03 0.  0.
         25    1    3    3    0    0  0.67725158069E+02 -0.73711938900E+02 -0.57127781202E+03  0.59331778465E+03  0.12509000000E+03 0.  0.
<mgrwt>
<rscale>  2 0.44690703E+03</rscale>
<asrwt>0</asrwt>
<pdfrwt beam="1">  1       21 0.36853909E-02 0.44690703E+03</pdfrwt>
<pdfrwt beam="2">  1       21 0.29300363E+00 0.44690703E+03</pdfrwt>
<totfact> 0.14304000E+04</totfact>
</mgrwt>
</event>
<event>
 7    0  0.4707675E-002  0.4638413E+03  0.7546771E-02  0.1023673E+00
         21   -1    0    0  502  501  0.00000000000E+00  0.00000000000E+00  0.13337622701E+03  0.13337622701E+03  0.00000000000E+00 0. -1.
         21   -1    0    0  501  502 -0.00000000000E+00 -0.00000000000E+00 -0.40327423741E+03  0.40327423741E+03  0.00000000000E+00 0. -1.
      99926    2    1    2    0    0  0.00000000000E+00  0.00000000000E+00 -0.26989801039E+03  0.53665046442E+03  0.46384133596E+03 0.  0.
      99925    2    3    3    0    0  0.82378023001E+02 -0.85549776140E+02 -0.13940274714E+03  0.32036032432E+03  0.26285491934E+03 0.  0.
         25    1    4    4    0    0  0.20763818843E+02 -0.67006017533E+02 -0.42629640892E+02  0.14961863835E+03  0.12509000000E+03 0.  0.
         25    1    3    3    0    0 -0.82378023001E+02  0.85549776140E+02 -0.13049526325E+03  0.21629014010E+03  0.12509000000E+03 0.  0.
         25    1    4    4    0    0  0.61614204158E+02 -0.18543758606E+02 -0.96773106248E+02  0.17074168598E+03  0.12509000000E+03 0.  0.
<mgrwt>
<rscale>  2 0.46384134E+03</rscale>
<asrwt>0</asrwt>
<pdfrwt beam="1">  1       21 0.19614151E-01 0.46384134E+03</pdfrwt>
<pdfrwt beam="2">  1       21 0.59305035E-01 0.46384134E+03</pdfrwt>
<totfact> 0.58547094E+04</totfact>
</mgrwt>
</event>
<event>
 7    0  0.4707675E-002  0.4447729E+03  0.7546771E-02  0.1029292E+00
         21   -1    0    0  502  501  0.00000000000E+00  0.00000000000E+00  0.18090133648E+03  0.18090133648E+03  0.00000000000E+00 0.  1.
         21   -1    0    0  501  502 -0.00000000000E+00 -0.00000000000E+00 -0.27338516662E+03  0.27338516662E+03  0.00000000000E+00 0.  1.
      99926    2    1    2    0    0  0.00000000000E+00  0.13322676296E-14 -0.92483830143E+02  0.45428650310E+03  0.44477293989E+03 0.  0.
      99925    2    3    3    0    0 -0.25816087720E+02 -0.34679439384E+01  0.43267554251E+02  0.26786106630E+03  0.26305697590E+03 0.  0.
         25    1    3    3    0    0  0.25816087720E+02  0.34679439384E+01 -0.13575138439E+03  0.18642543680E+03  0.12509000000E+03 0.  0.
         25    1    4    4    0    0  0.59395096016E+01  0.26793227049E+02  0.43658434368E+02  0.13530233472E+03  0.12509000000E+03 0.  0.
         25    1    4    4    0    0 -0.31755597322E+02 -0.30261170987E+02 -0.39088011731E+00  0.13255873158E+03  0.12509000000E+03 0.  0.
<mgrwt>
<rscale>  2 0.44477294E+03</rscale>
<asrwt>0</asrwt>
<pdfrwt beam="1">  1       21 0.26603138E-01 0.44477294E+03</pdfrwt>
<pdfrwt beam="2">  1       21 0.40203701E-01 0.44477294E+03</pdfrwt>
<totfact> 0.74484177E+04</totfact>
</mgrwt>
</event>
<event>
 7    0  0.4707675E-002  0.4539259E+03  0.7546771E-02  0.1026558E+00
         21   -1    0    0  502  501  0.00000000000E+00  0.00000000000E+00  0.10547028878E+04  0.10547028878E+04  0.00000000000E+00 0.  1.
         21   -1    0    0  501  502 -0.00000000000E+00 -0.00000000000E+00 -0.48840471371E+02  0.48840471371E+02  0.00000000000E+00 0.  1.
      99926    2    1    2    0    0  0.00000000000E+00 -0.35527136788E-14  0.10058624164E+04  0.11035433592E+04  0.45392592434E+03 0.  0.
      99925    2    3    3    0    0  0.68788399592E+02  0.93827050879E+01  0.41942826344E+03  0.49991068695E+03  0.26300332258E+03 0.  0.
         25    1    3    3    0    0 -0.68788399592E+02 -0.93827050879E+01  0.58643415301E+03  0.60363267223E+03  0.12509000000E+03 0.  0.
         25    1    4    4    0    0  0.63038555365E+02 -0.24667295484E+02  0.22162944794E+03  0.26334284729E+03  0.12509000000E+03 0.  0.
         25    1    4    4    0    0  0.57498442269E+01  0.34050000572E+02  0.19779881550E+03  0.23656783966E+03  0.12509000000E+03 0.  0.
<mgrwt>
<rscale>  2 0.45392592E+03</rscale>
<asrwt>0</asrwt>
<pdfrwt beam="1">  1       21 0.15510335E+00 0.45392592E+03</pdfrwt>
<pdfrwt beam="2">  1       21 0.71824229E-02 0.45392592E+03</pdfrwt>
<totfact> 0.35669478E+04</totfact>
</mgrwt>
</event>
<event>
 7    0  0.4707675E-002  0.4641772E+03  0.7546771E-02  0.1023577E+00
         21   -1    0    0  502  501  0.00000000000E+00  0.00000000000E+00  0.33520929639E+03  0.33520929639E+03  0.00000000000E+00 0. -1.
         21   -1    0    0  501  502 -0.00000000000E+00 -0.00000000000E+00 -0.16069101088E+03  0.16069101088E+03  0.00000000000E+00 0. -1.
      99926    2    1    2    0    0  0.00000000000E+00  0.00000000000E+00  0.17451828551E+03  0.49590030726E+03  0.46417721052E+03 0.  0.
      99925    2    3    3    0    0 -0.98294158337E+02  0.71610395792E+02  0.10545961445E+03  0.30826662559E+03  0.26290072618E+03 0.  0.
         25    1    4    4    0    0 -0.40457852194E+02  0.13699843569E+02  0.85572285879E+02  0.15746316308E+03  0.12509000000E+03 0.  0.
         25    1    3    3    0    0  0.98294158337E+02 -0.71610395792E+02  0.69058671060E+02  0.18763368167E+03  0.12509000000E+03 0.  0.
         25    1    4    4    0    0 -0.57836306143E+02  0.57910552223E+02  0.19887328574E+02  0.15080346251E+03  0.12509000000E+03 0.  0.
<mgrwt>
<rscale>  2 0.46417721E+03</rscale>
<asrwt>0</asrwt>
<pdfrwt beam="1">  1       21 0.49295485E-01 0.46417721E+03</pdfrwt>
<pdfrwt beam="2">  1       21 0.23631031E-01 0.46417721E+03</pdfrwt>
<totfact> 0.60993414E+04</totfact>
</mgrwt>
</event>
<event>
 7    0  0.4707675E-002  0.4524157E+03  0.7546771E-02  0.1027004E+00
         21   -1    0    0  502  501  0.00000000000E+00  0.00000000000E+00  0.61956348158E+02  0.61956348158E+02  0.00000000000E+00 0.  1.
         21   -1    0    0  501  502 -0.00000000000E+00 -0.00000000000E+00 -0.82590403695E+03  0.82590403695E+03  0.00000000000E+00 0.  1.
      99926    2    1    2    0    0  0.71054273576E-14  0.00000000000E+00 -0.76394768879E+03  0.88786038511E+03  0.45241572943E+03 0.  0.
      99925    2    3    3    0    0 -0.39824016099E+02  0.49427397023E+01 -0.27937335024E+03  0.38579447248E+03  0.26301620338E+03 0.  0.
         25    1    4    4    0    0 -0.40122153664E+02 -0.10807258543E+02 -0.19003176256E+03  0.23127075677E+03  0.12509000000E+03 0.  0.
         25    1    4    4    0    0  0.29813756554E+00  0.15749998245E+02 -0.89341587672E+02  0.15452371572E+03  0.12509000000E+03 0.  0.
         25    1    3    3    0    0  0.39824016099E+02 -0.49427397023E+01 -0.48457433856E+03  0.50206591263E+03  0.12509000000E+03 0.  0.
<mgrwt>
<rscale>  2 0.45241573E+03</rscale>
<asrwt>0</asrwt>
<pdfrwt beam="1">  1       21 0.91112277E-02 0.45241573E+03</pdfrwt>
<pdfrwt beam="2">  1       21 0.12145648E+00 0.45241573E+03</pdfrwt>
<totfact> 0.44659679E+04</totfact>
</mgrwt>
</event>
<event>
 7    0  0.4707675E-002  0.4577139E+03  0.7546771E-02  0.1025446E+00
         21   -1    0    0  502  501  0.00000000000E+00  0.00000000000E+00  0.32919247512E+03  0.32919247512E+03  0.00000000000E+00 0.  1.
         21   -1    0    0  501  502 -0.00000000000E+00 -0.00000000000E+00 -0.15910295827E+03  0.15910295827E+03  0.00000000000E+00 0.  1.
      99926    2    1    2    0    0 -0.14210854715E-13 -0.35527136788E-14  0.17008951685E+03  0.48829543339E+03  0.45771386971E+03 0.  0.
      99925    2    3    3    0    0  0.93782314503E+02  0.25566068095E+02  0.39887572166E+02  0.28323739075E+03  0.26302785927E+03 0.  0.
         25    1    4    4    0    0  0.10874050076E+02 -0.89982738674E+01  0.26615067726E+02  0.12866656064E+03  0.12509000000E+03 0.  0.
         25    1    3    3    0    0 -0.93782314503E+02 -0.25566068095E+02  0.13020194468E+03  0.20505804264E+03  0.12509000000E+03 0.  0.
         25    1    4    4    0    0  0.82908264427E+02  0.34564341963E+02  0.13272504440E+02  0.15457083011E+03  0.12509000000E+03 0.  0.
<mgrwt>
<rscale>  2 0.45771387E+03</rscale>
<asrwt>0</asrwt>
<pdfrwt beam="1">  1       21 0.48410658E-01 0.45771387E+03</pdfrwt>
<pdfrwt beam="2">  1       21 0.23397494E-01 0.45771387E+03</pdfrwt>
<totfact> 0.64695942E+04</totfact>
</mgrwt>
</event>
<event>
 7    0  0.4707675E-002  0.4566925E+03  0.7546771E-02  0.1025745E+00
         21   -1    0    0  502  501  0.00000000000E+00  0.00000000000E+00  0.17403460933E+03  0.17403460933E+03  0.00000000000E+00 0.  1.
         21   -1    0    0  501  502 -0.00000000000E+00 -0.00000000000E+00 -0.29960713760E+03  0.29960713760E+03  0.00000000000E+00 0.  1.
      99926    2    1    2    0    0  0.00000000000E+00  0.00000000000E+00 -0.12557252827E+03  0.47364174692E+03  0.45669250549E+03 0.  0.
      99925    2    3    3    0    0 -0.99277745333E+02  0.40616859746E+02 -0.36194108481E+02  0.28618025745E+03  0.26283707168E+03 0.  0.
         25    1    4    4    0    0 -0.11748491850E+02  0.34173352678E+02 -0.55096509000E+01  0.13032156171E+03  0.12509000000E+03 0.  0.
         25    1    3    3    0    0  0.99277745333E+02 -0.40616859746E+02 -0.89378419789E+02  0.18746148948E+03  0.12509000000E+03 0.  0.
         25    1    4    4    0    0 -0.87529253483E+02  0.64435070688E+01 -0.30684457581E+02  0.15585869573E+03  0.12509000000E+03 0.  0.
<mgrwt>
<rscale>  2 0.45669251E+03</rscale>
<asrwt>0</asrwt>
<pdfrwt beam="1">  1       21 0.25593325E-01 0.45669251E+03</pdfrwt>
<pdfrwt beam="2">  1       21 0.44059873E-01 0.45669251E+03</pdfrwt>
<totfact> 0.66271492E+04</totfact>
</mgrwt>
</event>
<event>
 7    0  0.4707675E-002  0.4538708E+03  0.7546771E-02  0.1026574E+00
         21   -1    0    0  502  501  0.00000000000E+00  0.00000000000E+00  0.10292498914E+03  0.10292498914E+03  0.00000000000E+00 0.  1.
         21   -1    0    0  501  502 -0.00000000000E+00 -0.00000000000E+00 -0.50036132878E+03  0.50036132878E+03  0.00000000000E+00 0.  1.
      99926    2    1    2    0    0  0.00000000000E+00  0.00000000000E+00 -0.39743633963E+03  0.60328631792E+03  0.45387083771E+03 0.  0.
      99925    2    3    3    0    0  0.14653025214E+02  0.86829841174E+02 -0.15806472634E+03  0.31920814238E+03  0.26297385418E+03 0.  0.
         25    1    3    3    0    0 -0.14653025214E+02 -0.86829841174E+02 -0.23937161329E+03  0.28407817554E+03  0.12509000000E+03 0.  0.
         25    1    4    4    0    0  0.41452825015E+02  0.57116362439E+02 -0.61719872886E+02  0.15632487444E+03  0.12509000000E+03 0.  0.
         25    1    4    4    0    0 -0.26799799800E+02  0.29713478735E+02 -0.96344853458E+02  0.16288326794E+03  0.12509000000E+03 0.  0.
<mgrwt>
<rscale>  2 0.45387084E+03</rscale>
<asrwt>0</asrwt>
<pdfrwt beam="1">  1       21 0.15136028E-01 0.45387084E+03</pdfrwt>
<pdfrwt beam="2">  1       21 0.73582549E-01 0.45387084E+03</pdfrwt>
<totfact> 0.59001024E+04</totfact>
</mgrwt>
</event>
<event>
 7    0  0.4707675E-002  0.4492418E+03  0.7546771E-02  0.1027948E+00
         21   -1    0    0  502  501  0.00000000000E+00  0.00000000000E+00  0.59434198330E+03  0.59434198330E+03  0.00000000000E+00 0.  1.
         21   -1    0    0  501  502 -0.00000000000E+00 -0.00000000000E+00 -0.84891446507E+02  0.84891446507E+02  0.00000000000E+00 0.  1.
      99926    2    1    2    0    0  0.00000000000E+00 -0.17763568394E-14  0.50945053679E+03  0.67923342981E+03  0.44924180875E+03 0.  0.
      99925    2    3    3    0    0  0.43843733274E+02 -0.48696633492E+01  0.17430479182E+03  0.31879457918E+03  0.26325242011E+03 0.  0.
         25    1    3    3    0    0 -0.43843733274E+02  0.48696633492E+01  0.33514574498E+03  0.36043885063E+03  0.12509000000E+03 0.  0.
         25    1    4    4    0    0  0.18854669108E+02  0.37985903999E+02  0.93532501865E+02  0.16184642243E+03  0.12509000000E+03 0.  0.
         25    1    4    4    0    0  0.24989064166E+02 -0.42855567348E+02  0.80772289952E+02  0.15694815674E+03  0.12509000000E+03 0.  0.
<mgrwt>
<rscale>  2 0.44924181E+03</rscale>
<asrwt>0</asrwt>
<pdfrwt beam="1">  1       21 0.87403231E-01 0.44924181E+03</pdfrwt>
<pdfrwt beam="2">  1       21 0.12484037E-01 0.44924181E+03</pdfrwt>
<totfact> 0.56566984E+04</totfact>
</mgrwt>
</event>
<event>
 7    0  0.4707675E-002  0.4566346E+03  0.7546771E-02  0.1025762E+00
         21   -1    0    0  502  501  0.00000000000E+00  0.00000000000E+00  0.47853771095E+02  0.47853771095E+02  0.00000000000E+00 0.  1.
         21   -1    0    0  501  502 -0.00000000000E+00 -0.00000000000E+00 -0.10893349525E+04  0.10893349525E+04  0.00000000000E+00 0.  1.
      99926    2    1    2    0    0  0.00000000000E+00  0.71054273576E-14 -0.10414811814E+04  0.11371887236E+04  0.45663458241E+03 0.  0.
      99925    2    3    3    0    0 -0.95544795429E+02  0.52639575849E+02 -0.56608078763E+03  0.63364848153E+03  0.26298898673E+03 0.  0.
         25    1    4    4    0    0 -0.20177334224E+02  0.28027621590E+02 -0.19634002275E+03  0.23534992038E+03  0.12509000000E+03 0.  0.
         25    1    4    4    0    0 -0.75367461204E+02  0.24611954259E+02 -0.36974076488E+03  0.39829856115E+03  0.12509000000E+03 0.  0.
         25    1    3    3    0    0  0.95544795429E+02 -0.52639575849E+02 -0.47540039378E+03  0.50354024207E+03  0.12509000000E+03 0.  0.
<mgrwt>
<rscale>  2 0.45663458E+03</rscale>
<asrwt>0</asrwt>
<pdfrwt beam="1">  1       21 0.70373188E-02 0.45663458E+03</pdfrwt>
<pdfrwt beam="2">  1       21 0.16019633E+00 0.45663458E+03</pdfrwt>
<totfact> 0.33780540E+04</totfact>
</mgrwt>
</event>
<event>
 7    0  0.4707675E-002  0.4557117E+03  0.7546771E-02  0.1026032E+00
         21   -1    0    0  502  501  0.00000000000E+00  0.00000000000E+00  0.18330468831E+04  0.18330468831E+04  0.00000000000E+00 0.  1.
         21   -1    0    0  501  502 -0.00000000000E+00 -0.00000000000E+00 -0.28323492372E+02  0.28323492372E+02  0.00000000000E+00 0.  1.
      99926    2    1    2    0    0  0.00000000000E+00  0.20504431486E-14  0.18047233907E+04  0.18613703754E+04  0.45571170452E+03 0.  0.
      99925    2    3    3    0    0  0.10389964530E+03  0.26118443450E-01  0.13255934361E+04  0.13553978876E+04  0.26288845326E+03 0.  0.
         25    1    3    3    0    0 -0.10389964530E+03 -0.26118443450E-01  0.47912995454E+03  0.50597248780E+03  0.12509000000E+03 0.  0.
         25    1    4    4    0    0  0.59448490170E+02  0.39302121080E+02  0.64624618322E+03  0.66208792251E+03  0.12509000000E+03 0.  0.
         25    1    4    4    0    0  0.44451155129E+02 -0.39276002637E+02  0.67934725292E+03  0.69330996512E+03  0.12509000000E+03 0.  0.
<mgrwt>
<rscale>  2 0.45571170E+03</rscale>
<asrwt>0</asrwt>
<pdfrwt beam="1">  1       21 0.26956564E+00 0.45571170E+03</pdfrwt>
<pdfrwt beam="2">  1       21 0.41652207E-02 0.45571170E+03</pdfrwt>
<totfact> 0.16019499E+04</totfact>
</mgrwt>
</event>
<event>
 7    0  0.4707675E-002  0.4508491E+03  0.7546771E-02  0.1027469E+00
         21   -1    0    0  502  501  0.00000000000E+00  0.00000000000E+00  0.10830851440E+04  0.10830851440E+04  0.00000000000E+00 0.  1.
         21   -1    0    0  501  502 -0.00000000000E+00 -0.00000000000E+00 -0.46918045649E+02  0.46918045649E+02  0.00000000000E+00 0.  1.
      99926    2    1    2    0    0  0.00000000000E+00  0.00000000000E+00  0.10361670983E+04  0.11300031896E+04  0.45084914651E+03 0.  0.
      99925    2    3    3    0    0 -0.12558406007E+02  0.46732900345E+02  0.89990208077E+03  0.93880344944E+03  0.26303323777E+03 0.  0.
         25    1    4    4    0    0  0.30338791295E+02  0.24336491338E+02  0.50650961930E+03  0.52317512328E+03  0.12509000000E+03 0.  0.
         25    1    3    3    0    0  0.12558406007E+02 -0.46732900345E+02  0.13626501756E+03  0.19119974018E+03  0.12509000000E+03 0.  0.
         25    1    4    4    0    0 -0.42897197302E+02  0.22396409007E+02  0.39339246147E+03  0.41562832617E+03  0.12509000000E+03 0.  0.
<mgrwt>
<rscale>  2 0.45084915E+03</rscale>
<asrwt>0</asrwt>
<pdfrwt beam="1">  1       21 0.15927721E+00 0.45084915E+03</pdfrwt>
<pdfrwt beam="2">  1       21 0.68997133E-02 0.45084915E+03</pdfrwt>
<totfact> 0.35594958E+04</totfact>
</mgrwt>
</event>
<event>
 7    0  0.4707675E-002  0.4249959E+03  0.7546771E-02  0.1035452E+00
         21   -1    0    0  502  501  0.00000000000E+00  0.00000000000E+00  0.60979731366E+02  0.60979731366E+02  0.00000000000E+00 0.  1.
         21   -1    0    0  501  502 -0.00000000000E+00 -0.00000000000E+00 -0.74049811762E+03  0.74049811762E+03  0.00000000000E+00 0.  1.
      99926    2    1    2    0    0  0.00000000000E+00 -0.17763568394E-14 -0.67951838625E+03  0.80147784899E+03  0.42499588840E+03 0.  0.
      99925    2    3    3    0    0  0.80113315473E+02  0.11971175655E+02 -0.45993320904E+03  0.53609772442E+03  0.26325037700E+03 0.  0.
         25    1    3    3    0    0 -0.80113315473E+02 -0.11971175655E+02 -0.21958517721E+03  0.26538012457E+03  0.12509000000E+03 0.  0.
         25    1    4    4    0    0  0.69656626825E+02 -0.19319377320E+02 -0.21379646743E+03  0.25803434187E+03  0.12509000000E+03 0.  0.
         25    1    4    4    0    0  0.10456688648E+02  0.31290552975E+02 -0.24613674161E+03  0.27806338255E+03  0.12509000000E+03 0.  0.
<mgrwt>
<rscale>  2 0.42499589E+03</rscale>
<asrwt>0</asrwt>
<pdfrwt beam="1">  1       21 0.89676073E-02 0.42499589E+03</pdfrwt>
<pdfrwt beam="2">  1       21 0.10889678E+00 0.42499589E+03</pdfrwt>
<totfact> 0.60793694E+04</totfact>
</mgrwt>
</event>
<event>
 7    0  0.4707675E-002  0.4563544E+03  0.7546771E-02  0.1025844E+00
         21   -1    0    0  502  501  0.00000000000E+00  0.00000000000E+00  0.20516106638E+03  0.20516106638E+03  0.00000000000E+00 0. -1.
         21   -1    0    0  501  502 -0.00000000000E+00 -0.00000000000E+00 -0.25377545181E+03  0.25377545181E+03  0.00000000000E+00 0. -1.
      99926    2    1    2    0    0 -0.17763568394E-14  0.00000000000E+00 -0.48614385429E+02  0.45893651819E+03  0.45635443381E+03 0.  0.
      99925    2    3    3    0    0 -0.66762583698E+01  0.10587308912E+03  0.12383091436E+02  0.28394542210E+03  0.26309309826E+03 0.  0.
         25    1    3    3    0    0  0.66762583698E+01 -0.10587308912E+03 -0.60997476865E+02  0.17499109609E+03  0.12509000000E+03 0.  0.
         25    1    4    4    0    0  0.33743237752E+02  0.34956365557E+02  0.18345460368E+01  0.13420665873E+03  0.12509000000E+03 0.  0.
         25    1    4    4    0    0 -0.40419496122E+02  0.70916723565E+02  0.10548545399E+02  0.14973876338E+03  0.12509000000E+03 0.  0.
<mgrwt>
<rscale>  2 0.45635443E+03</rscale>
<asrwt>0</asrwt>
<pdfrwt beam="1">  1       21 0.30170745E-01 0.45635443E+03</pdfrwt>
<pdfrwt beam="2">  1       21 0.37319919E-01 0.45635443E+03</pdfrwt>
<totfact> 0.67525665E+04</totfact>
</mgrwt>
</event>
<event>
 7    0  0.4707675E-002  0.4519880E+03  0.7546771E-02  0.1027131E+00
         21   -1    0    0  502  501  0.00000000000E+00  0.00000000000E+00  0.52262174924E+03  0.52262174924E+03  0.00000000000E+00 0.  1.
         21   -1    0    0  501  502 -0.00000000000E+00 -0.00000000000E+00 -0.97725145924E+02  0.97725145924E+02  0.00000000000E+00 0.  1.
      99926    2    1    2    0    0  0.00000000000E+00  0.17763568394E-14  0.42489660331E+03  0.62034689516E+03  0.45198799412E+03 0.  0.
      99925    2    3    3    0    0  0.83973725033E+02 -0.46976601917E+01  0.17017297439E+03  0.32436498737E+03  0.26302119555E+03 0.  0.
         25    1    3    3    0    0 -0.83973725033E+02  0.46976601917E+01  0.25472362893E+03  0.29598190780E+03  0.12509000000E+03 0.  0.
         25    1    4    4    0    0  0.71713401641E+02  0.21518949084E+02  0.71151181219E+02  0.16222168731E+03  0.12509000000E+03 0.  0.
         25    1    4    4    0    0  0.12260323391E+02 -0.26216609276E+02  0.99021793166E+02  0.16214330006E+03  0.12509000000E+03 0.  0.
<mgrwt>
<rscale>  2 0.45198799E+03</rscale>
<asrwt>0</asrwt>
<pdfrwt beam="1">  1       21 0.76856139E-01 0.45198799E+03</pdfrwt>
<pdfrwt beam="2">  1       21 0.14371345E-01 0.45198799E+03</pdfrwt>
<totfact> 0.58829776E+04</totfact>
</mgrwt>
</event>
<event>
 7    0  0.4707675E-002  0.4552667E+03  0.7546771E-02  0.1026163E+00
         21   -1    0    0  502  501  0.00000000000E+00  0.00000000000E+00  0.18832082458E+03  0.18832082458E+03  0.00000000000E+00 0. -1.
         21   -1    0    0  501  502 -0.00000000000E+00 -0.00000000000E+00 -0.27515242558E+03  0.27515242558E+03  0.00000000000E+00 0. -1.
      99926    2    1    2    0    0  0.00000000000E+00  0.00000000000E+00 -0.86831601000E+02  0.46347325015E+03  0.45526665447E+03 0.  0.
      99925    2    3    3    0    0  0.66423237201E+02 -0.74271230179E+02 -0.10997135668E+03  0.30188358939E+03  0.26289111849E+03 0.  0.
         25    1    3    3    0    0 -0.66423237201E+02  0.74271230179E+02  0.23139755675E+02  0.16158966076E+03  0.12509000000E+03 0.  0.
         25    1    4    4    0    0  0.26464874930E+02  0.42510409006E+01 -0.44303871918E+02  0.13538390643E+03  0.12509000000E+03 0.  0.
         25    1    4    4    0    0  0.39958362272E+02 -0.78522271079E+02 -0.65667484757E+02  0.16649968296E+03  0.12509000000E+03 0.  0.
<mgrwt>
<rscale>  2 0.45526665E+03</rscale>
<asrwt>0</asrwt>
<pdfrwt beam="1">  1       21 0.27694239E-01 0.45526665E+03</pdfrwt>
<pdfrwt beam="2">  1       21 0.40463592E-01 0.45526665E+03</pdfrwt>
<totfact> 0.67779873E+04</totfact>
</mgrwt>
</event>
<event>
 7    0  0.4707675E-002  0.4544969E+03  0.7546771E-02  0.1026389E+00
         21   -1    0    0  502  501  0.00000000000E+00  0.00000000000E+00  0.18554939935E+03  0.18554939935E+03  0.00000000000E+00 0. -1.
         21   -1    0    0  501  502 -0.00000000000E+00 -0.00000000000E+00 -0.27831860403E+03  0.27831860403E+03  0.00000000000E+00 0. -1.
      99926    2    1    2    0    0  0.00000000000E+00 -0.71054273576E-14 -0.92769204680E+02  0.46386800339E+03  0.45449686383E+03 0.  0.
      99925    2    3    3    0    0  0.74864674268E+02  0.57518328472E+02  0.39365320162E+01  0.27971430353E+03  0.26327080687E+03 0.  0.
         25    1    4    4    0    0  0.51678837977E+02  0.67178589533E+02 -0.96402408710E+01  0.15140709207E+03  0.12509000000E+03 0.  0.
         25    1    3    3    0    0 -0.74864674268E+02 -0.57518328472E+02 -0.96705736696E+02  0.18415369986E+03  0.12509000000E+03 0.  0.
         25    1    4    4    0    0  0.23185836291E+02 -0.96602610608E+01  0.13576772887E+02  0.12830721145E+03  0.12509000000E+03 0.  0.
<mgrwt>
<rscale>  2 0.45449686E+03</rscale>
<asrwt>0</asrwt>
<pdfrwt beam="1">  1       21 0.27286677E-01 0.45449686E+03</pdfrwt>
<pdfrwt beam="2">  1       21 0.40929206E-01 0.45449686E+03</pdfrwt>
<totfact> 0.68166602E+04</totfact>
</mgrwt>
</event>
<event>
 7    0  0.4707675E-002  0.4378229E+03  0.7546771E-02  0.1031417E+00
         21   -1    0    0  502  501  0.00000000000E+00  0.00000000000E+00  0.37994446338E+03  0.37994446338E+03  0.00000000000E+00 0. -1.
         21   -1    0    0  501  502 -0.00000000000E+00 -0.00000000000E+00 -0.12612951828E+03  0.12612951828E+03  0.00000000000E+00 0. -1.
      99926    2    1    2    0    0  0.00000000000E+00  0.71054273576E-14  0.25381494509E+03  0.50607398166E+03  0.43782285066E+03 0.  0.
      99925    2    3    3    0    0  0.82907128351E+02 -0.39305358107E+02  0.19564867436E+03  0.34039559967E+03  0.26300619269E+03 0.  0.
         25    1    4    4    0    0  0.24509565327E+02 -0.35276239554E+02  0.13677139040E+03  0.19026048776E+03  0.12509000000E+03 0.  0.
         25    1    4    4    0    0  0.58397563024E+02 -0.40291185526E+01  0.58877283954E+02  0.15013511191E+03  0.12509000000E+03 0.  0.
         25    1    3    3    0    0 -0.82907128351E+02  0.39305358107E+02  0.58166270735E+02  0.16567838199E+03  0.12509000000E+03 0.  0.
<mgrwt>
<rscale>  2 0.43782285E+03</rscale>
<asrwt>0</asrwt>
<pdfrwt beam="1">  1       21 0.55874186E-01 0.43782285E+03</pdfrwt>
<pdfrwt beam="2">  1       21 0.18548459E-01 0.43782285E+03</pdfrwt>
<totfact> 0.74491879E+04</totfact>
</mgrwt>
</event>
<event>
 7    0  0.4707675E-002  0.4257186E+03  0.7546771E-02  0.1035221E+00
         21   -1    0    0  502  501  0.00000000000E+00  0.00000000000E+00  0.63080229072E+02  0.63080229072E+02  0.00000000000E+00 0. -1.
         21   -1    0    0  501  502 -0.00000000000E+00 -0.00000000000E+00 -0.71827701943E+03  0.71827701943E+03  0.00000000000E+00 0. -1.
      99926    2    1    2    0    0  0.17763568394E-14  0.00000000000E+00 -0.65519679036E+03  0.78135724851E+03  0.42571858744E+03 0.  0.
      99925    2    3    3    0    0 -0.87732426993E+01 -0.61017932385E+02 -0.32295487488E+03  0.42103467585E+03  0.26300226083E+03 0.  0.
         25    1    4    4    0    0 -0.12263417061E+02  0.86716539438E+01 -0.16839958232E+03  0.21031290119E+03  0.12509000000E+03 0.  0.
         25    1    4    4    0    0  0.34901743614E+01 -0.69689586329E+02 -0.15455529255E+03  0.21072177466E+03  0.12509000000E+03 0.  0.
         25    1    3    3    0    0  0.87732426993E+01  0.61017932385E+02 -0.33224191549E+03  0.36032257266E+03  0.12509000000E+03 0.  0.
<mgrwt>
<rscale>  2 0.42571859E+03</rscale>
<asrwt>0</asrwt>
<pdfrwt beam="1">  1       21 0.92765039E-02 0.42571859E+03</pdfrwt>
<pdfrwt beam="2">  1       21 0.10562898E+00 0.42571859E+03</pdfrwt>
<totfact> 0.61681507E+04</totfact>
</mgrwt>
</event>
<event>
 7    0  0.4707675E-002  0.4317157E+03  0.7546771E-02  0.1033319E+00
         21   -1    0    0  502  501  0.00000000000E+00  0.00000000000E+00  0.85832231975E+03  0.85832231975E+03  0.00000000000E+00 0.  1.
         21   -1    0    0  501  502 -0.00000000000E+00 -0.00000000000E+00 -0.54285682953E+02  0.54285682953E+02  0.00000000000E+00 0.  1.
      99926    2    1    2    0    0 -0.71054273576E-14  0.00000000000E+00  0.80403663680E+03  0.91260800271E+03  0.43171570887E+03 0.  0.
      99925    2    3    3    0    0  0.48300630769E+02 -0.56040787836E+02  0.41059383487E+03  0.49318188606E+03  0.26299725221E+03 0.  0.
         25    1    3    3    0    0 -0.48300630769E+02  0.56040787836E+02  0.39344280193E+03  0.41942611665E+03  0.12509000000E+03 0.  0.
         25    1    4    4    0    0  0.49992147066E+02 -0.17588771278E+02  0.15559043017E+03  0.20655379373E+03  0.12509000000E+03 0.  0.
         25    1    4    4    0    0 -0.16915162970E+01 -0.38452016558E+02  0.25500340470E+03  0.28662809233E+03  0.12509000000E+03 0.  0.
<mgrwt>
<rscale>  2 0.43171571E+03</rscale>
<asrwt>0</asrwt>
<pdfrwt beam="1">  1       21 0.12622386E+00 0.43171571E+03</pdfrwt>
<pdfrwt beam="2">  1       21 0.79831892E-02 0.43171571E+03</pdfrwt>
<totfact> 0.51443865E+04</totfact>
</mgrwt>
</event>
<event>
 7    0  0.4707675E-002  0.4532713E+03  0.7546771E-02  0.1026751E+00
         21   -1    0    0  502  501  0.00000000000E+00  0.00000000000E+00  0.91014657895E+03  0.91014657895E+03  0.00000000000E+00 0. -1.
         21   -1    0    0  501  502 -0.00000000000E+00 -0.00000000000E+00 -0.56434554237E+02  0.56434554237E+02  0.00000000000E+00 0. -1.
      99926    2    1    2    0    0  0.00000000000E+00  0.00000000000E+00  0.85371202471E+03  0.96658113318E+03  0.45327129392E+03 0.  0.
      99925    2    3    3    0    0 -0.57651522184E+02 -0.95361472629E+02  0.53855997338E+03  0.60966961469E+03  0.26312104759E+03 0.  0.
         25    1    3    3    0    0  0.57651522184E+02  0.95361472629E+02  0.31515205133E+03  0.35691151849E+03  0.12509000000E+03 0.  0.
         25    1    4    4    0    0 -0.19869338797E+02 -0.70778252361E+02  0.35057781629E+03  0.37941621606E+03  0.12509000000E+03 0.  0.
         25    1    4    4    0    0 -0.37782183387E+02 -0.24583220268E+02  0.18798215709E+03  0.23025339863E+03  0.12509000000E+03 0.  0.
<mgrwt>
<rscale>  2 0.45327129E+03</rscale>
<asrwt>0</asrwt>
<pdfrwt beam="1">  1       21 0.13384508E+00 0.45327129E+03</pdfrwt>
<pdfrwt beam="2">  1       21 0.82991997E-02 0.45327129E+03</pdfrwt>
<totfact> 0.41028328E+04</totfact>
</mgrwt>
</event>
<event>
 7    0  0.4707675E-002  0.4399790E+03  0.7546771E-02  0.1030753E+00
         21   -1    0    0  502  501  0.00000000000E+00  0.00000000000E+00  0.35706236355E+02  0.35706236355E+02  0.00000000000E+00 0. -1.
         21   -1    0    0  501  502 -0.00000000000E+00 -0.00000000000E+00 -0.13553763887E+04  0.13553763887E+04  0.00000000000E+00 0. -1.
      99926    2    1    2    0    0  0.00000000000E+00  0.35527136788E-14 -0.13196701524E+04  0.13910826251E+04  0.43997904353E+03 0.  0.
      99925    2    3    3    0    0  0.94876105588E+02  0.19817744348E+02 -0.89893144585E+03  0.94156868128E+03  0.26283001890E+03 0.  0.
         25    1    4    4    0    0  0.56466443108E+02 -0.28322702890E+02 -0.42065688085E+03  0.44338510823E+03  0.12509000000E+03 0.  0.
         25    1    4    4    0    0  0.38409662480E+02  0.48140447238E+02 -0.47827456500E+03  0.49818357305E+03  0.12509000000E+03 0.  0.
         25    1    3    3    0    0 -0.94876105588E+02 -0.19817744348E+02 -0.42073870653E+03  0.44951394380E+03  0.12509000000E+03 0.  0.
<mgrwt>
<rscale>  2 0.43997904E+03</rscale>
<asrwt>0</asrwt>
<pdfrwt beam="1">  1       21 0.52509179E-02 0.43997904E+03</pdfrwt>
<pdfrwt beam="2">  1       21 0.19932003E+00 0.43997904E+03</pdfrwt>
<totfact> 0.29913194E+04</totfact>
</mgrwt>
</event>
<event>
 7    0  0.4707675E-002  0.4568591E+03  0.7546771E-02  0.1025696E+00
         21   -1    0    0  502  501  0.00000000000E+00  0.00000000000E+00  0.88412626340E+03  0.88412626340E+03  0.00000000000E+00 0. -1.
         21   -1    0    0  501  502 -0.00000000000E+00 -0.00000000000E+00 -0.59018777257E+02  0.59018777257E+02  0.00000000000E+00 0. -1.
      99926    2    1    2    0    0 -0.14210854715E-13  0.00000000000E+00  0.82510748614E+03  0.94314504066E+03  0.45685906364E+03 0.  0.
      99925    2    3    3    0    0  0.64117119653E+02 -0.29486476910E+02  0.70557610416E+03  0.75628756360E+03  0.26296916690E+03 0.  0.
         25    1    3    3    0    0 -0.64117119653E+02  0.29486476910E+02  0.11953138198E+03  0.18685747705E+03  0.12509000000E+03 0.  0.
         25    1    4    4    0    0  0.14969651056E+02 -0.81123210969E+01  0.23930698120E+03  0.27056466798E+03  0.12509000000E+03 0.  0.
         25    1    4    4    0    0  0.49147468597E+02 -0.21374155813E+02  0.46626912296E+03  0.48572289563E+03  0.12509000000E+03 0.  0.
<mgrwt>
<rscale>  2 0.45685906E+03</rscale>
<asrwt>0</asrwt>
<pdfrwt beam="1">  1       21 0.13001856E+00 0.45685906E+03</pdfrwt>
<pdfrwt beam="2">  1       21 0.86792325E-02 0.45685906E+03</pdfrwt>
<totfact> 0.40822882E+04</totfact>
</mgrwt>
</event>
<event>
 7    0  0.4707675E-002  0.4599586E+03  0.7546771E-02  0.1024793E+00
         21   -1    0    0  502  501  0.00000000000E+00  0.00000000000E+00  0.10837163433E+04  0.10837163433E+04  0.00000000000E+00 0. -1.
         21   -1    0    0  501  502 -0.00000000000E+00 -0.00000000000E+00 -0.48804729608E+02  0.48804729608E+02  0.00000000000E+00 0. -1.
      99926    2    1    2    0    0  0.00000000000E+00  0.14210854715E-13  0.10349116137E+04  0.11325210729E+04  0.45995862034E+03 0.  0.
      99925    2    3    3    0    0 -0.13370315894E+02 -0.11547174486E+03  0.69453909605E+03  0.75171475983E+03  0.26301717625E+03 0.  0.
         25    1    3    3    0    0  0.13370315894E+02  0.11547174486E+03  0.34037251762E+03  0.38080631305E+03  0.12509000000E+03 0.  0.
         25    1    4    4    0    0 -0.16789071577E+02 -0.85975763819E+02  0.45364370619E+03  0.47865835954E+03  0.12509000000E+03 0.  0.
         25    1    4    4    0    0  0.34187556829E+01 -0.29495981044E+02  0.24089538985E+03  0.27305640029E+03  0.12509000000E+03 0.  0.
<mgrwt>
<rscale>  2 0.45995862E+03</rscale>
<asrwt>0</asrwt>
<pdfrwt beam="1">  1       21 0.15937003E+00 0.45995862E+03</pdfrwt>
<pdfrwt beam="2">  1       21 0.71771668E-02 0.45995862E+03</pdfrwt>
<totfact> 0.33074311E+04</totfact>
</mgrwt>
</event>
<event>
 7    0  0.4707675E-002  0.4557655E+03  0.7546771E-02  0.1026017E+00
         21   -1    0    0  502  501  0.00000000000E+00  0.00000000000E+00  0.19200772419E+03  0.19200772419E+03  0.00000000000E+00 0.  1.
         21   -1    0    0  501  502 -0.00000000000E+00 -0.00000000000E+00 -0.27046077468E+03  0.27046077468E+03  0.00000000000E+00 0.  1.
      99926    2    1    2    0    0  0.00000000000E+00  0.00000000000E+00 -0.78453050488E+02  0.46246849887E+03  0.45576554424E+03 0.  0.
      99925    2    3    3    0    0 -0.96316459451E+02  0.50422496313E+02 -0.83320542897E+02  0.29666593834E+03  0.26315219476E+03 0.  0.
         25    1    4    4    0    0 -0.74096701740E+02  0.58876106918E+02 -0.36901748367E+02  0.16113958020E+03  0.12509000000E+03 0.  0.
         25    1    3    3    0    0  0.96316459451E+02 -0.50422496313E+02  0.48674924088E+01  0.16580256053E+03  0.12509000000E+03 0.  0.
         25    1    4    4    0    0 -0.22219757710E+02 -0.84536106050E+01 -0.46418794530E+02  0.13552635814E+03  0.12509000000E+03 0.  0.
<mgrwt>
<rscale>  2 0.45576554E+03</rscale>
<asrwt>0</asrwt>
<pdfrwt beam="1">  1       21 0.28236430E-01 0.45576554E+03</pdfrwt>
<pdfrwt beam="2">  1       21 0.39773643E-01 0.45576554E+03</pdfrwt>
<totfact> 0.67586186E+04</totfact>
</mgrwt>
</event>
<event>
 7    0  0.4707675E-002  0.4527928E+03  0.7546771E-02  0.1026892E+00
         21   -1    0    0  502  501  0.00000000000E+00  0.00000000000E+00  0.23016765508E+02  0.23016765508E+02  0.00000000000E+00 0.  1.
         21   -1    0    0  501  502 -0.00000000000E+00 -0.00000000000E+00 -0.22268696780E+04  0.22268696780E+04  0.00000000000E+00 0.  1.
      99926    2    1    2    0    0 -0.14210854715E-13 -0.35527136788E-14 -0.22038529125E+04  0.22498864435E+04  0.45279283208E+03 0.  0.
      99925    2    3    3    0    0 -0.10578772790E+03  0.58874681111E+01 -0.15616211363E+04  0.15870630371E+04  0.26245533844E+03 0.  0.
         25    1    4    4    0    0 -0.81048998350E+02  0.32343897679E+02 -0.80673941889E+03  0.82103049026E+03  0.12509000000E+03 0.  0.
         25    1    4    4    0    0 -0.24738729548E+02 -0.26456429568E+02 -0.75488171746E+03  0.76603254687E+03  0.12509000000E+03 0.  0.
         25    1    3    3    0    0  0.10578772790E+03 -0.58874681111E+01 -0.64223177612E+03  0.66282340636E+03  0.12509000000E+03 0.  0.
<mgrwt>
<rscale>  2 0.45279283E+03</rscale>
<asrwt>0</asrwt>
<pdfrwt beam="1">  1       21 0.33848190E-02 0.45279283E+03</pdfrwt>
<pdfrwt beam="2">  1       21 0.32748078E+00 0.45279283E+03</pdfrwt>
<totfact> 0.10216141E+04</totfact>
</mgrwt>
</event>
<event>
 7    0  0.4707675E-002  0.4524067E+03  0.7546771E-02  0.1027007E+00
         21   -1    0    0  502  501  0.00000000000E+00  0.00000000000E+00  0.99344162004E+02  0.99344162004E+02  0.00000000000E+00 0. -1.
         21   -1    0    0  501  502 -0.00000000000E+00 -0.00000000000E+00 -0.51505745619E+03  0.51505745619E+03  0.00000000000E+00 0. -1.
      99926    2    1    2    0    0  0.35527136788E-14  0.00000000000E+00 -0.41571329418E+03  0.61440161819E+03  0.45240668151E+03 0.  0.
      99925    2    3    3    0    0  0.25353602809E+02  0.83159868304E+02 -0.16928030221E+03  0.32468607407E+03  0.26307196184E+03 0.  0.
         25    1    4    4    0    0 -0.41540769218E+00  0.21655172577E+02 -0.40733591959E+02  0.13332611401E+03  0.12509000000E+03 0.  0.
         25    1    4    4    0    0  0.25769010501E+02  0.61504695727E+02 -0.12854671026E+03  0.19135996007E+03  0.12509000000E+03 0.  0.
         25    1    3    3    0    0 -0.25353602809E+02 -0.83159868304E+02 -0.24643299197E+03  0.28971554412E+03  0.12509000000E+03 0.  0.
<mgrwt>
<rscale>  2 0.45240668E+03</rscale>
<asrwt>0</asrwt>
<pdfrwt beam="1">  1       21 0.14609436E-01 0.45240668E+03</pdfrwt>
<pdfrwt beam="2">  1       21 0.75743742E-01 0.45240668E+03</pdfrwt>
<totfact> 0.58999597E+04</totfact>
</mgrwt>
</event>
<event>
 7    0  0.4707675E-002  0.4484877E+03  0.7546771E-02  0.1028174E+00
         21   -1    0    0  502  501  0.00000000000E+00  0.00000000000E+00  0.60696342737E+02  0.60696342737E+02  0.00000000000E+00 0. -1.
         21   -1    0    0  501  502 -0.00000000000E+00 -0.00000000000E+00 -0.82847344172E+03  0.82847344172E+03  0.00000000000E+00 0. -1.
      99926    2    1    2    0    0 -0.35527136788E-14  0.00000000000E+00 -0.76777709898E+03  0.88916978445E+03  0.44848771652E+03 0.  0.
      99925    2    3    3    0    0 -0.28846105732E+02 -0.10395178277E+03 -0.49572413584E+03  0.57089569847E+03  0.26180414191E+03 0.  0.
         25    1    3    3    0    0  0.28846105732E+02  0.10395178277E+03 -0.27205296314E+03  0.31827408599E+03  0.12509000000E+03 0.  0.
         25    1    4    4    0    0 -0.45740418964E+02 -0.49946752252E+02 -0.20665976688E+03  0.25088370081E+03  0.12509000000E+03 0.  0.
         25    1    4    4    0    0  0.16894313232E+02 -0.54005030515E+02 -0.28906436896E+03  0.32001199765E+03  0.12509000000E+03 0.  0.
<mgrwt>
<rscale>  2 0.44848772E+03</rscale>
<asrwt>0</asrwt>
<pdfrwt beam="1">  1       21 0.89259327E-02 0.44848772E+03</pdfrwt>
<pdfrwt beam="2">  1       21 0.12183433E+00 0.44848772E+03</pdfrwt>
<totfact> 0.46006930E+04</totfact>
</mgrwt>
</event>
<event>
 7    0  0.4707675E-002  0.4517201E+03  0.7546771E-02  0.1027210E+00
         21   -1    0    0  502  501  0.00000000000E+00  0.00000000000E+00  0.24871668614E+03  0.24871668614E+03  0.00000000000E+00 0.  1.
         21   -1    0    0  501  502 -0.00000000000E+00 -0.00000000000E+00 -0.20510390410E+03  0.20510390410E+03  0.00000000000E+00 0.  1.
      99926    2    1    2    0    0  0.00000000000E+00  0.00000000000E+00  0.43612782038E+02  0.45382059024E+03  0.45172010512E+03 0.  0.
      99925    2    3    3    0    0  0.47803865519E+02  0.48057888232E+02  0.11450149565E+03  0.29486308649E+03  0.26313281265E+03 0.  0.
         25    1    4    4    0    0 -0.71751877929E+01  0.35424016324E+01  0.32848750430E+02  0.12957847211E+03  0.12509000000E+03 0.  0.
         25    1    4    4    0    0  0.54979053312E+02  0.44515486600E+02  0.81652745223E+02  0.16528461439E+03  0.12509000000E+03 0.  0.
         25    1    3    3    0    0 -0.47803865519E+02 -0.48057888232E+02 -0.70888713616E+02  0.15895750375E+03  0.12509000000E+03 0.  0.
<mgrwt>
<rscale>  2 0.45172011E+03</rscale>
<asrwt>0</asrwt>
<pdfrwt beam="1">  1       21 0.36575983E-01 0.45172011E+03</pdfrwt>
<pdfrwt beam="2">  1       21 0.30162339E-01 0.45172011E+03</pdfrwt>
<totfact> 0.70458122E+04</totfact>
</mgrwt>
</event>
<event>
 7    0  0.4707675E-002  0.4585152E+03  0.7546771E-02  0.1025213E+00
         21   -1    0    0  502  501  0.00000000000E+00  0.00000000000E+00  0.34666776520E+03  0.34666776520E+03  0.00000000000E+00 0.  1.
         21   -1    0    0  501  502 -0.00000000000E+00 -0.00000000000E+00 -0.15161218285E+03  0.15161218285E+03  0.00000000000E+00 0.  1.
      99926    2    1    2    0    0 -0.71054273576E-14  0.00000000000E+00  0.19505558234E+03  0.49827994805E+03  0.45851524121E+03 0.  0.
      99925    2    3    3    0    0 -0.38776844234E+02 -0.90709587372E+02  0.18957043679E+03  0.33887647314E+03  0.26299893661E+03 0.  0.
         25    1    4    4    0    0 -0.20404881713E+02 -0.16261312268E+02  0.52693939561E+02  0.13822065273E+03  0.12509000000E+03 0.  0.
         25    1    3    3    0    0  0.38776844234E+02  0.90709587372E+02  0.54851455518E+01  0.15940347490E+03  0.12509000000E+03 0.  0.
         25    1    4    4    0    0 -0.18371962521E+02 -0.74448275104E+02  0.13687649723E+03  0.20065582042E+03  0.12509000000E+03 0.  0.
<mgrwt>
<rscale>  2 0.45851524E+03</rscale>
<asrwt>0</asrwt>
<pdfrwt beam="1">  1       21 0.50980554E-01 0.45851524E+03</pdfrwt>
<pdfrwt beam="2">  1       21 0.22295909E-01 0.45851524E+03</pdfrwt>
<totfact> 0.63598309E+04</totfact>
</mgrwt>
</event>
<event>
 7    0  0.4707675E-002  0.4525913E+03  0.7546771E-02  0.1026952E+00
         21   -1    0    0  502  501  0.00000000000E+00  0.00000000000E+00  0.10368485707E+04  0.10368485707E+04  0.00000000000E+00 0.  1.
         21   -1    0    0  501  502 -0.00000000000E+00 -0.00000000000E+00 -0.49389786767E+02  0.49389786767E+02  0.00000000000E+00 0.  1.
      99926    2    1    2    0    0 -0.14210854715E-13  0.00000000000E+00  0.98745878396E+03  0.10862383575E+04  0.45259133804E+03 0.  0.
      99925    2    3    3    0    0  0.81419530731E+02 -0.21909894801E+02  0.44940112067E+03  0.52743361467E+03  0.26289858720E+03 0.  0.
         25    1    3    3    0    0 -0.81419530731E+02  0.21909894801E+02  0.53805766329E+03  0.55880474282E+03  0.12509000000E+03 0.  0.
         25    1    4    4    0    0  0.67393537516E+02  0.19619283706E+02  0.24076547054E+03  0.28025403672E+03  0.12509000000E+03 0.  0.
         25    1    4    4    0    0  0.14025993215E+02 -0.41529178507E+02  0.20863565013E+03  0.24717957796E+03  0.12509000000E+03 0.  0.
<mgrwt>
<rscale>  2 0.45259134E+03</rscale>
<asrwt>0</asrwt>
<pdfrwt beam="1">  1       21 0.15247772E+00 0.45259134E+03</pdfrwt>
<pdfrwt beam="2">  1       21 0.72632046E-02 0.45259134E+03</pdfrwt>
<totfact> 0.36659204E+04</totfact>
</mgrwt>
</event>
<event>
 7    0  0.4707675E-002  0.4397299E+03  0.7546771E-02  0.1030830E+00
         21   -1    0    0  502  501  0.00000000000E+00  0.00000000000E+00  0.14029053411E+03  0.14029053411E+03  0.00000000000E+00 0. -1.
         21   -1    0    0  501  502 -0.00000000000E+00 -0.00000000000E+00 -0.34457484351E+03  0.34457484351E+03  0.00000000000E+00 0. -1.
      99926    2    1    2    0    0 -0.35527136788E-14 -0.17763568394E-14 -0.20428430940E+03  0.48486537762E+03  0.43972986634E+03 0.  0.
      99925    2    3    3    0    0 -0.31677540286E+02 -0.15695392598E+02 -0.23124037373E+03  0.35211015395E+03  0.26317225950E+03 0.  0.
         25    1    4    4    0    0  0.31852212160E+01 -0.43978848898E+02 -0.11521639216E+03  0.17568895784E+03  0.12509000000E+03 0.  0.
         25    1    4    4    0    0 -0.34862761502E+02  0.28283456300E+02 -0.11602398156E+03  0.17642119611E+03  0.12509000000E+03 0.  0.
         25    1    3    3    0    0  0.31677540286E+02  0.15695392598E+02  0.26956064330E+02  0.13275522367E+03  0.12509000000E+03 0.  0.
<mgrwt>
<rscale>  2 0.43972987E+03</rscale>
<asrwt>0</asrwt>
<pdfrwt beam="1">  1       21 0.20630961E-01 0.43972987E+03</pdfrwt>
<pdfrwt beam="2">  1       21 0.50672770E-01 0.43972987E+03</pdfrwt>
<totfact> 0.75039814E+04</totfact>
</mgrwt>
</event>
<event>
 6    0  0.4707675E-002  0.4533497E+03  0.7546771E-02  0.1026728E+00
         21   -1    0    0  502  501  0.00000000000E+00  0.00000000000E+00  0.46016883354E+02  0.46016883354E+02  0.00000000000E+00 0. -1.
         21   -1    0    0  501  502 -0.00000000000E+00 -0.00000000000E+00 -0.11165790769E+04  0.11165790769E+04  0.00000000000E+00 0. -1.
      99926    2    1    2    0    0  0.17763568394E-14 -0.14210854715E-13 -0.10705621936E+04  0.11625959603E+04  0.45334970668E+03 0.  0.
         25    1    3    3    0    0  0.26447985941E+01 -0.15734043758E+02 -0.23321243718E+03  0.26512280937E+03  0.12509000000E+03 0.  0.
         25    1    3    3    0    0 -0.15814666114E+02  0.85496320960E+02 -0.24990860106E+03  0.29267993020E+03  0.12509000000E+03 0.  0.
         25    1    3    3    0    0  0.13169867520E+02 -0.69762277202E+02 -0.58744115531E+03  0.60479322068E+03  0.12509000000E+03 0.  0.
<mgrwt>
<rscale>  2 0.45334971E+03</rscale>
<asrwt>0</asrwt>
<pdfrwt beam="1">  1       21 0.67671901E-02 0.45334971E+03</pdfrwt>
<pdfrwt beam="2">  1       21 0.16420277E+00 0.45334971E+03</pdfrwt>
<totfact> 0.33797145E+04</totfact>
</mgrwt>
</event>
<event>
 7    0  0.4707675E-002  0.4668179E+03  0.7546771E-02  0.1022822E+00
         21   -1    0    0  502  501  0.00000000000E+00  0.00000000000E+00  0.55373908091E+03  0.55373908091E+03  0.00000000000E+00 0. -1.
         21   -1    0    0  501  502 -0.00000000000E+00 -0.00000000000E+00 -0.98385206828E+02  0.98385206828E+02  0.00000000000E+00 0. -1.
      99926    2    1    2    0    0  0.00000000000E+00 -0.14210854715E-13  0.45535387408E+03  0.65212428773E+03  0.46681788313E+03 0.  0.
      99925    2    3    3    0    0  0.42750859956E+02  0.11176883429E+03  0.32862057238E+03  0.43758117737E+03  0.26299410232E+03 0.  0.
         25    1    4    4    0    0  0.31414732422E+02  0.88835343929E+02  0.14159107112E+03  0.21112589435E+03  0.12509000000E+03 0.  0.
         25    1    3    3    0    0 -0.42750859956E+02 -0.11176883429E+03  0.12673330170E+03  0.21454311036E+03  0.12509000000E+03 0.  0.
         25    1    4    4    0    0  0.11336127534E+02  0.22933490356E+02  0.18702950126E+03  0.22645528302E+03  0.12509000000E+03 0.  0.
<mgrwt>
<rscale>  2 0.46681788E+03</rscale>
<asrwt>0</asrwt>
<pdfrwt beam="1">  1       21 0.81432217E-01 0.46681788E+03</pdfrwt>
<pdfrwt beam="2">  1       21 0.14468413E-01 0.46681788E+03</pdfrwt>
<totfact> 0.50685750E+04</totfact>
</mgrwt>
</event>
<event>
 7    0  0.4707675E-002  0.4552368E+03  0.7546771E-02  0.1026172E+00
         21   -1    0    0  502  501  0.00000000000E+00  0.00000000000E+00  0.25898333757E+03  0.25898333757E+03  0.00000000000E+00 0. -1.
         21   -1    0    0  501  502 -0.00000000000E+00 -0.00000000000E+00 -0.20005201588E+03  0.20005201588E+03  0.00000000000E+00 0. -1.
      99926    2    1    2    0    0  0.14210854715E-13 -0.44408920985E-15  0.58931321689E+02  0.45903535345E+03  0.45523681205E+03 0.  0.
      99925    2    3    3    0    0 -0.10087100360E+03 -0.25064667687E+01  0.89215504653E+02  0.29549367197E+03  0.26301304561E+03 0.  0.
         25    1    3    3    0    0  0.10087100360E+03  0.25064667687E+01 -0.30284182964E+02  0.16354168148E+03  0.12509000000E+03 0.  0.
         25    1    4    4    0    0 -0.55736442946E+02  0.19893812185E+02  0.81091517228E+02  0.16039219776E+03  0.12509000000E+03 0.  0.
         25    1    4    4    0    0 -0.45134560657E+02 -0.22400278953E+02  0.81239874244E+01  0.13510147421E+03  0.12509000000E+03 0.  0.
<mgrwt>
<rscale>  2 0.45523681E+03</rscale>
<asrwt>0</asrwt>
<pdfrwt beam="1">  1       21 0.38085785E-01 0.45523681E+03</pdfrwt>
<pdfrwt beam="2">  1       21 0.29419414E-01 0.45523681E+03</pdfrwt>
<totfact> 0.68122168E+04</totfact>
</mgrwt>
</event>
<event>
 7    0  0.4707675E-002  0.4493648E+03  0.7546771E-02  0.1027912E+00
         21   -1    0    0  502  501  0.00000000000E+00  0.00000000000E+00  0.70966039813E+02  0.70966039813E+02  0.00000000000E+00 0. -1.
         21   -1    0    0  501  502 -0.00000000000E+00 -0.00000000000E+00 -0.71135692444E+03  0.71135692444E+03  0.00000000000E+00 0. -1.
      99926    2    1    2    0    0  0.00000000000E+00  0.71054273576E-14 -0.64039088462E+03  0.78232296425E+03  0.44936481313E+03 0.  0.
      99925    2    3    3    0    0  0.81147224035E+02 -0.63505459888E+02 -0.45988120163E+03  0.53973469339E+03  0.26306844021E+03 0.  0.
         25    1    4    4    0    0  0.62947110634E+02 -0.11189252944E+02 -0.18113563594E+03  0.22922732129E+03  0.12509000000E+03 0.  0.
         25    1    3    3    0    0 -0.81147224035E+02  0.63505459888E+02 -0.18050968300E+03  0.24258827086E+03  0.12509000000E+03 0.  0.
         25    1    4    4    0    0  0.18200113401E+02 -0.52316206944E+02 -0.27874556568E+03  0.31050737209E+03  0.12509000000E+03 0.  0.
<mgrwt>
<rscale>  2 0.44936481E+03</rscale>
<asrwt>0</asrwt>
<pdfrwt beam="1">  1       21 0.10436183E-01 0.44936481E+03</pdfrwt>
<pdfrwt beam="2">  1       21 0.10461131E+00 0.44936481E+03</pdfrwt>
<totfact> 0.50843591E+04</totfact>
</mgrwt>
</event>
<event>
 7    0  0.4707675E-002  0.4527590E+03  0.7546771E-02  0.1026902E+00
         21   -1    0    0  502  501  0.00000000000E+00  0.00000000000E+00  0.11050200844E+04  0.11050200844E+04  0.00000000000E+00 0. -1.
         21   -1    0    0  501  502 -0.00000000000E+00 -0.00000000000E+00 -0.46377152608E+02  0.46377152608E+02  0.00000000000E+00 0. -1.
      99926    2    1    2    0    0  0.00000000000E+00  0.00000000000E+00  0.10586429318E+04  0.11513972370E+04  0.45275903123E+03 0.  0.
      99925    2    3    3    0    0  0.10222508548E+03  0.32612585528E+02  0.59948761352E+03  0.66356051921E+03  0.26346463719E+03 0.  0.
         25    1    4    4    0    0  0.36131479438E+02 -0.98727368018E+00  0.20219434167E+03  0.24049224191E+03  0.12509000000E+03 0.  0.
         25    1    4    4    0    0  0.66093606043E+02  0.33599859208E+02  0.39729327185E+03  0.42306827730E+03  0.12509000000E+03 0.  0.
         25    1    3    3    0    0 -0.10222508548E+03 -0.32612585528E+02  0.45915531827E+03  0.48783671780E+03  0.12509000000E+03 0.  0.
<mgrwt>
<rscale>  2 0.45275903E+03</rscale>
<asrwt>0</asrwt>
<pdfrwt beam="1">  1       21 0.16250294E+00 0.45275903E+03</pdfrwt>
<pdfrwt beam="2">  1       21 0.68201703E-02 0.45275903E+03</pdfrwt>
<totfact> 0.34331447E+04</totfact>
</mgrwt>
</event>
<event>
 7    0  0.4707675E-002  0.4553867E+03  0.7546771E-02  0.1026128E+00
         21   -1    0    0  502  501  0.00000000000E+00  0.00000000000E+00  0.49843855380E+02  0.49843855380E+02  0.00000000000E+00 0.  1.
         21   -1    0    0  501  502 -0.00000000000E+00 -0.00000000000E+00 -0.10401335835E+04  0.10401335835E+04  0.00000000000E+00 0.  1.
      99926    2    1    2    0    0  0.17763568394E-14  0.00000000000E+00 -0.99028972811E+03  0.10899774389E+04  0.45538672757E+03 0.  0.
      99925    2    3    3    0    0  0.12133613020E+02 -0.10987505096E+03 -0.56466112347E+03  0.63278276635E+03  0.26334785674E+03 0.  0.
         25    1    4    4    0    0  0.30475562196E+02 -0.86797328203E+02 -0.27313590816E+03  0.31418667779E+03  0.12509000000E+03 0.  0.
         25    1    4    4    0    0 -0.18341949175E+02 -0.23077722756E+02 -0.29152521530E+03  0.31859608856E+03  0.12509000000E+03 0.  0.
         25    1    3    3    0    0 -0.12133613020E+02  0.10987505096E+03 -0.42562860464E+03  0.45719467252E+03  0.12509000000E+03 0.  0.
<mgrwt>
<rscale>  2 0.45538673E+03</rscale>
<asrwt>0</asrwt>
<pdfrwt beam="1">  1       21 0.73299789E-02 0.45538673E+03</pdfrwt>
<pdfrwt beam="2">  1       21 0.15296082E+00 0.45538673E+03</pdfrwt>
<totfact> 0.35735793E+04</totfact>
</mgrwt>
</event>
<event>
 7    0  0.4707675E-002  0.4423644E+03  0.7546771E-02  0.1030024E+00
         21   -1    0    0  502  501  0.00000000000E+00  0.00000000000E+00  0.25073602300E+03  0.25073602300E+03  0.00000000000E+00 0. -1.
         21   -1    0    0  501  502 -0.00000000000E+00 -0.00000000000E+00 -0.19511181557E+03  0.19511181557E+03  0.00000000000E+00 0. -1.
      99926    2    1    2    0    0  0.00000000000E+00  0.35527136788E-14  0.55624207430E+02  0.44584783856E+03  0.44236437775E+03 0.  0.
      99925    2    3    3    0    0  0.80046085511E+02  0.29833648963E+02 -0.18612299094E+02  0.27715880686E+03  0.26300791647E+03 0.  0.
         25    1    4    4    0    0  0.12094065277E+02 -0.32052846679E+01 -0.33948936245E+02  0.13021742831E+03  0.12509000000E+03 0.  0.
         25    1    4    4    0    0  0.67952020234E+02  0.33038933631E+02  0.15336637150E+02  0.14694137854E+03  0.12509000000E+03 0.  0.
         25    1    3    3    0    0 -0.80046085511E+02 -0.29833648963E+02  0.74236506525E+02  0.16868903170E+03  0.12509000000E+03 0.  0.
<mgrwt>
<rscale>  2 0.44236438E+03</rscale>
<asrwt>0</asrwt>
<pdfrwt beam="1">  1       21 0.36872945E-01 0.44236438E+03</pdfrwt>
<pdfrwt beam="2">  1       21 0.28692914E-01 0.44236438E+03</pdfrwt>
<totfact> 0.76663234E+04</totfact>
</mgrwt>
</event>
<event>
 7    0  0.4707675E-002  0.4538308E+03  0.7546771E-02  0.1026586E+00
         21   -1    0    0  502  501  0.00000000000E+00  0.00000000000E+00  0.15290533985E+03  0.15290533985E+03  0.00000000000E+00 0.  1.
         21   -1    0    0  501  502 -0.00000000000E+00 -0.00000000000E+00 -0.33674826016E+03  0.33674826016E+03  0.00000000000E+00 0.  1.
      99926    2    1    2    0    0 -0.14210854715E-13 -0.14210854715E-13 -0.18384292031E+03  0.48965360000E+03  0.45383083704E+03 0.  0.
      99925    2    3    3    0    0 -0.82577973631E+02  0.75513934755E+02 -0.10957339693E+03  0.30611900851E+03  0.26302289251E+03 0.  0.
         25    1    4    4    0    0 -0.63962058332E+02  0.75226164496E+02 -0.61693542238E+02  0.17089096519E+03  0.12509000000E+03 0.  0.
         25    1    3    3    0    0  0.82577973631E+02 -0.75513934755E+02 -0.74269523381E+02  0.18353459149E+03  0.12509000000E+03 0.  0.
         25    1    4    4    0    0 -0.18615915299E+02  0.28777025891E+00 -0.47879854693E+02  0.13522804332E+03  0.12509000000E+03 0.  0.
<mgrwt>
<rscale>  2 0.45383084E+03</rscale>
<asrwt>0</asrwt>
<pdfrwt beam="1">  1       21 0.22486079E-01 0.45383084E+03</pdfrwt>
<pdfrwt beam="2">  1       21 0.49521803E-01 0.45383084E+03</pdfrwt>
<totfact> 0.66620015E+04</totfact>
</mgrwt>
</event>
<event>
 7    0  0.4707675E-002  0.4528163E+03  0.7546771E-02  0.1026886E+00
         21   -1    0    0  502  501  0.00000000000E+00  0.00000000000E+00  0.81890572810E+02  0.81890572810E+02  0.00000000000E+00 0.  1.
         21   -1    0    0  501  502 -0.00000000000E+00 -0.00000000000E+00 -0.62596517225E+03  0.62596517225E+03  0.00000000000E+00 0.  1.
      99926    2    1    2    0    0  0.00000000000E+00  0.00000000000E+00 -0.54407459944E+03  0.70785574506E+03  0.45281628290E+03 0.  0.
      99925    2    3    3    0    0  0.88941021482E+02 -0.31383354386E+02 -0.43502857350E+03  0.51697891538E+03  0.26291047707E+03 0.  0.
         25    1    4    4    0    0  0.13956147620E+02  0.12255722733E+02 -0.18031793257E+03  0.22024314223E+03  0.12509000000E+03 0.  0.
         25    1    4    4    0    0  0.74984873863E+02 -0.43639077119E+02 -0.25471064093E+03  0.29673577315E+03  0.12509000000E+03 0.  0.
         25    1    3    3    0    0 -0.88941021482E+02  0.31383354386E+02 -0.10904602594E+03  0.19087682968E+03  0.12509000000E+03 0.  0.
<mgrwt>
<rscale>  2 0.45281628E+03</rscale>
<asrwt>0</asrwt>
<pdfrwt beam="1">  1       21 0.12042731E-01 0.45281628E+03</pdfrwt>
<pdfrwt beam="2">  1       21 0.92053702E-01 0.45281628E+03</pdfrwt>
<totfact> 0.53389951E+04</totfact>
</mgrwt>
</event>
<event>
 7    0  0.4707675E-002  0.4560249E+03  0.7546771E-02  0.1025940E+00
         21   -1    0    0  502  501  0.00000000000E+00  0.00000000000E+00  0.16171114805E+03  0.16171114805E+03  0.00000000000E+00 0.  1.
         21   -1    0    0  501  502 -0.00000000000E+00 -0.00000000000E+00 -0.32149712049E+03  0.32149712049E+03  0.00000000000E+00 0.  1.
      99926    2    1    2    0    0  0.00000000000E+00 -0.26645352591E-14 -0.15978597244E+03  0.48320826853E+03  0.45602486093E+03 0.  0.
      99925    2    3    3    0    0 -0.94925798469E+02  0.37938423459E+01 -0.33358876346E+02  0.28157340255E+03  0.26295525463E+03 0.  0.
         25    1    4    4    0    0 -0.73090357819E+02 -0.30299995741E+02 -0.21399215375E+02  0.14955174578E+03  0.12509000000E+03 0.  0.
         25    1    3    3    0    0  0.94925798469E+02 -0.37938423459E+01 -0.12642709609E+03  0.20163486599E+03  0.12509000000E+03 0.  0.
         25    1    4    4    0    0 -0.21835440650E+02  0.34093838087E+02 -0.11959660971E+02  0.13202165676E+03  0.12509000000E+03 0.  0.
<mgrwt>
<rscale>  2 0.45602486E+03</rscale>
<asrwt>0</asrwt>
<pdfrwt beam="1">  1       21 0.23781051E-01 0.45602486E+03</pdfrwt>
<pdfrwt beam="2">  1       21 0.47278988E-01 0.45602486E+03</pdfrwt>
<totfact> 0.65929303E+04</totfact>
</mgrwt>
</event>
<event>
 7    0  0.4707675E-002  0.4534451E+03  0.7546771E-02  0.1026700E+00
         21   -1    0    0  502  501  0.00000000000E+00  0.00000000000E+00  0.15651461927E+03  0.15651461927E+03  0.00000000000E+00 0. -1.
         21   -1    0    0  501  502 -0.00000000000E+00 -0.00000000000E+00 -0.32842379716E+03  0.32842379716E+03  0.00000000000E+00 0. -1.
      99926    2    1    2    0    0  0.00000000000E+00 -0.14210854715E-13 -0.17190917788E+03  0.48493841643E+03  0.45344514805E+03 0.  0.
      99925    2    3    3    0    0  0.78094689401E+02  0.79642183355E+02 -0.11523084444E+03  0.30801583601E+03  0.26297138597E+03 0.  0.
         25    1    3    3    0    0 -0.78094689401E+02 -0.79642183355E+02 -0.56678333437E+02  0.17692258042E+03  0.12509000000E+03 0.  0.
         25    1    4    4    0    0  0.68488155261E+02  0.11994808718E+02 -0.57756518397E+02  0.15433025097E+03  0.12509000000E+03 0.  0.
         25    1    4    4    0    0  0.96065341393E+01  0.67647374637E+02 -0.57474326047E+02  0.15368558504E+03  0.12509000000E+03 0.  0.
<mgrwt>
<rscale>  2 0.45344515E+03</rscale>
<asrwt>0</asrwt>
<pdfrwt beam="1">  1       21 0.23016856E-01 0.45344515E+03</pdfrwt>
<pdfrwt beam="2">  1       21 0.48297617E-01 0.45344515E+03</pdfrwt>
<totfact> 0.67167579E+04</totfact>
</mgrwt>
</event>
<event>
 7    0  0.4707675E-002  0.4292689E+03  0.7546771E-02  0.1034091E+00
         21   -1    0    0  502  501  0.00000000000E+00  0.00000000000E+00  0.10919114922E+04  0.10919114922E+04  0.00000000000E+00 0. -1.
         21   -1    0    0  501  502 -0.00000000000E+00 -0.00000000000E+00 -0.42190194000E+02  0.42190194000E+02  0.00000000000E+00 0. -1.
      99926    2    1    2    0    0  0.00000000000E+00  0.00000000000E+00  0.10497212982E+04  0.11341016862E+04  0.42926894919E+03 0.  0.
      99925    2    3    3    0    0 -0.18069944423E+02 -0.70511195937E+02  0.80237998072E+03  0.84752955378E+03  0.26304820742E+03 0.  0.
         25    1    3    3    0    0  0.18069944423E+02  0.70511195937E+02  0.24734131744E+03  0.28657213238E+03  0.12509000000E+03 0.  0.
         25    1    4    4    0    0 -0.56043989484E-01 -0.40765145641E+02  0.28173628309E+03  0.31094154041E+03  0.12509000000E+03 0.  0.
         25    1    4    4    0    0 -0.18013900433E+02 -0.29746050296E+02  0.52064369763E+03  0.53658801337E+03  0.12509000000E+03 0.  0.
<mgrwt>
<rscale>  2 0.42926895E+03</rscale>
<asrwt>0</asrwt>
<pdfrwt beam="1">  1       21 0.16057520E+00 0.42926895E+03</pdfrwt>
<pdfrwt beam="2">  1       21 0.62044410E-02 0.42926895E+03</pdfrwt>
<totfact> 0.42160068E+04</totfact>
</mgrwt>
</event>
<event>
 7    0  0.4707675E-002  0.4590455E+03  0.7546771E-02  0.1025058E+00
         21   -1    0    0  502  501  0.00000000000E+00  0.00000000000E+00  0.74985507663E+02  0.74985507663E+02  0.00000000000E+00 0.  1.
         21   -1    0    0  501  502 -0.00000000000E+00 -0.00000000000E+00 -0.70254494648E+03  0.70254494648E+03  0.00000000000E+00 0.  1.
      99926    2    1    2    0    0 -0.88817841970E-15  0.35527136788E-14 -0.62755943882E+03  0.77753045415E+03  0.45904548563E+03 0.  0.
      99925    2    3    3    0    0 -0.49720572179E+01 -0.23904235244E+02 -0.20028134356E+03  0.33164906565E+03  0.26321541056E+03 0.  0.
         25    1    4    4    0    0 -0.27024109077E+02  0.19561221293E+02 -0.10980082964E+03  0.16975474703E+03  0.12509000000E+03 0.  0.
         25    1    3    3    0    0  0.49720572179E+01  0.23904235244E+02 -0.42727809526E+03  0.44588138849E+03  0.12509000000E+03 0.  0.
         25    1    4    4    0    0  0.22052051859E+02 -0.43465456537E+02 -0.90480513925E+02  0.16189431863E+03  0.12509000000E+03 0.  0.
<mgrwt>
<rscale>  2 0.45904549E+03</rscale>
<asrwt>0</asrwt>
<pdfrwt beam="1">  1       21 0.11027280E-01 0.45904549E+03</pdfrwt>
<pdfrwt beam="2">  1       21 0.10331543E+00 0.45904549E+03</pdfrwt>
<totfact> 0.47349316E+04</totfact>
</mgrwt>
</event>
<event>
 7    0  0.4707675E-002  0.4413136E+03  0.7546771E-02  0.1030345E+00
         21   -1    0    0  502  501  0.00000000000E+00  0.00000000000E+00  0.58634136829E+02  0.58634136829E+02  0.00000000000E+00 0.  1.
         21   -1    0    0  501  502 -0.00000000000E+00 -0.00000000000E+00 -0.83039391339E+03  0.83039391339E+03  0.00000000000E+00 0.  1.
      99926    2    1    2    0    0  0.00000000000E+00  0.35527136788E-14 -0.77175977656E+03  0.88902805022E+03  0.44131363151E+03 0.  0.
      99925    2    3    3    0    0 -0.94330659927E+02  0.17479360218E+02 -0.54615498953E+03  0.61380299783E+03  0.26318253383E+03 0.  0.
         25    1    3    3    0    0  0.94330659927E+02 -0.17479360218E+02 -0.22560478703E+03  0.27522505240E+03  0.12509000000E+03 0.  0.
         25    1    4    4    0    0 -0.22085981918E+02  0.11025435842E+02 -0.18410075197E+03  0.22394183577E+03  0.12509000000E+03 0.  0.
         25    1    4    4    0    0 -0.72244678009E+02  0.64539243758E+01 -0.36205423756E+03  0.38986116205E+03  0.12509000000E+03 0.  0.
<mgrwt>
<rscale>  2 0.44131363E+03</rscale>
<asrwt>0</asrwt>
<pdfrwt beam="1">  1       21 0.86226676E-02 0.44131363E+03</pdfrwt>
<pdfrwt beam="2">  1       21 0.12211675E+00 0.44131363E+03</pdfrwt>
<totfact> 0.48726035E+04</totfact>
</mgrwt>
</event>
<event>
 7    0  0.4707675E-002  0.4830600E+03  0.7546771E-02  0.1018298E+00
         21   -1    0    0  502  501  0.00000000000E+00  0.00000000000E+00  0.23329856664E+02  0.23329856664E+02  0.00000000000E+00 0. -1.
         21   -1    0    0  501  502 -0.00000000000E+00 -0.00000000000E+00 -0.25005186351E+04  0.25005186351E+04  0.00000000000E+00 0. -1.
      99926    2    1    2    0    0  0.17763568394E-14  0.00000000000E+00 -0.24771887784E+04  0.25238484917E+04  0.48306000182E+03 0.  0.
      99925    2    3    3    0    0 -0.12467789800E+02 -0.82285669945E+02 -0.20968124847E+04  0.21148741524E+04  0.26295191108E+03 0.  0.
         25    1    3    3    0    0  0.12467789800E+02  0.82285669945E+02 -0.38037629372E+03  0.40897433927E+03  0.12509000000E+03 0.  0.
         25    1    4    4    0    0 -0.46610738967E+02 -0.43866015147E+02 -0.10896961385E+04  0.10987183309E+04  0.12509000000E+03 0.  0.
         25    1    4    4    0    0  0.34142949167E+02 -0.38419654797E+02 -0.10071163462E+04  0.10161558215E+04  0.12509000000E+03 0.  0.
<mgrwt>
<rscale>  2 0.48306000E+03</rscale>
<asrwt>0</asrwt>
<pdfrwt beam="1">  1       21 0.34308616E-02 0.48306000E+03</pdfrwt>
<pdfrwt beam="2">  1       21 0.36772330E+00 0.48306000E+03</pdfrwt>
<totfact> 0.55724172E+03</totfact>
</mgrwt>
</event>
<event>
 7    0  0.4707675E-002  0.4237062E+03  0.7546771E-02  0.1035867E+00
         21   -1    0    0  502  501  0.00000000000E+00  0.00000000000E+00  0.10269450270E+03  0.10269450270E+03  0.00000000000E+00 0. -1.
         21   -1    0    0  501  502 -0.00000000000E+00 -0.00000000000E+00 -0.43704120870E+03  0.43704120870E+03  0.00000000000E+00 0. -1.
      99926    2    1    2    0    0  0.00000000000E+00  0.22204460493E-14 -0.33434670600E+03  0.53973571140E+03  0.42370616983E+03 0.  0.
      99925    2    3    3    0    0  0.75200187785E+02  0.36383314780E+01 -0.25286728839E+03  0.37253909274E+03  0.26301179514E+03 0.  0.
         25    1    3    3    0    0 -0.75200187785E+02 -0.36383314780E+01 -0.81479417611E+02  0.16719661866E+03  0.12509000000E+03 0.  0.
         25    1    4    4    0    0  0.56777651394E+02  0.37951117860E+02 -0.13510864161E+03  0.19638187845E+03  0.12509000000E+03 0.  0.
         25    1    4    4    0    0  0.18422536391E+02 -0.34312786382E+02 -0.11775864677E+03  0.17615721429E+03  0.12509000000E+03 0.  0.
<mgrwt>
<rscale>  2 0.42370617E+03</rscale>
<asrwt>0</asrwt>
<pdfrwt beam="1">  1       21 0.15102133E-01 0.42370617E+03</pdfrwt>
<pdfrwt beam="2">  1       21 0.64270766E-01 0.42370617E+03</pdfrwt>
<totfact> 0.80770589E+04</totfact>
</mgrwt>
</event>
<event>
 7    0  0.4707675E-002  0.4564302E+03  0.7546771E-02  0.1025822E+00
         21   -1    0    0  502  501  0.00000000000E+00  0.00000000000E+00  0.15927071590E+04  0.15927071590E+04  0.00000000000E+00 0.  1.
         21   -1    0    0  501  502 -0.00000000000E+00 -0.00000000000E+00 -0.32700385711E+02  0.32700385711E+02  0.00000000000E+00 0.  1.
      99926    2    1    2    0    0  0.00000000000E+00 -0.14210854715E-13  0.15600067733E+04  0.16254075447E+04  0.45643022873E+03 0.  0.
      99925    2    3    3    0    0 -0.56693134300E+02 -0.75631237309E+02  0.74796603346E+03  0.79836953665E+03  0.26269094828E+03 0.  0.
         25    1    4    4    0    0 -0.27554832444E+02 -0.88861548759E+01  0.27014039530E+03  0.29910127685E+03  0.12509000000E+03 0.  0.
         25    1    4    4    0    0 -0.29138301856E+02 -0.66745082434E+02  0.47782563816E+03  0.49926825980E+03  0.12509000000E+03 0.  0.
         25    1    3    3    0    0  0.56693134300E+02  0.75631237309E+02  0.81204073981E+03  0.82703800804E+03  0.12509000000E+03 0.  0.
<mgrwt>
<rscale>  2 0.45643023E+03</rscale>
<asrwt>0</asrwt>
<pdfrwt beam="1">  1       21 0.23422159E+00 0.45643023E+03</pdfrwt>
<pdfrwt beam="2">  1       21 0.48088813E-02 0.45643023E+03</pdfrwt>
<totfact> 0.20631607E+04</totfact>
</mgrwt>
</event>
<event>
 7    0  0.4707675E-002  0.4583535E+03  0.7546771E-02  0.1025260E+00
         21   -1    0    0  502  501  0.00000000000E+00  0.00000000000E+00  0.79763802446E+02  0.79763802446E+02  0.00000000000E+00 0.  1.
         21   -1    0    0  501  502 -0.00000000000E+00 -0.00000000000E+00 -0.65846875902E+03  0.65846875902E+03  0.00000000000E+00 0.  1.
      99926    2    1    2    0    0  0.00000000000E+00  0.71054273576E-14 -0.57870495657E+03  0.73823256147E+03  0.45835345318E+03 0.  0.
      99925    2    3    3    0    0  0.93829415135E+02 -0.58294947447E+02 -0.30643594680E+03  0.41888920107E+03  0.26336839834E+03 0.  0.
         25    1    3    3    0    0 -0.93829415135E+02  0.58294947447E+02 -0.27226900978E+03  0.31934336039E+03  0.12509000000E+03 0.  0.
         25    1    4    4    0    0  0.79046048705E+02 -0.27238680611E+02 -0.20457500054E+03  0.25394618029E+03  0.12509000000E+03 0.  0.
         25    1    4    4    0    0  0.14783366430E+02 -0.31056266835E+02 -0.10186094626E+03  0.16494302078E+03  0.12509000000E+03 0.  0.
<mgrwt>
<rscale>  2 0.45835345E+03</rscale>
<asrwt>0</asrwt>
<pdfrwt beam="1">  1       21 0.11729971E-01 0.45835345E+03</pdfrwt>
<pdfrwt beam="2">  1       21 0.96833643E-01 0.45835345E+03</pdfrwt>
<totfact> 0.49556347E+04</totfact>
</mgrwt>
</event>
<event>
 7    0  0.4707675E-002  0.4541836E+03  0.7546771E-02  0.1026482E+00
         21   -1    0    0  502  501  0.00000000000E+00  0.00000000000E+00  0.31549835323E+03  0.31549835323E+03  0.00000000000E+00 0.  1.
         21   -1    0    0  501  502 -0.00000000000E+00 -0.00000000000E+00 -0.16345789536E+03  0.16345789536E+03  0.00000000000E+00 0.  1.
      99926    2    1    2    0    0  0.00000000000E+00  0.00000000000E+00  0.15204045787E+03  0.47895624859E+03  0.45418364923E+03 0.  0.
      99925    2    3    3    0    0  0.10639634991E+03  0.18040035421E+02  0.12907814728E+03  0.31216175839E+03  0.26294137967E+03 0.  0.
         25    1    4    4    0    0  0.16501729836E+02  0.30094495253E+02  0.59036067536E+02  0.14251579247E+03  0.12509000000E+03 0.  0.
         25    1    3    3    0    0 -0.10639634991E+03 -0.18040035421E+02  0.22962310581E+02  0.16679449019E+03  0.12509000000E+03 0.  0.
         25    1    4    4    0    0  0.89894620071E+02 -0.12054459832E+02  0.70042079748E+02  0.16964596593E+03  0.12509000000E+03 0.  0.
<mgrwt>
<rscale>  2 0.45418365E+03</rscale>
<asrwt>0</asrwt>
<pdfrwt beam="1">  1       21 0.46396817E-01 0.45418365E+03</pdfrwt>
<pdfrwt beam="2">  1       21 0.24037926E-01 0.45418365E+03</pdfrwt>
<totfact> 0.67210596E+04</totfact>
</mgrwt>
</event>
<event>
 7    0  0.4707675E-002  0.4548976E+03  0.7546771E-02  0.1026272E+00
         21   -1    0    0  502  501  0.00000000000E+00  0.00000000000E+00  0.21854592154E+02  0.21854592154E+02  0.00000000000E+00 0.  1.
         21   -1    0    0  501  502 -0.00000000000E+00 -0.00000000000E+00 -0.23671433614E+04  0.23671433614E+04  0.00000000000E+00 0.  1.
      99926    2    1    2    0    0  0.00000000000E+00  0.00000000000E+00 -0.23452887692E+04  0.23889979535E+04  0.45489758290E+03 0.  0.
      99925    2    3    3    0    0 -0.86682231454E+02  0.72620585911E+02 -0.14790994799E+04  0.15065474156E+04  0.26298723438E+03 0.  0.
         25    1    4    4    0    0 -0.68478591865E+02  0.50485136741E+01 -0.76857685264E+03  0.78171138635E+03  0.12509000000E+03 0.  0.
         25    1    3    3    0    0  0.86682231454E+02 -0.72620585911E+02 -0.86618928938E+03  0.88245053793E+03  0.12509000000E+03 0.  0.
         25    1    4    4    0    0 -0.18203639588E+02  0.67572072237E+02 -0.71052262721E+03  0.72483602927E+03  0.12509000000E+03 0.  0.
<mgrwt>
<rscale>  2 0.45489758E+03</rscale>
<asrwt>0</asrwt>
<pdfrwt beam="1">  1       21 0.32139107E-02 0.45489758E+03</pdfrwt>
<pdfrwt beam="2">  1       21 0.34810931E+00 0.45489758E+03</pdfrwt>
<totfact> 0.83417855E+03</totfact>
</mgrwt>
</event>
<event>
 7    0  0.4707675E-002  0.4481828E+03  0.7546771E-02  0.1028265E+00
         21   -1    0    0  502  501  0.00000000000E+00  0.00000000000E+00  0.42482550122E+03  0.42482550122E+03  0.00000000000E+00 0. -1.
         21   -1    0    0  501  502 -0.00000000000E+00 -0.00000000000E+00 -0.11820608843E+03  0.11820608843E+03  0.00000000000E+00 0. -1.
      99926    2    1    2    0    0 -0.35527136788E-14  0.00000000000E+00  0.30661941280E+03  0.54303158965E+03  0.44818282325E+03 0.  0.
      99925    2    3    3    0    0 -0.16274813140E+02  0.89244341379E+02  0.12720669068E+03  0.30624929520E+03  0.26339640590E+03 0.  0.
         25    1    4    4    0    0  0.11180748543E+02  0.17984950585E+02  0.88432758324E+02  0.15464904924E+03  0.12509000000E+03 0.  0.
         25    1    3    3    0    0  0.16274813140E+02 -0.89244341379E+02  0.17941272212E+03  0.23678229446E+03  0.12509000000E+03 0.  0.
         25    1    4    4    0    0 -0.27455561683E+02  0.71259390793E+02  0.38773932360E+02  0.15160024596E+03  0.12509000000E+03 0.  0.
<mgrwt>
<rscale>  2 0.44818282E+03</rscale>
<asrwt>0</asrwt>
<pdfrwt beam="1">  1       21 0.62474338E-01 0.44818282E+03</pdfrwt>
<pdfrwt beam="2">  1       21 0.17383248E-01 0.44818282E+03</pdfrwt>
<totfact> 0.65808226E+04</totfact>
</mgrwt>
</event>
<event>
 7    0  0.4707675E-002  0.4556114E+03  0.7546771E-02  0.1026062E+00
         21   -1    0    0  502  501  0.00000000000E+00  0.00000000000E+00  0.43495451541E+02  0.43495451541E+02  0.00000000000E+00 0. -1.
         21   -1    0    0  501  502 -0.00000000000E+00 -0.00000000000E+00 -0.11931231689E+04  0.11931231689E+04  0.00000000000E+00 0. -1.
      99926    2    1    2    0    0  0.00000000000E+00 -0.14210854715E-13 -0.11496277174E+04  0.12366186205E+04  0.45561137377E+03 0.  0.
      99925    2    3    3    0    0 -0.30061400221E+02 -0.10149438637E+03 -0.83557522557E+03  0.88238525959E+03  0.26308361883E+03 0.  0.
         25    1    3    3    0    0  0.30061400221E+02  0.10149438637E+03 -0.31405249183E+03  0.35423336090E+03  0.12509000000E+03 0.  0.
         25    1    4    4    0    0 -0.36851724066E+02 -0.74283446816E+02 -0.36472778860E+03  0.39439820983E+03  0.12509000000E+03 0.  0.
         25    1    4    4    0    0  0.67903238444E+01 -0.27210939555E+02 -0.47084743697E+03  0.48798704976E+03  0.12509000000E+03 0.  0.
<mgrwt>
<rscale>  2 0.45561137E+03</rscale>
<asrwt>0</asrwt>
<pdfrwt beam="1">  1       21 0.63963910E-02 0.45561137E+03</pdfrwt>
<pdfrwt beam="2">  1       21 0.17545926E+00 0.45561137E+03</pdfrwt>
<totfact> 0.30865237E+04</totfact>
</mgrwt>
</event>
<event>
 7    0  0.4707675E-002  0.4536907E+03  0.7546771E-02  0.1026627E+00
         21   -1    0    0  502  501  0.00000000000E+00  0.00000000000E+00  0.15670839588E+04  0.15670839588E+04  0.00000000000E+00 0. -1.
         21   -1    0    0  501  502 -0.00000000000E+00 -0.00000000000E+00 -0.32837300097E+02  0.32837300097E+02  0.00000000000E+00 0. -1.
      99926    2    1    2    0    0  0.00000000000E+00 -0.14210854715E-13  0.15342466587E+04  0.15999212589E+04  0.45369067097E+03 0.  0.
      99925    2    3    3    0    0  0.22059758194E+02  0.64719934425E+02  0.65341002787E+03  0.70762311301E+03  0.26288876487E+03 0.  0.
         25    1    4    4    0    0  0.15645587223E+02 -0.88148533554E+01  0.30810676035E+03  0.33301617064E+03  0.12509000000E+03 0.  0.
         25    1    4    4    0    0  0.64141709716E+01  0.73534787780E+02  0.34530326753E+03  0.37460694237E+03  0.12509000000E+03 0.  0.
         25    1    3    3    0    0 -0.22059758194E+02 -0.64719934425E+02  0.88083663083E+03  0.89229814589E+03  0.12509000000E+03 0.  0.
<mgrwt>
<rscale>  2 0.45369067E+03</rscale>
<asrwt>0</asrwt>
<pdfrwt beam="1">  1       21 0.23045347E+00 0.45369067E+03</pdfrwt>
<pdfrwt beam="2">  1       21 0.48290158E-02 0.45369067E+03</pdfrwt>
<totfact> 0.21650858E+04</totfact>
</mgrwt>
</event>
<event>
 7    0  0.4707675E-002  0.4472716E+03  0.7546771E-02  0.1028539E+00
         21   -1    0    0  502  501  0.00000000000E+00  0.00000000000E+00  0.26153574276E+03  0.26153574276E+03  0.00000000000E+00 0. -1.
         21   -1    0    0  501  502 -0.00000000000E+00 -0.00000000000E+00 -0.19122803755E+03  0.19122803755E+03  0.00000000000E+00 0. -1.
      99926    2    1    2    0    0  0.00000000000E+00  0.00000000000E+00  0.70307705207E+02  0.45276378031E+03  0.44727158120E+03 0.  0.
      99925    2    3    3    0    0  0.73371302321E+02  0.71140421593E+02  0.71817758313E+02  0.29122710971E+03  0.26308008559E+03 0.  0.
         25    1    4    4    0    0  0.80738353432E+00  0.55143198770E+02  0.36912143506E+02  0.14160310264E+03  0.12509000000E+03 0.  0.
         25    1    3    3    0    0 -0.73371302321E+02 -0.71140421593E+02 -0.15100531058E+01  0.16153667060E+03  0.12509000000E+03 0.  0.
         25    1    4    4    0    0  0.72563918786E+02  0.15997222823E+02  0.34905614808E+02  0.14962400707E+03  0.12509000000E+03 0.  0.
<mgrwt>
<rscale>  2 0.44727158E+03</rscale>
<asrwt>0</asrwt>
<pdfrwt beam="1">  1       21 0.38461139E-01 0.44727158E+03</pdfrwt>
<pdfrwt beam="2">  1       21 0.28121770E-01 0.44727158E+03</pdfrwt>
<totfact> 0.73114400E+04</totfact>
</mgrwt>
</event>
<event>
 7    0  0.4707675E-002  0.4675309E+03  0.7546771E-02  0.1022619E+00
         21   -1    0    0  502  501  0.00000000000E+00  0.00000000000E+00  0.40688972731E+03  0.40688972731E+03  0.00000000000E+00 0.  1.
         21   -1    0    0  501  502 -0.00000000000E+00 -0.00000000000E+00 -0.13430242294E+03  0.13430242294E+03  0.00000000000E+00 0.  1.
      99926    2    1    2    0    0  0.00000000000E+00  0.71054273576E-14  0.27258730437E+03  0.54119215024E+03  0.46753085993E+03 0.  0.
      99925    2    3    3    0    0  0.11764664010E+03 -0.34914851558E+02  0.19435269570E+03  0.34928607718E+03  0.26299812661E+03 0.  0.
         25    1    4    4    0    0  0.83480452593E+02 -0.22809526677E+02  0.64004396727E+02  0.16502524465E+03  0.12509000000E+03 0.  0.
         25    1    3    3    0    0 -0.11764664010E+03  0.34914851558E+02  0.78234608667E+02  0.19190607306E+03  0.12509000000E+03 0.  0.
         25    1    4    4    0    0  0.34166187503E+02 -0.12105324881E+02  0.13034829897E+03  0.18426083253E+03  0.12509000000E+03 0.  0.
<mgrwt>
<rscale>  2 0.46753086E+03</rscale>
<asrwt>0</asrwt>
<pdfrwt beam="1">  1       21 0.59836724E-01 0.46753086E+03</pdfrwt>
<pdfrwt beam="2">  1       21 0.19750357E-01 0.46753086E+03</pdfrwt>
<totfact> 0.56619819E+04</totfact>
</mgrwt>
</event>
<event>
 7    0  0.4707675E-002  0.4534922E+03  0.7546771E-02  0.1026686E+00
         21   -1    0    0  502  501  0.00000000000E+00  0.00000000000E+00  0.57109150644E+03  0.57109150644E+03  0.00000000000E+00 0. -1.
         21   -1    0    0  501  502 -0.00000000000E+00 -0.00000000000E+00 -0.90027256578E+02  0.90027256578E+02  0.00000000000E+00 0. -1.
      99926    2    1    2    0    0  0.00000000000E+00  0.00000000000E+00  0.48106424986E+03  0.66111876302E+03  0.45349223402E+03 0.  0.
      99925    2    3    3    0    0 -0.31244280797E+02  0.10120323932E+03  0.35505236929E+03  0.45437060008E+03  0.26300600098E+03 0.  0.
         25    1    3    3    0    0  0.31244280797E+02 -0.10120323932E+03  0.12601188057E+03  0.20674816293E+03  0.12509000000E+03 0.  0.
         25    1    4    4    0    0  0.15325197764E+02  0.20876252688E+02  0.15856553328E+03  0.20362027418E+03  0.12509000000E+03 0.  0.
         25    1    4    4    0    0 -0.46569478561E+02  0.80326986633E+02  0.19648683601E+03  0.25075032590E+03  0.12509000000E+03 0.  0.
<mgrwt>
<rscale>  2 0.45349223E+03</rscale>
<asrwt>0</asrwt>
<pdfrwt beam="1">  1       21 0.83984043E-01 0.45349223E+03</pdfrwt>
<pdfrwt beam="2">  1       21 0.13239303E-01 0.45349223E+03</pdfrwt>
<totfact> 0.55724455E+04</totfact>
</mgrwt>
</event>
<event>
 7    0  0.4707675E-002  0.4583474E+03  0.7546771E-02  0.1025262E+00
         21   -1    0    0  502  501  0.00000000000E+00  0.00000000000E+00  0.23964752530E+03  0.23964752530E+03  0.00000000000E+00 0.  1.
         21   -1    0    0  501  502 -0.00000000000E+00 -0.00000000000E+00 -0.21915765530E+03  0.21915765530E+03  0.00000000000E+00 0.  1.
      99926    2    1    2    0    0  0.53290705182E-14  0.00000000000E+00  0.20489869999E+02  0.45880518060E+03  0.45834742169E+03 0.  0.
      99925    2    3    3    0    0  0.15638513331E+02  0.15607001585E+02  0.12703918493E+03  0.29300890136E+03  0.26311047141E+03 0.  0.
         25    1    4    4    0    0  0.34558180158E+02  0.37717411885E+02  0.73777901860E+02  0.15397258807E+03  0.12509000000E+03 0.  0.
         25    1    4    4    0    0 -0.18919666827E+02 -0.22110410301E+02  0.53261283075E+02  0.13903631328E+03  0.12509000000E+03 0.  0.
         25    1    3    3    0    0 -0.15638513331E+02 -0.15607001585E+02 -0.10654931494E+03  0.16579627924E+03  0.12509000000E+03 0.  0.
<mgrwt>
<rscale>  2 0.45834742E+03</rscale>
<asrwt>0</asrwt>
<pdfrwt beam="1">  1       21 0.35242283E-01 0.45834742E+03</pdfrwt>
<pdfrwt beam="2">  1       21 0.32229067E-01 0.45834742E+03</pdfrwt>
<totfact> 0.66474674E+04</totfact>
</mgrwt>
</event>
<event>
 7    0  0.4707675E-002  0.4523606E+03  0.7546771E-02  0.1027020E+00
         21   -1    0    0  502  501  0.00000000000E+00  0.00000000000E+00  0.45927272234E+03  0.45927272234E+03  0.00000000000E+00 0. -1.
         21   -1    0    0  501  502 -0.00000000000E+00 -0.00000000000E+00 -0.11138813119E+03  0.11138813119E+03  0.00000000000E+00 0. -1.
      99926    2    1    2    0    0  0.44408920985E-15  0.00000000000E+00  0.34788459114E+03  0.57066085353E+03  0.45236060947E+03 0.  0.
      99925    2    3    3    0    0  0.28124062512E+01  0.96254987367E+02  0.28827319040E+03  0.40191856654E+03  0.26299081657E+03 0.  0.
         25    1    3    3    0    0 -0.28124062512E+01 -0.96254987367E+02  0.59611400739E+02  0.16874228699E+03  0.12509000000E+03 0.  0.
         25    1    4    4    0    0  0.56246794432E+01  0.14105542696E+02  0.16741330758E+03  0.20953598023E+03  0.12509000000E+03 0.  0.
         25    1    4    4    0    0 -0.28122731920E+01  0.82149444671E+02  0.12085988282E+03  0.19238258631E+03  0.12509000000E+03 0.  0.
<mgrwt>
<rscale>  2 0.45236061E+03</rscale>
<asrwt>0</asrwt>
<pdfrwt beam="1">  1       21 0.67540105E-01 0.45236061E+03</pdfrwt>
<pdfrwt beam="2">  1       21 0.16380608E-01 0.45236061E+03</pdfrwt>
<totfact> 0.61801329E+04</totfact>
</mgrwt>
</event>
<event>
 7    0  0.4707675E-002  0.4450346E+03  0.7546771E-02  0.1029213E+00
         21   -1    0    0  502  501  0.00000000000E+00  0.00000000000E+00  0.48837805322E+02  0.48837805322E+02  0.00000000000E+00 0.  1.
         21   -1    0    0  501  502 -0.00000000000E+00 -0.00000000000E+00 -0.10138446422E+04  0.10138446422E+04  0.00000000000E+00 0.  1.
      99926    2    1    2    0    0 -0.71054273576E-14  0.00000000000E+00 -0.96500683691E+03  0.10626824476E+04  0.44503459310E+03 0.  0.
      99925    2    3    3    0    0 -0.58254749171E+02 -0.78988007922E+02 -0.69173978386E+03  0.74652566433E+03  0.26299033771E+03 0.  0.
         25    1    4    4    0    0 -0.19295280937E+02 -0.20163151359E+02 -0.23420229571E+03  0.26697768438E+03  0.12509000000E+03 0.  0.
         25    1    4    4    0    0 -0.38959468234E+02 -0.58824856563E+02 -0.45753748815E+03  0.47954797995E+03  0.12509000000E+03 0.  0.
         25    1    3    3    0    0  0.58254749171E+02  0.78988007922E+02 -0.27326705306E+03  0.31615678323E+03  0.12509000000E+03 0.  0.
<mgrwt>
<rscale>  2 0.44503459E+03</rscale>
<asrwt>0</asrwt>
<pdfrwt beam="1">  1       21 0.71820304E-02 0.44503459E+03</pdfrwt>
<pdfrwt beam="2">  1       21 0.14909480E+00 0.44503459E+03</pdfrwt>
<totfact> 0.39823601E+04</totfact>
</mgrwt>
</event>
<event>
 7    0  0.4707675E-002  0.4938618E+03  0.7546771E-02  0.1015394E+00
         21   -1    0    0  502  501  0.00000000000E+00  0.00000000000E+00  0.23241431333E+03  0.23241431333E+03  0.00000000000E+00 0.  1.
         21   -1    0    0  501  502 -0.00000000000E+00 -0.00000000000E+00 -0.26235419823E+03  0.26235419823E+03  0.00000000000E+00 0.  1.
      99926    2    1    2    0    0 -0.14210854715E-13  0.71054273576E-14 -0.29939884898E+02  0.49476851157E+03  0.49386180590E+03 0.  0.
      99925    2    3    3    0    0  0.12496978002E+03  0.56716542546E+02 -0.70193014668E+02  0.30476315724E+03  0.26290551646E+03 0.  0.
         25    1    4    4    0    0  0.81181198489E+02  0.12207423922E+02 -0.30128142795E+01  0.14965290955E+03  0.12509000000E+03 0.  0.
         25    1    3    3    0    0 -0.12496978002E+03 -0.56716542546E+02  0.40253129771E+02  0.19000535433E+03  0.12509000000E+03 0.  0.
         25    1    4    4    0    0  0.43788581533E+02  0.44509118624E+02 -0.67180200389E+02  0.15511024769E+03  0.12509000000E+03 0.  0.
<mgrwt>
<rscale>  2 0.49386181E+03</rscale>
<asrwt>0</asrwt>
<pdfrwt beam="1">  1       21 0.34178576E-01 0.49386181E+03</pdfrwt>
<pdfrwt beam="2">  1       21 0.38581500E-01 0.49386181E+03</pdfrwt>
<totfact> 0.48759884E+04</totfact>
</mgrwt>
</event>
<event>
 7    0  0.4707675E-002  0.4404267E+03  0.7546771E-02  0.1030616E+00
         21   -1    0    0  502  501  0.00000000000E+00  0.00000000000E+00  0.25567174435E+03  0.25567174435E+03  0.00000000000E+00 0.  1.
         21   -1    0    0  501  502 -0.00000000000E+00 -0.00000000000E+00 -0.18967257028E+03  0.18967257028E+03  0.00000000000E+00 0.  1.
      99926    2    1    2    0    0  0.00000000000E+00  0.35527136788E-14  0.65999174062E+02  0.44534431463E+03  0.44042668811E+03 0.  0.
      99925    2    3    3    0    0 -0.70475226790E+02  0.19595192489E+02 -0.25199677173E+02  0.27412671120E+03  0.26298232051E+03 0.  0.
         25    1    3    3    0    0  0.70475226790E+02 -0.19595192489E+02  0.91198851236E+02  0.17121760344E+03  0.12509000000E+03 0.  0.
         25    1    4    4    0    0 -0.60718938023E+02  0.30560056570E+02  0.11804735343E+02  0.14285505370E+03  0.12509000000E+03 0.  0.
         25    1    4    4    0    0 -0.97562887670E+01 -0.10964864081E+02 -0.37004412516E+02  0.13127165749E+03  0.12509000000E+03 0.  0.
<mgrwt>
<rscale>  2 0.44042669E+03</rscale>
<asrwt>0</asrwt>
<pdfrwt beam="1">  1       21 0.37598786E-01 0.44042669E+03</pdfrwt>
<pdfrwt beam="2">  1       21 0.27893025E-01 0.44042669E+03</pdfrwt>
<totfact> 0.77932968E+04</totfact>
</mgrwt>
</event>
<event>
 7    0  0.4707675E-002  0.4607523E+03  0.7546771E-02  0.1024563E+00
         21   -1    0    0  502  501  0.00000000000E+00  0.00000000000E+00  0.48396294146E+03  0.48396294146E+03  0.00000000000E+00 0.  1.
         21   -1    0    0  501  502 -0.00000000000E+00 -0.00000000000E+00 -0.10966372477E+03  0.10966372477E+03  0.00000000000E+00 0.  1.
      99926    2    1    2    0    0  0.00000000000E+00  0.00000000000E+00  0.37429921669E+03  0.59362666622E+03  0.46075233612E+03 0.  0.
      99925    2    3    3    0    0  0.99970162002E+02  0.13997298396E+02  0.15437373875E+03  0.32122130357E+03  0.26298653388E+03 0.  0.
         25    1    4    4    0    0  0.43082079122E+02  0.14871755797E+02  0.31344738058E+02  0.13677439587E+03  0.12509000000E+03 0.  0.
         25    1    3    3    0    0 -0.99970162002E+02 -0.13997298396E+02  0.21992547795E+03  0.27240536265E+03  0.12509000000E+03 0.  0.
         25    1    4    4    0    0  0.56888082880E+02 -0.87445740145E+00  0.12302900069E+03  0.18444690770E+03  0.12509000000E+03 0.  0.
<mgrwt>
<rscale>  2 0.46075234E+03</rscale>
<asrwt>0</asrwt>
<pdfrwt beam="1">  1       21 0.71171020E-01 0.46075234E+03</pdfrwt>
<pdfrwt beam="2">  1       21 0.16127018E-01 0.46075234E+03</pdfrwt>
<totfact> 0.56461428E+04</totfact>
</mgrwt>
</event>
<event>
 7    0  0.4707675E-002  0.4796153E+03  0.7546771E-02  0.1019241E+00
         21   -1    0    0  502  501  0.00000000000E+00  0.00000000000E+00  0.22358173530E+03  0.22358173530E+03  0.00000000000E+00 0.  1.
         21   -1    0    0  501  502 -0.00000000000E+00 -0.00000000000E+00 -0.25721113308E+03  0.25721113308E+03  0.00000000000E+00 0.  1.
      99926    2    1    2    0    0  0.00000000000E+00  0.35527136788E-14 -0.33629397781E+02  0.48079286838E+03  0.47961531031E+03 0.  0.
      99925    2    3    3    0    0 -0.34047601896E+02 -0.45750893328E+01 -0.15160417508E+03  0.30544827389E+03  0.26293469053E+03 0.  0.
         25    1    4    4    0    0 -0.37245197460E+01 -0.36184090265E+02 -0.54827642779E+02  0.14133909207E+03  0.12509000000E+03 0.  0.
         25    1    3    3    0    0  0.34047601896E+02  0.45750893328E+01  0.11797477730E+03  0.17534459449E+03  0.12509000000E+03 0.  0.
         25    1    4    4    0    0 -0.30323082150E+02  0.31609000933E+02 -0.96776532303E+02  0.16410918181E+03  0.12509000000E+03 0.  0.
<mgrwt>
<rscale>  2 0.47961531E+03</rscale>
<asrwt>0</asrwt>
<pdfrwt beam="1">  1       21 0.32879667E-01 0.47961531E+03</pdfrwt>
<pdfrwt beam="2">  1       21 0.37825166E-01 0.47961531E+03</pdfrwt>
<totfact> 0.55061131E+04</totfact>
</mgrwt>
</event>
<event>
 7    0  0.4707675E-002  0.4094158E+03  0.7546771E-02  0.1040567E+00
         21   -1    0    0  502  501  0.00000000000E+00  0.00000000000E+00  0.33129452725E+02  0.33129452725E+02  0.00000000000E+00 0. -1.
         21   -1    0    0  501  502 -0.00000000000E+00 -0.00000000000E+00 -0.12648964672E+04  0.12648964672E+04  0.00000000000E+00 0. -1.
      99926    2    1    2    0    0  0.00000000000E+00 -0.71054273576E-14 -0.12317670145E+04  0.12980259199E+04  0.40941581656E+03 0.  0.
      99925    2    3    3    0    0  0.24971262990E+02 -0.52799656264E+02 -0.75143985026E+03  0.79825291099E+03  0.26293439042E+03 0.  0.
         25    1    4    4    0    0  0.14805736145E+02 -0.52442893507E+01 -0.26214271598E+03  0.29088317936E+03  0.12509000000E+03 0.  0.
         25    1    4    4    0    0  0.10165526845E+02 -0.47555366914E+02 -0.48929713428E+03  0.50736973163E+03  0.12509000000E+03 0.  0.
         25    1    3    3    0    0 -0.24971262990E+02  0.52799656264E+02 -0.48032716420E+03  0.49977300892E+03  0.12509000000E+03 0.  0.
<mgrwt>
<rscale>  2 0.40941582E+03</rscale>
<asrwt>0</asrwt>
<pdfrwt beam="1">  1       21 0.48719782E-02 0.40941582E+03</pdfrwt>
<pdfrwt beam="2">  1       21 0.18601419E+00 0.40941582E+03</pdfrwt>
<totfact> 0.42294831E+04</totfact>
</mgrwt>
</event>
<event>
 7    0  0.4707675E-002  0.4527836E+03  0.7546771E-02  0.1026895E+00
         21   -1    0    0  502  501  0.00000000000E+00  0.00000000000E+00  0.12103609393E+03  0.12103609393E+03  0.00000000000E+00 0. -1.
         21   -1    0    0  501  502 -0.00000000000E+00 -0.00000000000E+00 -0.42345426312E+03  0.42345426312E+03  0.00000000000E+00 0. -1.
      99926    2    1    2    0    0  0.00000000000E+00  0.00000000000E+00 -0.30241816919E+03  0.54449035705E+03  0.45278361262E+03 0.  0.
      99925    2    3    3    0    0  0.85270926281E+02  0.69111269545E+02 -0.21123771291E+03  0.35473029235E+03  0.26299184494E+03 0.  0.
         25    1    3    3    0    0 -0.85270926281E+02 -0.69111269545E+02 -0.91180456280E+02  0.18976006470E+03  0.12509000000E+03 0.  0.
         25    1    4    4    0    0  0.73861406157E+02  0.85265485108E+01 -0.10852835921E+03  0.18153270284E+03  0.12509000000E+03 0.  0.
         25    1    4    4    0    0  0.11409520124E+02  0.60584721035E+02 -0.10270935371E+03  0.17319758951E+03  0.12509000000E+03 0.  0.
<mgrwt>
<rscale>  2 0.45278361E+03</rscale>
<asrwt>0</asrwt>
<pdfrwt beam="1">  1       21 0.17799426E-01 0.45278361E+03</pdfrwt>
<pdfrwt beam="2">  1       21 0.62272685E-01 0.45278361E+03</pdfrwt>
<totfact> 0.63335575E+04</totfact>
</mgrwt>
</event>
<event>
 7    0  0.4707675E-002  0.4557273E+03  0.7546771E-02  0.1026028E+00
         21   -1    0    0  502  501  0.00000000000E+00  0.00000000000E+00  0.11750576215E+03  0.11750576215E+03  0.00000000000E+00 0. -1.
         21   -1    0    0  501  502 -0.00000000000E+00 -0.00000000000E+00 -0.44186637509E+03  0.44186637509E+03  0.00000000000E+00 0. -1.
      99926    2    1    2    0    0  0.00000000000E+00  0.00000000000E+00 -0.32436061294E+03  0.55937213724E+03  0.45572730957E+03 0.  0.
      99925    2    3    3    0    0 -0.47643010842E+02 -0.10328777375E+03 -0.21435227143E+03  0.35766055108E+03  0.26274693688E+03 0.  0.
         25    1    4    4    0    0  0.16170722464E+02 -0.45843789956E+02 -0.10988955363E+03  0.17345422290E+03  0.12509000000E+03 0.  0.
         25    1    4    4    0    0 -0.63813733307E+02 -0.57443983794E+02 -0.10446271779E+03  0.18420632818E+03  0.12509000000E+03 0.  0.
         25    1    3    3    0    0  0.47643010842E+02  0.10328777375E+03 -0.11000834152E+03  0.20171158616E+03  0.12509000000E+03 0.  0.
<mgrwt>
<rscale>  2 0.45572731E+03</rscale>
<asrwt>0</asrwt>
<pdfrwt beam="1">  1       21 0.17280259E-01 0.45572731E+03</pdfrwt>
<pdfrwt beam="2">  1       21 0.64980348E-01 0.45572731E+03</pdfrwt>
<totfact> 0.60900292E+04</totfact>
</mgrwt>
</event>
<event>
 7    0  0.4707675E-002  0.5141737E+03  0.7546771E-02  0.1010144E+00
         21   -1    0    0  502  501  0.00000000000E+00  0.00000000000E+00  0.95443801516E+03  0.95443801516E+03  0.00000000000E+00 0.  1.
         21   -1    0    0  501  502 -0.00000000000E+00 -0.00000000000E+00 -0.69248762668E+02  0.69248762668E+02  0.00000000000E+00 0.  1.
      99926    2    1    2    0    0  0.17763568394E-14  0.00000000000E+00  0.88518925250E+03  0.10236867778E+04  0.51417371226E+03 0.  0.
      99925    2    3    3    0    0 -0.13409257753E+02 -0.72517396000E+02  0.82039782908E+03  0.86467728892E+03  0.26301261395E+03 0.  0.
         25    1    4    4    0    0  0.33211990002E+02 -0.30714395634E+02  0.38140809385E+03  0.40393817910E+03  0.12509000000E+03 0.  0.
         25    1    3    3    0    0  0.13409257753E+02  0.72517396000E+02  0.64791423416E+02  0.15900948891E+03  0.12509000000E+03 0.  0.
         25    1    4    4    0    0 -0.46621247755E+02 -0.41803000366E+02  0.43898973522E+03  0.46073910982E+03  0.12509000000E+03 0.  0.
<mgrwt>
<rscale>  2 0.51417371E+03</rscale>
<asrwt>0</asrwt>
<pdfrwt beam="1">  1       21 0.14035852E+00 0.51417371E+03</pdfrwt>
<pdfrwt beam="2">  1       21 0.10183642E-01 0.51417371E+03</pdfrwt>
<totfact> 0.24707558E+04</totfact>
</mgrwt>
</event>
<event>
 7    0  0.4707675E-002  0.4576678E+03  0.7546771E-02  0.1025460E+00
         21   -1    0    0  502  501  0.00000000000E+00  0.00000000000E+00  0.20140203663E+03  0.20140203663E+03  0.00000000000E+00 0.  1.
         21   -1    0    0  501  502 -0.00000000000E+00 -0.00000000000E+00 -0.26000213690E+03  0.26000213690E+03  0.00000000000E+00 0.  1.
      99926    2    1    2    0    0 -0.71054273576E-14 -0.53290705182E-14 -0.58600100264E+02  0.46140417353E+03  0.45766782671E+03 0.  0.
      99925    2    3    3    0    0 -0.32161393094E+02  0.14287834573E+02 -0.14787937579E+03  0.30374379626E+03  0.26297050511E+03 0.  0.
         25    1    3    3    0    0  0.32161393094E+02 -0.14287834573E+02  0.89279275531E+02  0.15766037727E+03  0.12509000000E+03 0.  0.
         25    1    4    4    0    0 -0.19299957450E+02 -0.29713926662E+02 -0.54081619418E+02  0.14081099195E+03  0.12509000000E+03 0.  0.
         25    1    4    4    0    0 -0.12861435644E+02  0.44001761235E+02 -0.93797756377E+02  0.16293280431E+03  0.12509000000E+03 0.  0.
<mgrwt>
<rscale>  2 0.45766783E+03</rscale>
<asrwt>0</asrwt>
<pdfrwt beam="1">  1       21 0.29617947E-01 0.45766783E+03</pdfrwt>
<pdfrwt beam="2">  1       21 0.38235608E-01 0.45766783E+03</pdfrwt>
<totfact> 0.66649013E+04</totfact>
</mgrwt>
</event>
<event>
 7    0  0.4707675E-002  0.4495654E+03  0.7546771E-02  0.1027852E+00
         21   -1    0    0  502  501  0.00000000000E+00  0.00000000000E+00  0.45681197080E+02  0.45681197080E+02  0.00000000000E+00 0. -1.
         21   -1    0    0  501  502 -0.00000000000E+00 -0.00000000000E+00 -0.11060845064E+04  0.11060845064E+04  0.00000000000E+00 0. -1.
      99926    2    1    2    0    0  0.00000000000E+00 -0.13322676296E-14 -0.10604033093E+04  0.11517657034E+04  0.44956540935E+03 0.  0.
      99925    2    3    3    0    0  0.78508481238E+02  0.20007219624E+01 -0.47988848606E+03  0.55275606028E+03  0.26282830634E+03 0.  0.
         25    1    3    3    0    0 -0.78508481238E+02 -0.20007219624E+01 -0.58051482321E+03  0.59900964315E+03  0.12509000000E+03 0.  0.
         25    1    4    4    0    0  0.42313075393E+02  0.13019982105E+02 -0.16438920634E+03  0.21126106017E+03  0.12509000000E+03 0.  0.
         25    1    4    4    0    0  0.36195405845E+02 -0.11019260143E+02 -0.31549927972E+03  0.34149500012E+03  0.12509000000E+03 0.  0.
<mgrwt>
<rscale>  2 0.44956541E+03</rscale>
<asrwt>0</asrwt>
<pdfrwt beam="1">  1       21 0.67178238E-02 0.44956541E+03</pdfrwt>
<pdfrwt beam="2">  1       21 0.16265947E+00 0.44956541E+03</pdfrwt>
<totfact> 0.35190490E+04</totfact>
</mgrwt>
</event>
<event>
 7    0  0.4707675E-002  0.4540123E+03  0.7546771E-02  0.1026532E+00
         21   -1    0    0  502  501  0.00000000000E+00  0.00000000000E+00  0.72794122430E+02  0.72794122430E+02  0.00000000000E+00 0. -1.
         21   -1    0    0  501  502 -0.00000000000E+00 -0.00000000000E+00 -0.70791155286E+03  0.70791155286E+03  0.00000000000E+00 0. -1.
      99926    2    1    2    0    0 -0.14210854715E-13 -0.35527136788E-14 -0.63511743043E+03  0.78070567529E+03  0.45401233573E+03 0.  0.
      99925    2    3    3    0    0  0.99554145983E+02  0.27127499096E+02 -0.32568101657E+03  0.43135580551E+03  0.26334915456E+03 0.  0.
         25    1    4    4    0    0  0.47832041011E+02 -0.24204484172E+02 -0.18335561774E+03  0.22834305739E+03  0.12509000000E+03 0.  0.
         25    1    3    3    0    0 -0.99554145983E+02 -0.27127499096E+02 -0.30943641387E+03  0.34934986978E+03  0.12509000000E+03 0.  0.
         25    1    4    4    0    0  0.51722104972E+02  0.51331983268E+02 -0.14232539883E+03  0.20301274812E+03  0.12509000000E+03 0.  0.
<mgrwt>
<rscale>  2 0.45401234E+03</rscale>
<asrwt>0</asrwt>
<pdfrwt beam="1">  1       21 0.10705019E-01 0.45401234E+03</pdfrwt>
<pdfrwt beam="2">  1       21 0.10410463E+00 0.45401234E+03</pdfrwt>
<totfact> 0.49091723E+04</totfact>
</mgrwt>
</event>
<event>
 7    0  0.4707675E-002  0.4514199E+03  0.7546771E-02  0.1027299E+00
         21   -1    0    0  502  501  0.00000000000E+00  0.00000000000E+00  0.14691765398E+03  0.14691765398E+03  0.00000000000E+00 0.  1.
         21   -1    0    0  501  502 -0.00000000000E+00 -0.00000000000E+00 -0.34675869817E+03  0.34675869817E+03  0.00000000000E+00 0.  1.
      99926    2    1    2    0    0  0.00000000000E+00  0.00000000000E+00 -0.19984104419E+03  0.49367635215E+03  0.45141986856E+03 0.  0.
      99925    2    3    3    0    0 -0.71543366569E+02  0.30332846176E+02 -0.21133843935E+03  0.34596638955E+03  0.26265999294E+03 0.  0.
         25    1    4    4    0    0 -0.59201156678E+02 -0.88924662540E+01 -0.13612875768E+03  0.19432549929E+03  0.12509000000E+03 0.  0.
         25    1    4    4    0    0 -0.12342209891E+02  0.39225312430E+02 -0.75209681673E+02  0.15164089026E+03  0.12509000000E+03 0.  0.
         25    1    3    3    0    0  0.71543366569E+02 -0.30332846176E+02  0.11497395164E+02  0.14770996261E+03  0.12509000000E+03 0.  0.
<mgrwt>
<rscale>  2 0.45141987E+03</rscale>
<asrwt>0</asrwt>
<pdfrwt beam="1">  1       21 0.21605537E-01 0.45141987E+03</pdfrwt>
<pdfrwt beam="2">  1       21 0.50993926E-01 0.45141987E+03</pdfrwt>
<totfact> 0.67618674E+04</totfact>
</mgrwt>
</event>
<event>
 7    0  0.4707675E-002  0.4518288E+03  0.7546771E-02  0.1027178E+00
         21   -1    0    0  502  501  0.00000000000E+00  0.00000000000E+00  0.11052494271E+04  0.11052494271E+04  0.00000000000E+00 0.  1.
         21   -1    0    0  501  502 -0.00000000000E+00 -0.00000000000E+00 -0.46177194065E+02  0.46177194065E+02  0.00000000000E+00 0.  1.
      99926    2    1    2    0    0  0.00000000000E+00 -0.14210854715E-13  0.10590722330E+04  0.11514266212E+04  0.45182880513E+03 0.  0.
      99925    2    3    3    0    0  0.11762498473E+02  0.10707136969E+03  0.60947465230E+03  0.67248181508E+03  0.26300153086E+03 0.  0.
         25    1    3    3    0    0 -0.11762498473E+02 -0.10707136969E+03  0.44959758075E+03  0.47894480610E+03  0.12509000000E+03 0.  0.
         25    1    4    4    0    0 -0.17805118364E+02  0.86841271262E+02  0.35418307279E+03  0.38594246435E+03  0.12509000000E+03 0.  0.
         25    1    4    4    0    0  0.29567616836E+02  0.20230098430E+02  0.25529157951E+03  0.28653935073E+03  0.12509000000E+03 0.  0.
<mgrwt>
<rscale>  2 0.45182881E+03</rscale>
<asrwt>0</asrwt>
<pdfrwt beam="1">  1       21 0.16253666E+00 0.45182881E+03</pdfrwt>
<pdfrwt beam="2">  1       21 0.67907645E-02 0.45182881E+03</pdfrwt>
<totfact> 0.34581578E+04</totfact>
</mgrwt>
</event>
<event>
 7    0  0.4707675E-002  0.4437940E+03  0.7546771E-02  0.1029589E+00
         21   -1    0    0  502  501  0.00000000000E+00  0.00000000000E+00  0.88580291311E+02  0.88580291311E+02  0.00000000000E+00 0. -1.
         21   -1    0    0  501  502 -0.00000000000E+00 -0.00000000000E+00 -0.55586039994E+03  0.55586039994E+03  0.00000000000E+00 0. -1.
      99926    2    1    2    0    0  0.00000000000E+00  0.00000000000E+00 -0.46728010863E+03  0.64444069126E+03  0.44379398894E+03 0.  0.
      99925    2    3    3    0    0 -0.50452097322E+02  0.61699404695E+02 -0.39036914801E+03  0.47736276145E+03  0.26293517003E+03 0.  0.
         25    1    4    4    0    0 -0.64704318666E+02  0.44360373734E+02 -0.21143871879E+03  0.25789209278E+03  0.12509000000E+03 0.  0.
         25    1    4    4    0    0  0.14252221345E+02  0.17339030961E+02 -0.17893042922E+03  0.21947066867E+03  0.12509000000E+03 0.  0.
         25    1    3    3    0    0  0.50452097322E+02 -0.61699404695E+02 -0.76910960620E+02  0.16707792980E+03  0.12509000000E+03 0.  0.
<mgrwt>
<rscale>  2 0.44379399E+03</rscale>
<asrwt>0</asrwt>
<pdfrwt beam="1">  1       21 0.13026514E-01 0.44379399E+03</pdfrwt>
<pdfrwt beam="2">  1       21 0.81744175E-01 0.44379399E+03</pdfrwt>
<totfact> 0.61262173E+04</totfact>
</mgrwt>
</event>
<event>
 7    0  0.4707675E-002  0.4569906E+03  0.7546771E-02  0.1025658E+00
         21   -1    0    0  502  501  0.00000000000E+00  0.00000000000E+00  0.13780762364E+03  0.13780762364E+03  0.00000000000E+00 0.  1.
         21   -1    0    0  501  502 -0.00000000000E+00 -0.00000000000E+00 -0.37886218608E+03  0.37886218608E+03  0.00000000000E+00 0.  1.
      99926    2    1    2    0    0  0.14210854715E-13  0.00000000000E+00 -0.24105456244E+03  0.51666980972E+03  0.45699057999E+03 0.  0.
      99925    2    3    3    0    0  0.76159331366E+02 -0.34749720487E+02 -0.24053999088E+03  0.36615217051E+03  0.26305919093E+03 0.  0.
         25    1    4    4    0    0  0.13331024621E+02  0.16042754262E+02 -0.10175307825E+03  0.16259238363E+03  0.12509000000E+03 0.  0.
         25    1    4    4    0    0  0.62828306745E+02 -0.50792474748E+02 -0.13878691263E+03  0.20355978688E+03  0.12509000000E+03 0.  0.
         25    1    3    3    0    0 -0.76159331366E+02  0.34749720487E+02 -0.51457156132E+00  0.15051763921E+03  0.12509000000E+03 0.  0.
<mgrwt>
<rscale>  2 0.45699058E+03</rscale>
<asrwt>0</asrwt>
<pdfrwt beam="1">  1       21 0.20265827E-01 0.45699058E+03</pdfrwt>
<pdfrwt beam="2">  1       21 0.55715027E-01 0.45699058E+03</pdfrwt>
<totfact> 0.63111958E+04</totfact>
</mgrwt>
</event>
<event>
 7    0  0.4707675E-002  0.4535765E+03  0.7546771E-02  0.1026661E+00
         21   -1    0    0  502  501  0.00000000000E+00  0.00000000000E+00  0.15242006154E+03  0.15242006154E+03  0.00000000000E+00 0.  1.
         21   -1    0    0  501  502 -0.00000000000E+00 -0.00000000000E+00 -0.33744190222E+03  0.33744190222E+03  0.00000000000E+00 0.  1.
      99926    2    1    2    0    0  0.00000000000E+00  0.00000000000E+00 -0.18502184068E+03  0.48986196376E+03  0.45357652277E+03 0.  0.
      99925    2    3    3    0    0 -0.41756681024E+02  0.73035862792E+02 -0.19617977975E+03  0.33870024450E+03  0.26297051542E+03 0.  0.
         25    1    4    4    0    0 -0.24385185391E+02  0.78383777707E+01 -0.12896386545E+03  0.18148075414E+03  0.12509000000E+03 0.  0.
         25    1    4    4    0    0 -0.17371495633E+02  0.65197485022E+02 -0.67215914296E+02  0.15721949036E+03  0.12509000000E+03 0.  0.
         25    1    3    3    0    0  0.41756681024E+02 -0.73035862792E+02  0.11157939070E+02  0.15116171926E+03  0.12509000000E+03 0.  0.
<mgrwt>
<rscale>  2 0.45357652E+03</rscale>
<asrwt>0</asrwt>
<pdfrwt beam="1">  1       21 0.22414715E-01 0.45357652E+03</pdfrwt>
<pdfrwt beam="2">  1       21 0.49623809E-01 0.45357652E+03</pdfrwt>
<totfact> 0.66739938E+04</totfact>
</mgrwt>
</event>
<event>
 7    0  0.4707675E-002  0.4567768E+03  0.7546771E-02  0.1025720E+00
         21   -1    0    0  502  501  0.00000000000E+00  0.00000000000E+00  0.33733664198E+03  0.33733664198E+03  0.00000000000E+00 0. -1.
         21   -1    0    0  501  502 -0.00000000000E+00 -0.00000000000E+00 -0.15462670805E+03  0.15462670805E+03  0.00000000000E+00 0. -1.
      99926    2    1    2    0    0  0.00000000000E+00  0.00000000000E+00  0.18270993394E+03  0.49196335003E+03  0.45677677022E+03 0.  0.
      99925    2    3    3    0    0 -0.31704586428E+02 -0.10992515336E+03  0.12609897846E+03  0.31324281813E+03  0.26292848953E+03 0.  0.
         25    1    4    4    0    0 -0.10848979143E+02 -0.11677239701E+02  0.49454903505E+02  0.13545240439E+03  0.12509000000E+03 0.  0.
         25    1    4    4    0    0 -0.20855607285E+02 -0.98247913656E+02  0.76644074950E+02  0.17779041374E+03  0.12509000000E+03 0.  0.
         25    1    3    3    0    0  0.31704586428E+02  0.10992515336E+03  0.56610955482E+02  0.17872053190E+03  0.12509000000E+03 0.  0.
<mgrwt>
<rscale>  2 0.45677677E+03</rscale>
<asrwt>0</asrwt>
<pdfrwt beam="1">  1       21 0.49608330E-01 0.45677677E+03</pdfrwt>
<pdfrwt beam="2">  1       21 0.22739222E-01 0.45677677E+03</pdfrwt>
<totfact> 0.64918494E+04</totfact>
</mgrwt>
</event>
<event>
 7    0  0.4707675E-002  0.4520466E+03  0.7546771E-02  0.1027113E+00
         21   -1    0    0  502  501  0.00000000000E+00  0.00000000000E+00  0.68414708930E+02  0.68414708930E+02  0.00000000000E+00 0.  1.
         21   -1    0    0  501  502 -0.00000000000E+00 -0.00000000000E+00 -0.74671846069E+03  0.74671846069E+03  0.00000000000E+00 0.  1.
      99926    2    1    2    0    0  0.00000000000E+00  0.00000000000E+00 -0.67830375176E+03  0.81513316962E+03  0.45204657345E+03 0.  0.
      99925    2    3    3    0    0  0.85026371059E+02  0.49943296904E+02 -0.33841251651E+03  0.43977017653E+03  0.26296570148E+03 0.  0.
         25    1    3    3    0    0 -0.85026371059E+02 -0.49943296904E+02 -0.33989123525E+03  0.37536299309E+03  0.12509000000E+03 0.  0.
         25    1    4    4    0    0  0.50378767701E+02  0.17224418528E+02 -0.23145155994E+03  0.26842509854E+03  0.12509000000E+03 0.  0.
         25    1    4    4    0    0  0.34647603358E+02  0.32718878377E+02 -0.10696095657E+03  0.17134507799E+03  0.12509000000E+03 0.  0.
<mgrwt>
<rscale>  2 0.45204657E+03</rscale>
<asrwt>0</asrwt>
<pdfrwt beam="1">  1       21 0.10060986E-01 0.45204657E+03</pdfrwt>
<pdfrwt beam="2">  1       21 0.10981155E+00 0.45204657E+03</pdfrwt>
<totfact> 0.48147714E+04</totfact>
</mgrwt>
</event>
<event>
 7    0  0.4707675E-002  0.4521001E+03  0.7546771E-02  0.1027098E+00
         21   -1    0    0  502  501  0.00000000000E+00  0.00000000000E+00  0.18367123834E+03  0.18367123834E+03  0.00000000000E+00 0.  1.
         21   -1    0    0  501  502 -0.00000000000E+00 -0.00000000000E+00 -0.27820694951E+03  0.27820694951E+03  0.00000000000E+00 0.  1.
      99926    2    1    2    0    0  0.26645352591E-14  0.00000000000E+00 -0.94535711179E+02  0.46187818785E+03  0.45210005499E+03 0.  0.
      99925    2    3    3    0    0 -0.11929144217E+01  0.95190695512E+02 -0.25621852939E+01  0.27975369987E+03  0.26304538818E+03 0.  0.
         25    1    4    4    0    0 -0.30799463591E+02  0.63723013078E+02  0.21250158766E+02  0.14528698049E+03  0.12509000000E+03 0.  0.
         25    1    4    4    0    0  0.29606549169E+02  0.31467682434E+02 -0.23812344060E+02  0.13446671938E+03  0.12509000000E+03 0.  0.
         25    1    3    3    0    0  0.11929144217E+01 -0.95190695512E+02 -0.91973525885E+02  0.18212448798E+03  0.12509000000E+03 0.  0.
<mgrwt>
<rscale>  2 0.45210005E+03</rscale>
<asrwt>0</asrwt>
<pdfrwt beam="1">  1       21 0.27010476E-01 0.45210005E+03</pdfrwt>
<pdfrwt beam="2">  1       21 0.40912786E-01 0.45210005E+03</pdfrwt>
<totfact> 0.69633298E+04</totfact>
</mgrwt>
</event>
<event>
 7    0  0.4707675E-002  0.4516469E+03  0.7546771E-02  0.1027232E+00
         21   -1    0    0  502  501  0.00000000000E+00  0.00000000000E+00  0.20109438508E+04  0.20109438508E+04  0.00000000000E+00 0. -1.
         21   -1    0    0  501  502 -0.00000000000E+00 -0.00000000000E+00 -0.25359346749E+02  0.25359346749E+02  0.00000000000E+00 0. -1.
      99926    2    1    2    0    0  0.00000000000E+00  0.00000000000E+00  0.19855845041E+04  0.20363031976E+04  0.45164686385E+03 0.  0.
      99925    2    3    3    0    0 -0.36209703929E+02 -0.35182160540E+02  0.81325545777E+03  0.85623886543E+03  0.26308102935E+03 0.  0.
         25    1    4    4    0    0  0.13773426407E+02 -0.42636474961E+02  0.39203322553E+03  0.41393856343E+03  0.12509000000E+03 0.  0.
         25    1    3    3    0    0  0.36209703929E+02  0.35182160540E+02  0.11723290463E+04  0.11800643322E+04  0.12509000000E+03 0.  0.
         25    1    4    4    0    0 -0.49983130337E+02  0.74543144217E+01  0.42122223224E+03  0.44230030200E+03  0.12509000000E+03 0.  0.
<mgrwt>
<rscale>  2 0.45164686E+03</rscale>
<asrwt>0</asrwt>
<pdfrwt beam="1">  1       21 0.29572693E+00 0.45164686E+03</pdfrwt>
<pdfrwt beam="2">  1       21 0.37293171E-02 0.45164686E+03</pdfrwt>
<totfact> 0.13473334E+04</totfact>
</mgrwt>
</event>
<event>
 7    0  0.4707675E-002  0.4616355E+03  0.7546771E-02  0.1024308E+00
         21   -1    0    0  502  501  0.00000000000E+00  0.00000000000E+00  0.19314777709E+04  0.19314777709E+04  0.00000000000E+00 0. -1.
         21   -1    0    0  501  502 -0.00000000000E+00 -0.00000000000E+00 -0.27583453551E+02  0.27583453551E+02  0.00000000000E+00 0. -1.
      99926    2    1    2    0    0  0.00000000000E+00  0.00000000000E+00  0.19038943173E+04  0.19590612244E+04  0.46163547254E+03 0.  0.
      99925    2    3    3    0    0  0.75067764099E+02  0.86040051578E+02  0.13379452361E+04  0.13683126059E+04  0.26295222552E+03 0.  0.
         25    1    4    4    0    0  0.29195897622E+02  0.25491273128E+02  0.46100574724E+03  0.47924525301E+03  0.12509000000E+03 0.  0.
         25    1    4    4    0    0  0.45871866476E+02  0.60548778450E+02  0.87693948888E+03  0.88906735289E+03  0.12509000000E+03 0.  0.
         25    1    3    3    0    0 -0.75067764099E+02 -0.86040051578E+02  0.56594908118E+03  0.59074861851E+03  0.12509000000E+03 0.  0.
<mgrwt>
<rscale>  2 0.46163547E+03</rscale>
<asrwt>0</asrwt>
<pdfrwt beam="1">  1       21 0.28404076E+00 0.46163547E+03</pdfrwt>
<pdfrwt beam="2">  1       21 0.40563915E-02 0.46163547E+03</pdfrwt>
<totfact> 0.13672234E+04</totfact>
</mgrwt>
</event>
<event>
 7    0  0.4707675E-002  0.4525542E+03  0.7546771E-02  0.1026963E+00
         21   -1    0    0  502  501  0.00000000000E+00  0.00000000000E+00  0.12585664357E+04  0.12585664357E+04  0.00000000000E+00 0. -1.
         21   -1    0    0  501  502 -0.00000000000E+00 -0.00000000000E+00 -0.40682266222E+02  0.40682266222E+02  0.00000000000E+00 0. -1.
      99926    2    1    2    0    0  0.00000000000E+00 -0.71054273576E-14  0.12178841695E+04  0.12992487019E+04  0.45255423894E+03 0.  0.
      99925    2    3    3    0    0  0.33284138744E+02 -0.36158993784E+02  0.48209278838E+03  0.55128361496E+03  0.26283999084E+03 0.  0.
         25    1    3    3    0    0 -0.33284138744E+02  0.36158993784E+02  0.73579138111E+03  0.74796508698E+03  0.12509000000E+03 0.  0.
         25    1    4    4    0    0  0.28264999229E+02  0.18371404038E+02  0.20772349110E+03  0.24481212290E+03  0.12509000000E+03 0.  0.
         25    1    4    4    0    0  0.50191395148E+01 -0.54530397821E+02  0.27436929728E+03  0.30647149205E+03  0.12509000000E+03 0.  0.
<mgrwt>
<rscale>  2 0.45255424E+03</rscale>
<asrwt>0</asrwt>
<pdfrwt beam="1">  1       21 0.18508327E+00 0.45255424E+03</pdfrwt>
<pdfrwt beam="2">  1       21 0.59826870E-02 0.45255424E+03</pdfrwt>
<totfact> 0.29697388E+04</totfact>
</mgrwt>
</event>
<event>
 7    0  0.4707675E-002  0.4580241E+03  0.7546771E-02  0.1025356E+00
         21   -1    0    0  502  501  0.00000000000E+00  0.00000000000E+00  0.26849897537E+03  0.26849897537E+03  0.00000000000E+00 0.  1.
         21   -1    0    0  501  502 -0.00000000000E+00 -0.00000000000E+00 -0.19533228467E+03  0.19533228467E+03  0.00000000000E+00 0.  1.
      99926    2    1    2    0    0 -0.35527136788E-14 -0.14210854715E-13  0.73166690707E+02  0.46383126004E+03  0.45802409670E+03 0.  0.
      99925    2    3    3    0    0  0.14204707220E+02  0.86565074955E+02 -0.30866282287E+02  0.27899172563E+03  0.26303682191E+03 0.  0.
         25    1    4    4    0    0 -0.79180970214E+01  0.64984379296E+02 -0.47745416351E+02  0.14903958768E+03  0.12509000000E+03 0.  0.
         25    1    3    3    0    0 -0.14204707220E+02 -0.86565074955E+02  0.10403297299E+03  0.18483953441E+03  0.12509000000E+03 0.  0.
         25    1    4    4    0    0  0.22122804241E+02  0.21580695659E+02  0.16879134063E+02  0.12995213796E+03  0.12509000000E+03 0.  0.
<mgrwt>
<rscale>  2 0.45802410E+03</rscale>
<asrwt>0</asrwt>
<pdfrwt beam="1">  1       21 0.39485144E-01 0.45802410E+03</pdfrwt>
<pdfrwt beam="2">  1       21 0.28725336E-01 0.45802410E+03</pdfrwt>
<totfact> 0.66288967E+04</totfact>
</mgrwt>
</event>
<event>
 7    0  0.4707675E-002  0.4564406E+03  0.7546771E-02  0.1025819E+00
         21   -1    0    0  502  501  0.00000000000E+00  0.00000000000E+00  0.61342900087E+02  0.61342900087E+02  0.00000000000E+00 0. -1.
         21   -1    0    0  501  502 -0.00000000000E+00 -0.00000000000E+00 -0.84907141041E+03  0.84907141041E+03  0.00000000000E+00 0. -1.
      99926    2    1    2    0    0 -0.71054273576E-14  0.71054273576E-14 -0.78772851032E+03  0.91041431049E+03  0.45644058845E+03 0.  0.
      99925    2    3    3    0    0 -0.57690954135E+02  0.57091421858E+02 -0.33397124135E+03  0.43278386352E+03  0.26301598018E+03 0.  0.
         25    1    4    4    0    0 -0.63406070557E+02  0.10233841893E+02 -0.15331121810E+03  0.20803100490E+03  0.12509000000E+03 0.  0.
         25    1    3    3    0    0  0.57690954135E+02 -0.57091421858E+02 -0.45375726897E+03  0.47763044698E+03  0.12509000000E+03 0.  0.
         25    1    4    4    0    0  0.57151164215E+01  0.46857579965E+02 -0.18066002325E+03  0.22475285862E+03  0.12509000000E+03 0.  0.
<mgrwt>
<rscale>  2 0.45644059E+03</rscale>
<asrwt>0</asrwt>
<pdfrwt beam="1">  1       21 0.90210141E-02 0.45644059E+03</pdfrwt>
<pdfrwt beam="2">  1       21 0.12486345E+00 0.45644059E+03</pdfrwt>
<totfact> 0.42307384E+04</totfact>
</mgrwt>
</event>
<event>
 7    0  0.4707675E-002  0.4288743E+03  0.7546771E-02  0.1034216E+00
         21   -1    0    0  502  501  0.00000000000E+00  0.00000000000E+00  0.50040760029E+03  0.50040760029E+03  0.00000000000E+00 0.  1.
         21   -1    0    0  501  502 -0.00000000000E+00 -0.00000000000E+00 -0.91891690606E+02  0.91891690606E+02  0.00000000000E+00 0.  1.
      99926    2    1    2    0    0  0.00000000000E+00  0.00000000000E+00  0.40851590968E+03  0.59229929089E+03  0.42887434235E+03 0.  0.
      99925    2    3    3    0    0 -0.22593593364E+02 -0.79405324840E+02  0.29851788274E+03  0.40638869382E+03  0.26310296097E+03 0.  0.
         25    1    4    4    0    0  0.23904857755E+01 -0.56544105392E+02  0.20437282439E+03  0.24620867110E+03  0.12509000000E+03 0.  0.
         25    1    4    4    0    0 -0.24984079140E+02 -0.22861219448E+02  0.94145058347E+02  0.16018002271E+03  0.12509000000E+03 0.  0.
         25    1    3    3    0    0  0.22593593364E+02  0.79405324840E+02  0.10999802694E+03  0.18591059708E+03  0.12509000000E+03 0.  0.
<mgrwt>
<rscale>  2 0.42887434E+03</rscale>
<asrwt>0</asrwt>
<pdfrwt beam="1">  1       21 0.73589352E-01 0.42887434E+03</pdfrwt>
<pdfrwt beam="2">  1       21 0.13513484E-01 0.42887434E+03</pdfrwt>
<totfact> 0.73121223E+04</totfact>
</mgrwt>
</event>
<event>
 7    0  0.4707675E-002  0.4065289E+03  0.7546771E-02  0.1041542E+00
         21   -1    0    0  502  501  0.00000000000E+00  0.00000000000E+00  0.33889751369E+02  0.33889751369E+02  0.00000000000E+00 0.  1.
         21   -1    0    0  501  502 -0.00000000000E+00 -0.00000000000E+00 -0.12191426323E+04  0.12191426323E+04  0.00000000000E+00 0.  1.
      99926    2    1    2    0    0  0.17763568394E-14  0.00000000000E+00 -0.11852528810E+04  0.12530323837E+04  0.40652891997E+03 0.  0.
      99925    2    3    3    0    0  0.54263533357E+01  0.31175348567E+02 -0.63695982058E+03  0.68976145792E+03  0.26277691703E+03 0.  0.
         25    1    4    4    0    0  0.32874455499E+02  0.42332243130E+02 -0.32193184827E+03  0.34951447990E+03  0.12509000000E+03 0.  0.
         25    1    4    4    0    0 -0.27448102163E+02 -0.11156894563E+02 -0.31502797231E+03  0.34024697802E+03  0.12509000000E+03 0.  0.
         25    1    3    3    0    0 -0.54263533357E+01 -0.31175348567E+02 -0.54829306037E+03  0.56327092577E+03  0.12509000000E+03 0.  0.
<mgrwt>
<rscale>  2 0.40652892E+03</rscale>
<asrwt>0</asrwt>
<pdfrwt beam="1">  1       21 0.49837878E-02 0.40652892E+03</pdfrwt>
<pdfrwt beam="2">  1       21 0.17928565E+00 0.40652892E+03</pdfrwt>
<totfact> 0.45351155E+04</totfact>
</mgrwt>
</event>
<event>
 7    0  0.4707675E-002  0.4229570E+03  0.7546771E-02  0.1036108E+00
         21   -1    0    0  502  501  0.00000000000E+00  0.00000000000E+00  0.54918014871E+02  0.54918014871E+02  0.00000000000E+00 0. -1.
         21   -1    0    0  501  502 -0.00000000000E+00 -0.00000000000E+00 -0.81436224199E+03  0.81436224199E+03  0.00000000000E+00 0. -1.
      99926    2    1    2    0    0  0.00000000000E+00  0.00000000000E+00 -0.75944422712E+03  0.86928025686E+03  0.42295700829E+03 0.  0.
      99925    2    3    3    0    0 -0.50717490666E+02 -0.29091514362E+02 -0.60435091843E+03  0.66162664488E+03  0.26285205829E+03 0.  0.
         25    1    4    4    0    0 -0.48159395074E+02  0.75726532615E+01 -0.24527898101E+03  0.27961752277E+03  0.12509000000E+03 0.  0.
         25    1    3    3    0    0  0.50717490666E+02  0.29091514362E+02 -0.15509330869E+03  0.20765361198E+03  0.12509000000E+03 0.  0.
         25    1    4    4    0    0 -0.25580955915E+01 -0.36664167623E+02 -0.35907193742E+03  0.38200912212E+03  0.12509000000E+03 0.  0.
<mgrwt>
<rscale>  2 0.42295701E+03</rscale>
<asrwt>0</asrwt>
<pdfrwt beam="1">  1       21 0.80761789E-02 0.42295701E+03</pdfrwt>
<pdfrwt beam="2">  1       21 0.11975915E+00 0.42295701E+03</pdfrwt>
<totfact> 0.57778483E+04</totfact>
</mgrwt>
</event>
<event>
 7    0  0.4707675E-002  0.4537832E+03  0.7546771E-02  0.1026600E+00
         21   -1    0    0  502  501  0.00000000000E+00  0.00000000000E+00  0.19663576043E+03  0.19663576043E+03  0.00000000000E+00 0. -1.
         21   -1    0    0  501  502 -0.00000000000E+00 -0.00000000000E+00 -0.26180286654E+03  0.26180286654E+03  0.00000000000E+00 0. -1.
      99926    2    1    2    0    0 -0.35527136788E-14  0.71054273576E-14 -0.65167106109E+02  0.45843862696E+03  0.45378323346E+03 0.  0.
      99925    2    3    3    0    0  0.18863629647E+02 -0.42872111455E+02  0.61686453329E+02  0.27422899609E+03  0.26306362217E+03 0.  0.
         25    1    4    4    0    0 -0.96510911851E+00 -0.39658646752E+02 -0.44653065088E+01  0.13130569965E+03  0.12509000000E+03 0.  0.
         25    1    4    4    0    0  0.19828738766E+02 -0.32134647034E+01  0.66151759837E+02  0.14292329644E+03  0.12509000000E+03 0.  0.
         25    1    3    3    0    0 -0.18863629647E+02  0.42872111455E+02 -0.12685355944E+03  0.18420963087E+03  0.12509000000E+03 0.  0.
<mgrwt>
<rscale>  2 0.45378323E+03</rscale>
<asrwt>0</asrwt>
<pdfrwt beam="1">  1       21 0.28917024E-01 0.45378323E+03</pdfrwt>
<pdfrwt beam="2">  1       21 0.38500422E-01 0.45378323E+03</pdfrwt>
<totfact> 0.68961245E+04</totfact>
</mgrwt>
</event>
<event>
 7    0  0.4707675E-002  0.4490897E+03  0.7546771E-02  0.1027994E+00
         21   -1    0    0  502  501  0.00000000000E+00  0.00000000000E+00  0.34143355940E+03  0.34143355940E+03  0.00000000000E+00 0.  1.
         21   -1    0    0  501  502 -0.00000000000E+00 -0.00000000000E+00 -0.14767260848E+03  0.14767260848E+03  0.00000000000E+00 0.  1.
      99926    2    1    2    0    0  0.00000000000E+00  0.00000000000E+00  0.19376095092E+03  0.48910616788E+03  0.44908967629E+03 0.  0.
      99925    2    3    3    0    0  0.41841712671E+02 -0.97327714346E+02  0.10224903221E+03  0.30136871219E+03  0.26295403249E+03 0.  0.
         25    1    4    4    0    0  0.52561583422E+01 -0.87456468871E+02  0.51803320072E+02  0.16126795472E+03  0.12509000000E+03 0.  0.
         25    1    3    3    0    0 -0.41841712671E+02  0.97327714346E+02  0.91511918714E+02  0.18773745568E+03  0.12509000000E+03 0.  0.
         25    1    4    4    0    0  0.36585554328E+02 -0.98712454748E+01  0.50445712138E+02  0.14010075748E+03  0.12509000000E+03 0.  0.
<mgrwt>
<rscale>  2 0.44908968E+03</rscale>
<asrwt>0</asrwt>
<pdfrwt beam="1">  1       21 0.50210817E-01 0.44908968E+03</pdfrwt>
<pdfrwt beam="2">  1       21 0.21716560E-01 0.44908968E+03</pdfrwt>
<totfact> 0.69234892E+04</totfact>
</mgrwt>
</event>
<event>
 7    0  0.4707675E-002  0.4540387E+03  0.7546771E-02  0.1026524E+00
         21   -1    0    0  502  501  0.00000000000E+00  0.00000000000E+00  0.42459989205E+03  0.42459989205E+03  0.00000000000E+00 0.  1.
         21   -1    0    0  501  502 -0.00000000000E+00 -0.00000000000E+00 -0.12137963499E+03  0.12137963499E+03  0.00000000000E+00 0.  1.
      99926    2    1    2    0    0  0.14210854715E-13 -0.71054273576E-14  0.30322025706E+03  0.54597952704E+03  0.45403867639E+03 0.  0.
      99925    2    3    3    0    0  0.10301170174E+03 -0.42149874478E+02  0.17312429961E+03  0.33394064179E+03  0.26297586679E+03 0.  0.
         25    1    4    4    0    0  0.26407440744E+02 -0.46104975151E+01  0.45058212737E+02  0.13563318270E+03  0.12509000000E+03 0.  0.
         25    1    4    4    0    0  0.76604260995E+02 -0.37539376963E+02  0.12806608687E+03  0.19830745909E+03  0.12509000000E+03 0.  0.
         25    1    3    3    0    0 -0.10301170174E+03  0.42149874478E+02  0.13009595745E+03  0.21203888525E+03  0.12509000000E+03 0.  0.
<mgrwt>
<rscale>  2 0.45403868E+03</rscale>
<asrwt>0</asrwt>
<pdfrwt beam="1">  1       21 0.62441160E-01 0.45403868E+03</pdfrwt>
<pdfrwt beam="2">  1       21 0.17849946E-01 0.45403868E+03</pdfrwt>
<totfact> 0.62607852E+04</totfact>
</mgrwt>
</event>
<event>
 7    0  0.4707675E-002  0.4674787E+03  0.7546771E-02  0.1022634E+00
         21   -1    0    0  502  501  0.00000000000E+00  0.00000000000E+00  0.53478139375E+03  0.53478139375E+03  0.00000000000E+00 0.  1.
         21   -1    0    0  501  502 -0.00000000000E+00 -0.00000000000E+00 -0.10216152758E+03  0.10216152758E+03  0.00000000000E+00 0.  1.
      99926    2    1    2    0    0  0.14210854715E-13  0.00000000000E+00  0.43261986618E+03  0.63694292133E+03  0.46747870157E+03 0.  0.
      99925    2    3    3    0    0  0.92465627577E+02  0.35380922285E+02  0.16673833483E+03  0.32687486629E+03  0.26314217444E+03 0.  0.
         25    1    4    4    0    0  0.65629832464E+01  0.31745907124E+02  0.71561907958E+02  0.14771421780E+03  0.12509000000E+03 0.  0.
         25    1    4    4    0    0  0.85902644331E+02  0.36350151616E+01  0.95176426871E+02  0.17916064850E+03  0.12509000000E+03 0.  0.
         25    1    3    3    0    0 -0.92465627577E+02 -0.35380922285E+02  0.26588153135E+03  0.31006805504E+03  0.12509000000E+03 0.  0.
<mgrwt>
<rscale>  2 0.46747870E+03</rscale>
<asrwt>0</asrwt>
<pdfrwt beam="1">  1       21 0.78644321E-01 0.46747870E+03</pdfrwt>
<pdfrwt beam="2">  1       21 0.15023754E-01 0.46747870E+03</pdfrwt>
<totfact> 0.51225074E+04</totfact>
</mgrwt>
</event>
<event>
 7    0  0.4707675E-002  0.4470365E+03  0.7546771E-02  0.1028609E+00
         21   -1    0    0  502  501  0.00000000000E+00  0.00000000000E+00  0.84780812882E+02  0.84780812882E+02  0.00000000000E+00 0.  1.
         21   -1    0    0  501  502 -0.00000000000E+00 -0.00000000000E+00 -0.58928918319E+03  0.58928918319E+03  0.00000000000E+00 0.  1.
      99926    2    1    2    0    0  0.35527136788E-14  0.00000000000E+00 -0.50450837031E+03  0.67406999607E+03  0.44703653530E+03 0.  0.
      99925    2    3    3    0    0  0.19864035571E+02  0.95165310071E+02 -0.25557774419E+03  0.37900223967E+03  0.26243417879E+03 0.  0.
         25    1    4    4    0    0 -0.20696608350E+02  0.24362667048E+02 -0.99704352227E+02  0.16312680680E+03  0.12509000000E+03 0.  0.
         25    1    4    4    0    0  0.40560643922E+02  0.70802643023E+02 -0.15587339196E+03  0.21587543287E+03  0.12509000000E+03 0.  0.
         25    1    3    3    0    0 -0.19864035571E+02 -0.95165310071E+02 -0.24893062612E+03  0.29506775641E+03  0.12509000000E+03 0.  0.
<mgrwt>
<rscale>  2 0.44703654E+03</rscale>
<asrwt>0</asrwt>
<pdfrwt beam="1">  1       21 0.12467767E-01 0.44703654E+03</pdfrwt>
<pdfrwt beam="2">  1       21 0.86660171E-01 0.44703654E+03</pdfrwt>
<totfact> 0.57879664E+04</totfact>
</mgrwt>
</event>
<event>
 7    0  0.4707675E-002  0.4564291E+03  0.7546771E-02  0.1025822E+00
         21   -1    0    0  502  501  0.00000000000E+00  0.00000000000E+00  0.26370052767E+03  0.26370052767E+03  0.00000000000E+00 0. -1.
         21   -1    0    0  501  502 -0.00000000000E+00 -0.00000000000E+00 -0.19750387869E+03  0.19750387869E+03  0.00000000000E+00 0. -1.
      99926    2    1    2    0    0  0.17763568394E-14  0.00000000000E+00  0.66196648979E+02  0.46120440637E+03  0.45642908334E+03 0.  0.
      99925    2    3    3    0    0 -0.14052177370E+02  0.64507637206E+02 -0.52978674083E+02  0.27624775016E+03  0.26295889530E+03 0.  0.
         25    1    4    4    0    0  0.20452749897E+02  0.61547745042E+02 -0.35256908060E+02  0.14524805528E+03  0.12509000000E+03 0.  0.
         25    1    3    3    0    0  0.14052177370E+02 -0.64507637206E+02  0.11917532306E+03  0.18495665620E+03  0.12509000000E+03 0.  0.
         25    1    4    4    0    0 -0.34504927267E+02  0.29598921633E+01 -0.17721766023E+02  0.13099969488E+03  0.12509000000E+03 0.  0.
<mgrwt>
<rscale>  2 0.45642908E+03</rscale>
<asrwt>0</asrwt>
<pdfrwt beam="1">  1       21 0.38779489E-01 0.45642908E+03</pdfrwt>
<pdfrwt beam="2">  1       21 0.29044688E-01 0.45642908E+03</pdfrwt>
<totfact> 0.67322372E+04</totfact>
</mgrwt>
</event>
<event>
 7    0  0.4707675E-002  0.4683404E+03  0.7546771E-02  0.1022390E+00
         21   -1    0    0  502  501  0.00000000000E+00  0.00000000000E+00  0.97188969641E+02  0.97188969641E+02  0.00000000000E+00 0.  1.
         21   -1    0    0  501  502 -0.00000000000E+00 -0.00000000000E+00 -0.56421712454E+03  0.56421712454E+03  0.00000000000E+00 0.  1.
      99926    2    1    2    0    0  0.17763568394E-14  0.00000000000E+00 -0.46702815490E+03  0.66140609418E+03  0.46834039325E+03 0.  0.
      99925    2    3    3    0    0  0.12889194860E+02 -0.21592741186E+02 -0.11736433027E+03  0.28919019424E+03  0.26310493079E+03 0.  0.
         25    1    4    4    0    0 -0.28979451668E+02 -0.29870456905E+02 -0.65517359199E+02  0.14721441937E+03  0.12509000000E+03 0.  0.
         25    1    3    3    0    0 -0.12889194860E+02  0.21592741186E+02 -0.34966382462E+03  0.37221589994E+03  0.12509000000E+03 0.  0.
         25    1    4    4    0    0  0.41868646529E+02  0.82777157188E+01 -0.51846971073E+02  0.14197577487E+03  0.12509000000E+03 0.  0.
<mgrwt>
<rscale>  2 0.46834039E+03</rscale>
<asrwt>0</asrwt>
<pdfrwt beam="1">  1       21 0.14292496E-01 0.46834039E+03</pdfrwt>
<pdfrwt beam="2">  1       21 0.82973105E-01 0.46834039E+03</pdfrwt>
<totfact> 0.49618760E+04</totfact>
</mgrwt>
</event>
<event>
 7    0  0.4707675E-002  0.4520822E+03  0.7546771E-02  0.1027103E+00
         21   -1    0    0  502  501  0.00000000000E+00  0.00000000000E+00  0.38455599381E+03  0.38455599381E+03  0.00000000000E+00 0. -1.
         21   -1    0    0  501  502 -0.00000000000E+00 -0.00000000000E+00 -0.13286645032E+03  0.13286645032E+03  0.00000000000E+00 0. -1.
      99926    2    1    2    0    0  0.35527136788E-14 -0.14210854715E-13  0.25168954350E+03  0.51742244413E+03  0.45208224847E+03 0.  0.
      99925    2    3    3    0    0 -0.15565691055E+02  0.10937393427E+03  0.15388961215E+03  0.32398696934E+03  0.26283187656E+03 0.  0.
         25    1    4    4    0    0  0.20220466341E+02  0.28007011335E+02  0.89094784988E+02  0.15741235261E+03  0.12509000000E+03 0.  0.
         25    1    3    3    0    0  0.15565691055E+02 -0.10937393427E+03  0.97799931347E+02  0.19343547479E+03  0.12509000000E+03 0.  0.
         25    1    4    4    0    0 -0.35786157396E+02  0.81366922939E+02  0.64794827162E+02  0.16657461672E+03  0.12509000000E+03 0.  0.
<mgrwt>
<rscale>  2 0.45208225E+03</rscale>
<asrwt>0</asrwt>
<pdfrwt beam="1">  1       21 0.56552352E-01 0.45208225E+03</pdfrwt>
<pdfrwt beam="2">  1       21 0.19539184E-01 0.45208225E+03</pdfrwt>
<totfact> 0.65567987E+04</totfact>
</mgrwt>
</event>
<event>
 7    0  0.4707675E-002  0.4482967E+03  0.7546771E-02  0.1028231E+00
         21   -1    0    0  502  501  0.00000000000E+00  0.00000000000E+00  0.26473111348E+03  0.26473111348E+03  0.00000000000E+00 0. -1.
         21   -1    0    0  501  502 -0.00000000000E+00 -0.00000000000E+00 -0.18978685796E+03  0.18978685796E+03  0.00000000000E+00 0. -1.
      99926    2    1    2    0    0  0.00000000000E+00  0.00000000000E+00  0.74944255524E+02  0.45451797144E+03  0.44829671527E+03 0.  0.
      99925    2    3    3    0    0  0.89433943543E+02  0.27212315660E+02 -0.45823693161E+01  0.27927262189E+03  0.26312213675E+03 0.  0.
         25    1    4    4    0    0  0.18660395666E+02  0.44920393164E+02  0.32097577069E+01  0.13425298035E+03  0.12509000000E+03 0.  0.
         25    1    3    3    0    0 -0.89433943543E+02 -0.27212315660E+02  0.79526624840E+02  0.17524534955E+03  0.12509000000E+03 0.  0.
         25    1    4    4    0    0  0.70773547877E+02 -0.17708077504E+02 -0.77921270230E+01  0.14501964154E+03  0.12509000000E+03 0.  0.
<mgrwt>
<rscale>  2 0.44829672E+03</rscale>
<asrwt>0</asrwt>
<pdfrwt beam="1">  1       21 0.38931046E-01 0.44829672E+03</pdfrwt>
<pdfrwt beam="2">  1       21 0.27909832E-01 0.44829672E+03</pdfrwt>
<totfact> 0.72373915E+04</totfact>
</mgrwt>
</event>
<event>
 7    0  0.4707675E-002  0.4538323E+03  0.7546771E-02  0.1026585E+00
         21   -1    0    0  502  501  0.00000000000E+00  0.00000000000E+00  0.13406546261E+04  0.13406546261E+04  0.00000000000E+00 0.  1.
         21   -1    0    0  501  502 -0.00000000000E+00 -0.00000000000E+00 -0.38407303736E+02  0.38407303736E+02  0.00000000000E+00 0.  1.
      99926    2    1    2    0    0  0.00000000000E+00  0.35527136788E-14  0.13022473224E+04  0.13790619299E+04  0.45383225726E+03 0.  0.
      99925    2    3    3    0    0  0.90533748793E+02  0.28198746362E+02  0.64068284543E+03  0.69913061403E+03  0.26328231632E+03 0.  0.
         25    1    3    3    0    0 -0.90533748793E+02 -0.28198746362E+02  0.66156447698E+03  0.67993131585E+03  0.12509000000E+03 0.  0.
         25    1    4    4    0    0  0.86277070080E+02  0.64261732924E+01  0.32430540698E+03  0.35819901399E+03  0.12509000000E+03 0.  0.
         25    1    4    4    0    0  0.42566787126E+01  0.21772573070E+02  0.31637743844E+03  0.34093160004E+03  0.12509000000E+03 0.  0.
<mgrwt>
<rscale>  2 0.45383226E+03</rscale>
<asrwt>0</asrwt>
<pdfrwt beam="1">  1       21 0.19715506E+00 0.45383226E+03</pdfrwt>
<pdfrwt beam="2">  1       21 0.56481338E-02 0.45383226E+03</pdfrwt>
<totfact> 0.27140844E+04</totfact>
</mgrwt>
</event>
<event>
 7    0  0.4707675E-002  0.4442041E+03  0.7546771E-02  0.1029465E+00
         21   -1    0    0  502  501  0.00000000000E+00  0.00000000000E+00  0.50553279382E+02  0.50553279382E+02  0.00000000000E+00 0. -1.
         21   -1    0    0  501  502 -0.00000000000E+00 -0.00000000000E+00 -0.97578853785E+03  0.97578853785E+03  0.00000000000E+00 0. -1.
      99926    2    1    2    0    0  0.71054273576E-14  0.35527136788E-14 -0.92523525847E+03  0.10263418172E+04  0.44420405478E+03 0.  0.
      99925    2    3    3    0    0 -0.57125431430E+02 -0.25413417954E+02 -0.39976958566E+03  0.48258558680E+03  0.26299043755E+03 0.  0.
         25    1    4    4    0    0  0.76333388657E+00  0.20419639159E+01 -0.23324503432E+03  0.26468000761E+03  0.12509000000E+03 0.  0.
         25    1    3    3    0    0  0.57125431430E+02  0.25413417954E+02 -0.52546567281E+03  0.54375623043E+03  0.12509000000E+03 0.  0.
         25    1    4    4    0    0 -0.57888765316E+02 -0.27455381870E+02 -0.16652455134E+03  0.21790557919E+03  0.12509000000E+03 0.  0.
<mgrwt>
<rscale>  2 0.44420405E+03</rscale>
<asrwt>0</asrwt>
<pdfrwt beam="1">  1       21 0.74343054E-02 0.44420405E+03</pdfrwt>
<pdfrwt beam="2">  1       21 0.14349832E+00 0.44420405E+03</pdfrwt>
<totfact> 0.41550857E+04</totfact>
</mgrwt>
</event>
<event>
 7    0  0.4707675E-002  0.4540186E+03  0.7546771E-02  0.1026530E+00
         21   -1    0    0  502  501  0.00000000000E+00  0.00000000000E+00  0.81525824259E+02  0.81525824259E+02  0.00000000000E+00 0. -1.
         21   -1    0    0  501  502 -0.00000000000E+00 -0.00000000000E+00 -0.63210905275E+03  0.63210905275E+03  0.00000000000E+00 0. -1.
      99926    2    1    2    0    0 -0.14210854715E-13  0.00000000000E+00 -0.55058322849E+03  0.71363487701E+03  0.45401855269E+03 0.  0.
      99925    2    3    3    0    0  0.95702787675E+02 -0.35047129389E+02 -0.41977586442E+03  0.50592017016E+03  0.26335549620E+03 0.  0.
         25    1    4    4    0    0  0.87050686481E+02 -0.22013961360E+02 -0.26283086274E+03  0.30461452201E+03  0.12509000000E+03 0.  0.
         25    1    4    4    0    0  0.86521011942E+01 -0.13033168029E+02 -0.15694500168E+03  0.20130564815E+03  0.12509000000E+03 0.  0.
         25    1    3    3    0    0 -0.95702787675E+02  0.35047129389E+02 -0.13080736407E+03  0.20771470685E+03  0.12509000000E+03 0.  0.
<mgrwt>
<rscale>  2 0.45401855E+03</rscale>
<asrwt>0</asrwt>
<pdfrwt beam="1">  1       21 0.11989092E-01 0.45401855E+03</pdfrwt>
<pdfrwt beam="2">  1       21 0.92957214E-01 0.45401855E+03</pdfrwt>
<totfact> 0.52573683E+04</totfact>
</mgrwt>
</event>
<event>
 7    0  0.4707675E-002  0.4487895E+03  0.7546771E-02  0.1028084E+00
         21   -1    0    0  502  501  0.00000000000E+00  0.00000000000E+00  0.14067609297E+04  0.14067609297E+04  0.00000000000E+00 0.  1.
         21   -1    0    0  501  502 -0.00000000000E+00 -0.00000000000E+00 -0.35793568271E+02  0.35793568271E+02  0.00000000000E+00 0.  1.
      99926    2    1    2    0    0  0.00000000000E+00  0.00000000000E+00  0.13709673614E+04  0.14425544979E+04  0.44878945343E+03 0.  0.
      99925    2    3    3    0    0  0.69706256935E+02  0.46857480531E+02  0.66467115975E+03  0.72036586725E+03  0.26473504935E+03 0.  0.
         25    1    3    3    0    0 -0.69706256935E+02 -0.46857480531E+02  0.70629620164E+03  0.72218863068E+03  0.12509000000E+03 0.  0.
         25    1    4    4    0    0  0.57914363666E+02  0.37019088690E+02  0.26099037817E+03  0.29746927916E+03  0.12509000000E+03 0.  0.
         25    1    4    4    0    0  0.11791893269E+02  0.98383918414E+01  0.40368078158E+03  0.42289658809E+03  0.12509000000E+03 0.  0.
<mgrwt>
<rscale>  2 0.44878945E+03</rscale>
<asrwt>0</asrwt>
<pdfrwt beam="1">  1       21 0.20687657E+00 0.44878945E+03</pdfrwt>
<pdfrwt beam="2">  1       21 0.52637610E-02 0.44878945E+03</pdfrwt>
<totfact> 0.26474419E+04</totfact>
</mgrwt>
</event>
<event>
 7    0  0.4707675E-002  0.4593989E+03  0.7546771E-02  0.1024956E+00
         21   -1    0    0  502  501  0.00000000000E+00  0.00000000000E+00  0.37455116197E+02  0.37455116197E+02  0.00000000000E+00 0. -1.
         21   -1    0    0  501  502 -0.00000000000E+00 -0.00000000000E+00 -0.14086680847E+04  0.14086680847E+04  0.00000000000E+00 0. -1.
      99926    2    1    2    0    0  0.00000000000E+00  0.00000000000E+00 -0.13712129685E+04  0.14461232009E+04  0.45939885413E+03 0.  0.
      99925    2    3    3    0    0  0.69574270289E+02 -0.89293124738E+02 -0.95511470696E+03  0.99712530272E+03  0.26306068625E+03 0.  0.
         25    1    4    4    0    0  0.19902177656E+02 -0.34562559729E+02 -0.58412773831E+03  0.59870141972E+03  0.12509000000E+03 0.  0.
         25    1    4    4    0    0  0.49672092633E+02 -0.54730565008E+02 -0.37098696866E+03  0.39842388300E+03  0.12509000000E+03 0.  0.
         25    1    3    3    0    0 -0.69574270289E+02  0.89293124738E+02 -0.41609826150E+03  0.44899789814E+03  0.12509000000E+03 0.  0.
<mgrwt>
<rscale>  2 0.45939885E+03</rscale>
<asrwt>0</asrwt>
<pdfrwt beam="1">  1       21 0.55081054E-02 0.45939885E+03</pdfrwt>
<pdfrwt beam="2">  1       21 0.20715707E+00 0.45939885E+03</pdfrwt>
<totfact> 0.24287645E+04</totfact>
</mgrwt>
</event>
<event>
 7    0  0.4707675E-002  0.4719389E+03  0.7546771E-02  0.1021374E+00
         21   -1    0    0  502  501  0.00000000000E+00  0.00000000000E+00  0.27787314635E+02  0.27787314635E+02  0.00000000000E+00 0. -1.
         21   -1    0    0  501  502 -0.00000000000E+00 -0.00000000000E+00 -0.20038487718E+04  0.20038487718E+04  0.00000000000E+00 0. -1.
      99926    2    1    2    0    0 -0.35527136788E-14  0.00000000000E+00 -0.19760614572E+04  0.20316360864E+04  0.47193887868E+03 0.  0.
      99925    2    3    3    0    0 -0.48311321982E+01 -0.69262383676E+02 -0.75985042005E+03  0.80703924970E+03  0.26290506287E+03 0.  0.
         25    1    3    3    0    0  0.48311321982E+01  0.69262383676E+02 -0.12162110371E+04  0.12245968367E+04  0.12509000000E+03 0.  0.
         25    1    4    4    0    0  0.26107387424E+02 -0.25599352571E+02 -0.45308996441E+03  0.47146044000E+03  0.12509000000E+03 0.  0.
         25    1    4    4    0    0 -0.30938519622E+02 -0.43663031105E+02 -0.30676045564E+03  0.33557880971E+03  0.12509000000E+03 0.  0.
<mgrwt>
<rscale>  2 0.47193888E+03</rscale>
<asrwt>0</asrwt>
<pdfrwt beam="1">  1       21 0.40863666E-02 0.47193888E+03</pdfrwt>
<pdfrwt beam="2">  1       21 0.29468387E+00 0.47193888E+03</pdfrwt>
<totfact> 0.11598401E+04</totfact>
</mgrwt>
</event>
<event>
 7    0  0.4707675E-002  0.4390447E+03  0.7546771E-02  0.1031040E+00
         21   -1    0    0  502  501  0.00000000000E+00  0.00000000000E+00  0.67269495460E+03  0.67269495460E+03  0.00000000000E+00 0.  1.
         21   -1    0    0  501  502 -0.00000000000E+00 -0.00000000000E+00 -0.71637328203E+02  0.71637328203E+02  0.00000000000E+00 0.  1.
      99926    2    1    2    0    0  0.71054273576E-14  0.00000000000E+00  0.60105762640E+03  0.74433228280E+03  0.43904473231E+03 0.  0.
      99925    2    3    3    0    0 -0.53789253872E+02  0.19274809121E+02  0.25003916576E+03  0.36733590363E+03  0.26296630884E+03 0.  0.
         25    1    4    4    0    0 -0.37308655895E+02  0.39861409831E+02  0.16340109919E+03  0.21290442719E+03  0.12509000000E+03 0.  0.
         25    1    3    3    0    0  0.53789253872E+02 -0.19274809121E+02  0.35101846064E+03  0.37699637917E+03  0.12509000000E+03 0.  0.
         25    1    4    4    0    0 -0.16480597977E+02 -0.20586600711E+02  0.86638066563E+02  0.15443147644E+03  0.12509000000E+03 0.  0.
<mgrwt>
<rscale>  2 0.43904473E+03</rscale>
<asrwt>0</asrwt>
<pdfrwt beam="1">  1       21 0.98925725E-01 0.43904473E+03</pdfrwt>
<pdfrwt beam="2">  1       21 0.10534902E-01 0.43904473E+03</pdfrwt>
<totfact> 0.57432332E+04</totfact>
</mgrwt>
</event>
<event>
 7    0  0.4707675E-002  0.4525700E+03  0.7546771E-02  0.1026958E+00
         21   -1    0    0  502  501  0.00000000000E+00  0.00000000000E+00  0.18845122441E+04  0.18845122441E+04  0.00000000000E+00 0. -1.
         21   -1    0    0  501  502 -0.00000000000E+00 -0.00000000000E+00 -0.27171432133E+02  0.27171432133E+02  0.00000000000E+00 0. -1.
      99926    2    1    2    0    0 -0.71054273576E-14 -0.44408920985E-14  0.18573408120E+04  0.19116836763E+04  0.45256997932E+03 0.  0.
      99925    2    3    3    0    0  0.45205191381E+02  0.79191677625E+01  0.74491515808E+03  0.79130670125E+03  0.26298570334E+03 0.  0.
         25    1    4    4    0    0  0.14637566674E+01 -0.27180659005E+02  0.40643695577E+03  0.42612138872E+03  0.12509000000E+03 0.  0.
         25    1    4    4    0    0  0.43741434713E+02  0.35099826768E+02  0.33847820231E+03  0.36518531253E+03  0.12509000000E+03 0.  0.
         25    1    3    3    0    0 -0.45205191381E+02 -0.79191677625E+01  0.11124256539E+04  0.11203769750E+04  0.12509000000E+03 0.  0.
<mgrwt>
<rscale>  2 0.45256998E+03</rscale>
<asrwt>0</asrwt>
<pdfrwt beam="1">  1       21 0.27713406E+00 0.45256998E+03</pdfrwt>
<pdfrwt beam="2">  1       21 0.39958001E-02 0.45256998E+03</pdfrwt>
<totfact> 0.15495880E+04</totfact>
</mgrwt>
</event>
<event>
 7    0  0.4707675E-002  0.4567131E+03  0.7546771E-02  0.1025739E+00
         21   -1    0    0  502  501  0.00000000000E+00  0.00000000000E+00  0.25980127801E+03  0.25980127801E+03  0.00000000000E+00 0. -1.
         21   -1    0    0  501  502 -0.00000000000E+00 -0.00000000000E+00 -0.20071765985E+03  0.20071765985E+03  0.00000000000E+00 0. -1.
      99926    2    1    2    0    0 -0.71054273576E-14  0.35527136788E-14  0.59083618162E+02  0.46051893787E+03  0.45671305893E+03 0.  0.
      99925    2    3    3    0    0  0.40963467335E+02 -0.19458624221E+02  0.14336886919E+03  0.30301288924E+03  0.26306944840E+03 0.  0.
         25    1    3    3    0    0 -0.40963467335E+02  0.19458624221E+02 -0.84285251028E+02  0.15750604863E+03  0.12509000000E+03 0.  0.
         25    1    4    4    0    0  0.17630027515E+02 -0.35044198776E+02  0.10845853480E+03  0.17014604200E+03  0.12509000000E+03 0.  0.
         25    1    4    4    0    0  0.23333439820E+02  0.15585574555E+02  0.34910334387E+02  0.13286684724E+03  0.12509000000E+03 0.  0.
<mgrwt>
<rscale>  2 0.45671306E+03</rscale>
<asrwt>0</asrwt>
<pdfrwt beam="1">  1       21 0.38206071E-01 0.45671306E+03</pdfrwt>
<pdfrwt beam="2">  1       21 0.29517303E-01 0.45671306E+03</pdfrwt>
<totfact> 0.67219730E+04</totfact>
</mgrwt>
</event>
<event>
 7    0  0.4707675E-002  0.4541704E+03  0.7546771E-02  0.1026486E+00
         21   -1    0    0  502  501  0.00000000000E+00  0.00000000000E+00  0.23007454593E+02  0.23007454593E+02  0.00000000000E+00 0. -1.
         21   -1    0    0  501  502 -0.00000000000E+00 -0.00000000000E+00 -0.22413470945E+04  0.22413470945E+04  0.00000000000E+00 0. -1.
      99926    2    1    2    0    0  0.14210854715E-13 -0.88817841970E-15 -0.22183396399E+04  0.22643545490E+04  0.45417041517E+03 0.  0.
      99925    2    3    3    0    0  0.11160486967E+03  0.63825996953E+01 -0.14540281096E+04  0.14818483139E+04  0.26302147756E+03 0.  0.
         25    1    3    3    0    0 -0.11160486967E+03 -0.63825996953E+01 -0.76431153030E+03  0.78250623510E+03  0.12509000000E+03 0.  0.
         25    1    4    4    0    0  0.92771455220E+02 -0.70397142592E+01 -0.69848475989E+03  0.71567071225E+03  0.12509000000E+03 0.  0.
         25    1    4    4    0    0  0.18833414449E+02  0.13422313954E+02 -0.75554334967E+03  0.76617760170E+03  0.12509000000E+03 0.  0.
<mgrwt>
<rscale>  2 0.45417042E+03</rscale>
<asrwt>0</asrwt>
<pdfrwt beam="1">  1       21 0.33834471E-02 0.45417042E+03</pdfrwt>
<pdfrwt beam="2">  1       21 0.32961008E+00 0.45417042E+03</pdfrwt>
<totfact> 0.99176049E+03</totfact>
</mgrwt>
</event>
<event>
 6    0  0.4707675E-002  0.4852945E+03  0.7546771E-02  0.1017690E+00
         21   -1    0    0  502  501  0.00000000000E+00  0.00000000000E+00  0.25309395450E+03  0.25309395450E+03  0.00000000000E+00 0. -1.
         21   -1    0    0  501  502 -0.00000000000E+00 -0.00000000000E+00 -0.23263176517E+03  0.23263176517E+03  0.00000000000E+00 0. -1.
      99926    2    1    2    0    0  0.00000000000E+00  0.35527136788E-14  0.20462189329E+02  0.48572571966E+03  0.48529452248E+03 0.  0.
         25    1    3    3    0    0 -0.95980747801E+02 -0.16138076282E+02  0.10599673397E+03  0.19067133284E+03  0.12509000000E+03 0.  0.
         25    1    3    3    0    0  0.44287007876E+02  0.37435354742E+02 -0.76648920643E+02  0.15775078443E+03  0.12509000000E+03 0.  0.
         25    1    3    3    0    0  0.51693739926E+02 -0.21297278459E+02 -0.88856240025E+01  0.13730360240E+03  0.12509000000E+03 0.  0.
<mgrwt>
<rscale>  2 0.48529452E+03</rscale>
<asrwt>0</asrwt>
<pdfrwt beam="1">  1       21 0.37219699E-01 0.48529452E+03</pdfrwt>
<pdfrwt beam="2">  1       21 0.34210554E-01 0.48529452E+03</pdfrwt>
<totfact> 0.52473366E+04</totfact>
</mgrwt>
</event>
<event>
 7    0  0.4707675E-002  0.4603747E+03  0.7546771E-02  0.1024673E+00
         21   -1    0    0  502  501  0.00000000000E+00  0.00000000000E+00  0.24055452034E+03  0.24055452034E+03  0.00000000000E+00 0. -1.
         21   -1    0    0  501  502 -0.00000000000E+00 -0.00000000000E+00 -0.22026696761E+03  0.22026696761E+03  0.00000000000E+00 0. -1.
      99926    2    1    2    0    0  0.00000000000E+00 -0.14210854715E-13  0.20287552733E+02  0.46082148795E+03  0.46037469409E+03 0.  0.
      99925    2    3    3    0    0  0.51289104363E+01  0.64450421063E+02  0.11171485576E+03  0.29293276785E+03  0.26296242124E+03 0.  0.
         25    1    4    4    0    0 -0.14711983630E+02  0.33504802735E+02  0.16253945139E+02  0.13134197007E+03  0.12509000000E+03 0.  0.
         25    1    4    4    0    0  0.19840894067E+02  0.30945618328E+02  0.95460910620E+02  0.16159079778E+03  0.12509000000E+03 0.  0.
         25    1    3    3    0    0 -0.51289104363E+01 -0.64450421063E+02 -0.91427303026E+02  0.16788872010E+03  0.12509000000E+03 0.  0.
<mgrwt>
<rscale>  2 0.46037469E+03</rscale>
<asrwt>0</asrwt>
<pdfrwt beam="1">  1       21 0.35375665E-01 0.46037469E+03</pdfrwt>
<pdfrwt beam="2">  1       21 0.32392201E-01 0.46037469E+03</pdfrwt>
<totfact> 0.65276853E+04</totfact>
</mgrwt>
</event>
<event>
 7    0  0.4707675E-002  0.4574454E+03  0.7546771E-02  0.1025525E+00
         21   -1    0    0  502  501  0.00000000000E+00  0.00000000000E+00  0.26194879722E+03  0.26194879722E+03  0.00000000000E+00 0. -1.
         21   -1    0    0  501  502 -0.00000000000E+00 -0.00000000000E+00 -0.19971106458E+03  0.19971106458E+03  0.00000000000E+00 0. -1.
      99926    2    1    2    0    0  0.35527136788E-14  0.00000000000E+00  0.62237732647E+02  0.46165986180E+03  0.45744539852E+03 0.  0.
      99925    2    3    3    0    0  0.27191971403E+02  0.11217368914E+03  0.41272037302E+02  0.29016814677E+03  0.26300538491E+03 0.  0.
         25    1    4    4    0    0 -0.98071835861E+01  0.39896896678E+02  0.49860585963E+02  0.14078895321E+03  0.12509000000E+03 0.  0.
         25    1    3    3    0    0 -0.27191971403E+02 -0.11217368914E+03  0.20965695345E+02  0.17149171503E+03  0.12509000000E+03 0.  0.
         25    1    4    4    0    0  0.36999154989E+02  0.72276792460E+02 -0.85885486614E+01  0.14937919355E+03  0.12509000000E+03 0.  0.
<mgrwt>
<rscale>  2 0.45744540E+03</rscale>
<asrwt>0</asrwt>
<pdfrwt beam="1">  1       21 0.38521882E-01 0.45744540E+03</pdfrwt>
<pdfrwt beam="2">  1       21 0.29369274E-01 0.45744540E+03</pdfrwt>
<totfact> 0.66748543E+04</totfact>
</mgrwt>
</event>
<event>
 7    0  0.4707675E-002  0.4640757E+03  0.7546771E-02  0.1023606E+00
         21   -1    0    0  502  501  0.00000000000E+00  0.00000000000E+00  0.15479379566E+03  0.15479379566E+03  0.00000000000E+00 0. -1.
         21   -1    0    0  501  502 -0.00000000000E+00 -0.00000000000E+00 -0.34782767913E+03  0.34782767913E+03  0.00000000000E+00 0. -1.
      99926    2    1    2    0    0 -0.66613381478E-15  0.00000000000E+00 -0.19303388347E+03  0.50262147479E+03  0.46407571230E+03 0.  0.
      99925    2    3    3    0    0 -0.13219017014E+01  0.24916240980E+02  0.82686410411E+01  0.26430911472E+03  0.26299880458E+03 0.  0.
         25    1    3    3    0    0  0.13219017014E+01 -0.24916240980E+02 -0.20130252451E+03  0.23831236007E+03  0.12509000000E+03 0.  0.
         25    1    4    4    0    0 -0.54545295794E+01 -0.10473794731E+01  0.42071263794E+02  0.13209219596E+03  0.12509000000E+03 0.  0.
         25    1    4    4    0    0  0.41326278780E+01  0.25963620453E+02 -0.33802622752E+02  0.13221691876E+03  0.12509000000E+03 0.  0.
<mgrwt>
<rscale>  2 0.46407571E+03</rscale>
<asrwt>0</asrwt>
<pdfrwt beam="1">  1       21 0.22763794E-01 0.46407571E+03</pdfrwt>
<pdfrwt beam="2">  1       21 0.51151129E-01 0.46407571E+03</pdfrwt>
<totfact> 0.60601690E+04</totfact>
</mgrwt>
</event>
<event>
 7    0  0.4707675E-002  0.4548246E+03  0.7546771E-02  0.1026293E+00
         21   -1    0    0  502  501  0.00000000000E+00  0.00000000000E+00  0.19332679066E+04  0.19332679066E+04  0.00000000000E+00 0.  1.
         21   -1    0    0  501  502 -0.00000000000E+00 -0.00000000000E+00 -0.26750742664E+02  0.26750742664E+02  0.00000000000E+00 0.  1.
      99926    2    1    2    0    0  0.00000000000E+00  0.00000000000E+00  0.19065171639E+04  0.19600186492E+04  0.45482459155E+03 0.  0.
      99925    2    3    3    0    0  0.30399929440E+02  0.10651900283E+03  0.11026229618E+04  0.11389438353E+04  0.26295476907E+03 0.  0.
         25    1    4    4    0    0 -0.19247879646E+02  0.74608259803E+02  0.58331280067E+03  0.60152988690E+03  0.12509000000E+03 0.  0.
         25    1    4    4    0    0  0.49647809087E+02  0.31910743026E+02  0.51931016109E+03  0.53741394844E+03  0.12509000000E+03 0.  0.
         25    1    3    3    0    0 -0.30399929440E+02 -0.10651900283E+03  0.80389420213E+03  0.82107481389E+03  0.12509000000E+03 0.  0.
<mgrwt>
<rscale>  2 0.45482459E+03</rscale>
<asrwt>0</asrwt>
<pdfrwt beam="1">  1       21 0.28430401E+00 0.45482459E+03</pdfrwt>
<pdfrwt beam="2">  1       21 0.39339341E-02 0.45482459E+03</pdfrwt>
<totfact> 0.14393398E+04</totfact>
</mgrwt>
</event>
<event>
 7    0  0.4707675E-002  0.4771080E+03  0.7546771E-02  0.1019933E+00
         21   -1    0    0  502  501  0.00000000000E+00  0.00000000000E+00  0.52867874223E+02  0.52867874223E+02  0.00000000000E+00 0.  1.
         21   -1    0    0  501  502 -0.00000000000E+00 -0.00000000000E+00 -0.10764194869E+04  0.10764194869E+04  0.00000000000E+00 0.  1.
      99926    2    1    2    0    0 -0.71054273576E-14  0.00000000000E+00 -0.10235516126E+04  0.11292873611E+04  0.47710799634E+03 0.  0.
      99925    2    3    3    0    0  0.52574385286E+02 -0.96805946056E+02 -0.80563035422E+03  0.85492876335E+03  0.26405958718E+03 0.  0.
         25    1    3    3    0    0 -0.52574385286E+02  0.96805946056E+02 -0.21792125842E+03  0.27435859773E+03  0.12509000000E+03 0.  0.
         25    1    4    4    0    0  0.57671487223E+01 -0.10082372244E+02 -0.39520914643E+03  0.41469590275E+03  0.12509000000E+03 0.  0.
         25    1    4    4    0    0  0.46807236564E+02 -0.86723573812E+02 -0.41042120779E+03  0.44023286060E+03  0.12509000000E+03 0.  0.
<mgrwt>
<rscale>  2 0.47710800E+03</rscale>
<asrwt>0</asrwt>
<pdfrwt beam="1">  1       21 0.77746886E-02 0.47710800E+03</pdfrwt>
<pdfrwt beam="2">  1       21 0.15829696E+00 0.47710800E+03</pdfrwt>
<totfact> 0.29128208E+04</totfact>
</mgrwt>
</event>
<event>
 7    0  0.4707675E-002  0.4540006E+03  0.7546771E-02  0.1026536E+00
         21   -1    0    0  502  501  0.00000000000E+00  0.00000000000E+00  0.85032240274E+02  0.85032240274E+02  0.00000000000E+00 0.  1.
         21   -1    0    0  501  502 -0.00000000000E+00 -0.00000000000E+00 -0.60599525806E+03  0.60599525806E+03  0.00000000000E+00 0.  1.
      99926    2    1    2    0    0 -0.35527136788E-14  0.00000000000E+00 -0.52096301778E+03  0.69102749833E+03  0.45400059202E+03 0.  0.
      99925    2    3    3    0    0  0.21468060652E+02  0.52251270403E+01 -0.16043614198E+03  0.30877716693E+03  0.26289808592E+03 0.  0.
         25    1    3    3    0    0 -0.21468060652E+02 -0.52251270403E+01 -0.36052687581E+03  0.38225033141E+03  0.12509000000E+03 0.  0.
         25    1    4    4    0    0  0.44722035059E+02  0.47874156481E+00 -0.10748998507E+03  0.17088561848E+03  0.12509000000E+03 0.  0.
         25    1    4    4    0    0 -0.23253974407E+02  0.47463854755E+01 -0.52946156902E+02  0.13789154844E+03  0.12509000000E+03 0.  0.
<mgrwt>
<rscale>  2 0.45400059E+03</rscale>
<asrwt>0</asrwt>
<pdfrwt beam="1">  1       21 0.12504741E-01 0.45400059E+03</pdfrwt>
<pdfrwt beam="2">  1       21 0.89116951E-01 0.45400059E+03</pdfrwt>
<totfact> 0.53815021E+04</totfact>
</mgrwt>
</event>
<event>
 7    0  0.4707675E-002  0.4536351E+03  0.7546771E-02  0.1026644E+00
         21   -1    0    0  502  501  0.00000000000E+00  0.00000000000E+00  0.71381741992E+03  0.71381741992E+03  0.00000000000E+00 0.  1.
         21   -1    0    0  501  502 -0.00000000000E+00 -0.00000000000E+00 -0.72071946541E+02  0.72071946541E+02  0.00000000000E+00 0.  1.
      99926    2    1    2    0    0  0.00000000000E+00  0.17763568394E-14  0.64174547338E+03  0.78588936646E+03  0.45363514382E+03 0.  0.
      99925    2    3    3    0    0  0.53489724102E+02  0.57862078377E+01  0.23443224213E+03  0.35641735662E+03  0.26302133975E+03 0.  0.
         25    1    4    4    0    0  0.27725455293E+02  0.32910704942E+02  0.81685125647E+02  0.15547277325E+03  0.12509000000E+03 0.  0.
         25    1    4    4    0    0  0.25764268809E+02 -0.27124497104E+02  0.15274711648E+03  0.20094458336E+03  0.12509000000E+03 0.  0.
         25    1    3    3    0    0 -0.53489724102E+02 -0.57862078377E+01  0.40731323125E+03  0.42947200984E+03  0.12509000000E+03 0.  0.
<mgrwt>
<rscale>  2 0.45363514E+03</rscale>
<asrwt>0</asrwt>
<pdfrwt beam="1">  1       21 0.10497315E+00 0.45363514E+03</pdfrwt>
<pdfrwt beam="2">  1       21 0.10598816E-01 0.45363514E+03</pdfrwt>
<totfact> 0.48977493E+04</totfact>
</mgrwt>
</event>
<event>
 7    0  0.4707675E-002  0.4477016E+03  0.7546771E-02  0.1028410E+00
         21   -1    0    0  502  501  0.00000000000E+00  0.00000000000E+00  0.76914140250E+02  0.76914140250E+02  0.00000000000E+00 0. -1.
         21   -1    0    0  501  502 -0.00000000000E+00 -0.00000000000E+00 -0.65149492263E+03  0.65149492263E+03  0.00000000000E+00 0. -1.
      99926    2    1    2    0    0  0.00000000000E+00  0.00000000000E+00 -0.57458078238E+03  0.72840906288E+03  0.44770156065E+03 0.  0.
      99925    2    3    3    0    0  0.72482409654E+02 -0.65481561559E+02 -0.29638127734E+03  0.40812168049E+03  0.26302074047E+03 0.  0.
         25    1    4    4    0    0  0.57073428091E+02 -0.80137144972E+01 -0.11208367318E+03  0.17757210847E+03  0.12509000000E+03 0.  0.
         25    1    3    3    0    0 -0.72482409654E+02  0.65481561559E+02 -0.27819950504E+03  0.32028738239E+03  0.12509000000E+03 0.  0.
         25    1    4    4    0    0  0.15408981563E+02 -0.57467847062E+02 -0.18429760416E+03  0.23054957202E+03  0.12509000000E+03 0.  0.
<mgrwt>
<rscale>  2 0.44770156E+03</rscale>
<asrwt>0</asrwt>
<pdfrwt beam="1">  1       21 0.11310903E-01 0.44770156E+03</pdfrwt>
<pdfrwt beam="2">  1       21 0.95808078E-01 0.44770156E+03</pdfrwt>
<totfact> 0.54445737E+04</totfact>
</mgrwt>
</event>
<event>
 7    0  0.4707675E-002  0.4506017E+03  0.7546771E-02  0.1027543E+00
         21   -1    0    0  502  501  0.00000000000E+00  0.00000000000E+00  0.53789963555E+02  0.53789963555E+02  0.00000000000E+00 0.  1.
         21   -1    0    0  501  502 -0.00000000000E+00 -0.00000000000E+00 -0.94367935657E+03  0.94367935657E+03  0.00000000000E+00 0.  1.
      99926    2    1    2    0    0  0.00000000000E+00  0.00000000000E+00 -0.88988939302E+03  0.99746932013E+03  0.45060172302E+03 0.  0.
      99925    2    3    3    0    0  0.67846581428E+02  0.84221917227E+02 -0.59192609648E+03  0.65669648650E+03  0.26301574428E+03 0.  0.
         25    1    3    3    0    0 -0.67846581428E+02 -0.84221917227E+02 -0.29796329654E+03  0.34077283363E+03  0.12509000000E+03 0.  0.
         25    1    4    4    0    0  0.48082454913E+02  0.55203796132E+01 -0.30992852709E+03  0.33770637700E+03  0.12509000000E+03 0.  0.
         25    1    4    4    0    0  0.19764126515E+02  0.78701537614E+02 -0.28199756938E+03  0.31899010950E+03  0.12509000000E+03 0.  0.
<mgrwt>
<rscale>  2 0.45060172E+03</rscale>
<asrwt>0</asrwt>
<pdfrwt beam="1">  1       21 0.79102895E-02 0.45060172E+03</pdfrwt>
<pdfrwt beam="2">  1       21 0.13877636E+00 0.45060172E+03</pdfrwt>
<totfact> 0.40643658E+04</totfact>
</mgrwt>
</event>
<event>
 7    0  0.4707675E-002  0.4551031E+03  0.7546771E-02  0.1026211E+00
         21   -1    0    0  502  501  0.00000000000E+00  0.00000000000E+00  0.15607779454E+04  0.15607779454E+04  0.00000000000E+00 0. -1.
         21   -1    0    0  501  502 -0.00000000000E+00 -0.00000000000E+00 -0.33175571479E+02  0.33175571479E+02  0.00000000000E+00 0. -1.
      99926    2    1    2    0    0  0.00000000000E+00  0.00000000000E+00  0.15276023739E+04  0.15939535168E+04  0.45510306652E+03 0.  0.
      99925    2    3    3    0    0  0.61563551837E+02 -0.23802139358E+02  0.12835178045E+04  0.13118517659E+04  0.26302184050E+03 0.  0.
         25    1    4    4    0    0 -0.95537699451E+00 -0.73145805588E+01  0.73164125365E+03  0.74229431358E+03  0.12509000000E+03 0.  0.
         25    1    4    4    0    0  0.62518928832E+02 -0.16487558799E+02  0.55187655080E+03  0.56955745231E+03  0.12509000000E+03 0.  0.
         25    1    3    3    0    0 -0.61563551837E+02  0.23802139358E+02  0.24408456942E+03  0.28210175094E+03  0.12509000000E+03 0.  0.
<mgrwt>
<rscale>  2 0.45510307E+03</rscale>
<asrwt>0</asrwt>
<pdfrwt beam="1">  1       21 0.22952612E+00 0.45510307E+03</pdfrwt>
<pdfrwt beam="2">  1       21 0.48787615E-02 0.45510307E+03</pdfrwt>
<totfact> 0.21549513E+04</totfact>
</mgrwt>
</event>
<event>
 7    0  0.4707675E-002  0.4538581E+03  0.7546771E-02  0.1026578E+00
         21   -1    0    0  502  501  0.00000000000E+00  0.00000000000E+00  0.56842639623E+03  0.56842639623E+03  0.00000000000E+00 0.  1.
         21   -1    0    0  501  502 -0.00000000000E+00 -0.00000000000E+00 -0.90595353430E+02  0.90595353430E+02  0.00000000000E+00 0.  1.
      99926    2    1    2    0    0 -0.71054273576E-14  0.00000000000E+00  0.47783104280E+03  0.65902174966E+03  0.45385808472E+03 0.  0.
      99925    2    3    3    0    0  0.55885699587E+02  0.93044354024E+02  0.26078661267E+03  0.38600846064E+03  0.26308251766E+03 0.  0.
         25    1    3    3    0    0 -0.55885699587E+02 -0.93044354024E+02  0.21704443013E+03  0.27301328903E+03  0.12509000000E+03 0.  0.
         25    1    4    4    0    0  0.34235938899E+02  0.69041734886E+02  0.18491978482E+03  0.23618148866E+03  0.12509000000E+03 0.  0.
         25    1    4    4    0    0  0.21649760688E+02  0.24002619138E+02  0.75866827856E+02  0.14982697198E+03  0.12509000000E+03 0.  0.
<mgrwt>
<rscale>  2 0.45385808E+03</rscale>
<asrwt>0</asrwt>
<pdfrwt beam="1">  1       21 0.83592116E-01 0.45385808E+03</pdfrwt>
<pdfrwt beam="2">  1       21 0.13322846E-01 0.45385808E+03</pdfrwt>
<totfact> 0.55684139E+04</totfact>
</mgrwt>
</event>
<event>
 7    0  0.4707675E-002  0.4557186E+03  0.7546771E-02  0.1026030E+00
         21   -1    0    0  502  501  0.00000000000E+00  0.00000000000E+00  0.12975467989E+03  0.12975467989E+03  0.00000000000E+00 0.  1.
         21   -1    0    0  501  502 -0.00000000000E+00 -0.00000000000E+00 -0.40013868518E+03  0.40013868518E+03  0.00000000000E+00 0.  1.
      99926    2    1    2    0    0 -0.17763568394E-14  0.00000000000E+00 -0.27038400529E+03  0.52989336506E+03  0.45571862813E+03 0.  0.
      99925    2    3    3    0    0  0.11755805289E+02  0.67305024779E+02 -0.64139492067E+02  0.27918941086E+03  0.26299180096E+03 0.  0.
         25    1    4    4    0    0 -0.80203106036E+01  0.71544954177E+02 -0.43989767810E+02  0.15088278107E+03  0.12509000000E+03 0.  0.
         25    1    3    3    0    0 -0.11755805289E+02 -0.67305024779E+02 -0.20624451322E+03  0.25070395420E+03  0.12509000000E+03 0.  0.
         25    1    4    4    0    0  0.19776115893E+02 -0.42399293979E+01 -0.20149724257E+02  0.12830662979E+03  0.12509000000E+03 0.  0.
<mgrwt>
<rscale>  2 0.45571863E+03</rscale>
<asrwt>0</asrwt>
<pdfrwt beam="1">  1       21 0.19081570E-01 0.45571863E+03</pdfrwt>
<pdfrwt beam="2">  1       21 0.58843925E-01 0.45571863E+03</pdfrwt>
<totfact> 0.62854972E+04</totfact>
</mgrwt>
</event>
<event>
 7    0  0.4707675E-002  0.4569936E+03  0.7546771E-02  0.1025657E+00
         21   -1    0    0  502  501  0.00000000000E+00  0.00000000000E+00  0.15246725657E+04  0.15246725657E+04  0.00000000000E+00 0. -1.
         21   -1    0    0  501  502 -0.00000000000E+00 -0.00000000000E+00 -0.34243933152E+02  0.34243933152E+02  0.00000000000E+00 0. -1.
      99926    2    1    2    0    0  0.00000000000E+00 -0.35527136788E-14  0.14904286326E+04  0.15589164989E+04  0.45699359041E+03 0.  0.
      99925    2    3    3    0    0  0.98739917053E+02 -0.31997043607E+02  0.11041993187E+04  0.11398771534E+04  0.26323071160E+03 0.  0.
         25    1    4    4    0    0  0.42834433789E+02 -0.32127473868E+01  0.38243322177E+03  0.40465761784E+03  0.12509000000E+03 0.  0.
         25    1    3    3    0    0 -0.98739917053E+02  0.31997043607E+02  0.38622931391E+03  0.41903934546E+03  0.12509000000E+03 0.  0.
         25    1    4    4    0    0  0.55905483265E+02 -0.28784296220E+02  0.72176609689E+03  0.73521953558E+03  0.12509000000E+03 0.  0.
<mgrwt>
<rscale>  2 0.45699359E+03</rscale>
<asrwt>0</asrwt>
<pdfrwt beam="1">  1       21 0.22421651E+00 0.45699359E+03</pdfrwt>
<pdfrwt beam="2">  1       21 0.50358736E-02 0.45699359E+03</pdfrwt>
<totfact> 0.22028410E+04</totfact>
</mgrwt>
</event>
<event>
 7    0  0.4707675E-002  0.4473724E+03  0.7546771E-02  0.1028509E+00
         21   -1    0    0  502  501  0.00000000000E+00  0.00000000000E+00  0.12626835616E+03  0.12626835616E+03  0.00000000000E+00 0.  1.
         21   -1    0    0  501  502 -0.00000000000E+00 -0.00000000000E+00 -0.39626329035E+03  0.39626329035E+03  0.00000000000E+00 0.  1.
      99926    2    1    2    0    0  0.00000000000E+00  0.00000000000E+00 -0.26999493419E+03  0.52253164651E+03  0.44737239199E+03 0.  0.
      99925    2    3    3    0    0 -0.22665224272E+02  0.22621586839E+02 -0.53151137819E+02  0.27015457008E+03  0.26293154946E+03 0.  0.
         25    1    3    3    0    0  0.22665224272E+02 -0.22621586839E+02 -0.21684379637E+03  0.25237707643E+03  0.12509000000E+03 0.  0.
         25    1    4    4    0    0 -0.11686177158E+02  0.34067498482E+01  0.14012693006E+02  0.12645962338E+03  0.12509000000E+03 0.  0.
         25    1    4    4    0    0 -0.10979047114E+02  0.19214836990E+02 -0.67163830825E+02  0.14369494670E+03  0.12509000000E+03 0.  0.
<mgrwt>
<rscale>  2 0.44737239E+03</rscale>
<asrwt>0</asrwt>
<pdfrwt beam="1">  1       21 0.18568876E-01 0.44737239E+03</pdfrwt>
<pdfrwt beam="2">  1       21 0.58274014E-01 0.44737239E+03</pdfrwt>
<totfact> 0.67716663E+04</totfact>
</mgrwt>
</event>
<event>
 7    0  0.4707675E-002  0.4521575E+03  0.7546771E-02  0.1027081E+00
         21   -1    0    0  502  501  0.00000000000E+00  0.00000000000E+00  0.13965954807E+03  0.13965954807E+03  0.00000000000E+00 0. -1.
         21   -1    0    0  501  502 -0.00000000000E+00 -0.00000000000E+00 -0.36597279951E+03  0.36597279951E+03  0.00000000000E+00 0. -1.
      99926    2    1    2    0    0  0.00000000000E+00  0.14210854715E-13 -0.22631325143E+03  0.50563234758E+03  0.45215747605E+03 0.  0.
      99925    2    3    3    0    0  0.67268477851E+02  0.74553597155E+02 -0.19437696834E+03  0.34207587037E+03  0.26296427192E+03 0.  0.
         25    1    4    4    0    0  0.13914650379E+02  0.27986836897E+02 -0.13461839947E+03  0.18640413652E+03  0.12509000000E+03 0.  0.
         25    1    4    4    0    0  0.53353827472E+02  0.46566760257E+02 -0.59758568868E+02  0.15567173385E+03  0.12509000000E+03 0.  0.
         25    1    3    3    0    0 -0.67268477851E+02 -0.74553597155E+02 -0.31936283095E+02  0.16355647722E+03  0.12509000000E+03 0.  0.
<mgrwt>
<rscale>  2 0.45215748E+03</rscale>
<asrwt>0</asrwt>
<pdfrwt beam="1">  1       21 0.20538169E-01 0.45215748E+03</pdfrwt>
<pdfrwt beam="2">  1       21 0.53819529E-01 0.45215748E+03</pdfrwt>
<totfact> 0.66361325E+04</totfact>
</mgrwt>
</event>
<event>
 7    0  0.4707675E-002  0.4553525E+03  0.7546771E-02  0.1026138E+00
         21   -1    0    0  502  501  0.00000000000E+00  0.00000000000E+00  0.10317937605E+03  0.10317937605E+03  0.00000000000E+00 0. -1.
         21   -1    0    0  501  502 -0.00000000000E+00 -0.00000000000E+00 -0.50239182307E+03  0.50239182307E+03  0.00000000000E+00 0. -1.
      99926    2    1    2    0    0  0.00000000000E+00  0.00000000000E+00 -0.39921244702E+03  0.60557119912E+03  0.45535250010E+03 0.  0.
      99925    2    3    3    0    0 -0.64590285552E+02 -0.80477617732E+02 -0.18855731355E+03  0.33972980787E+03  0.26308540423E+03 0.  0.
         25    1    4    4    0    0 -0.57221385280E+02 -0.67007576243E+02 -0.12992656090E+03  0.20073046987E+03  0.12509000000E+03 0.  0.
         25    1    3    3    0    0  0.64590285552E+02  0.80477617732E+02 -0.21065513347E+03  0.26584139125E+03  0.12509000000E+03 0.  0.
         25    1    4    4    0    0 -0.73689002720E+01 -0.13470041489E+02 -0.58630752651E+02  0.13899933800E+03  0.12509000000E+03 0.  0.
<mgrwt>
<rscale>  2 0.45535250E+03</rscale>
<asrwt>0</asrwt>
<pdfrwt beam="1">  1       21 0.15173438E-01 0.45535250E+03</pdfrwt>
<pdfrwt beam="2">  1       21 0.73881148E-01 0.45535250E+03</pdfrwt>
<totfact> 0.58174481E+04</totfact>
</mgrwt>
</event>
<event>
 7    0  0.4707675E-002  0.4476390E+03  0.7546771E-02  0.1028428E+00
         21   -1    0    0  502  501  0.00000000000E+00  0.00000000000E+00  0.51456411570E+02  0.51456411570E+02  0.00000000000E+00 0.  1.
         21   -1    0    0  501  502 -0.00000000000E+00 -0.00000000000E+00 -0.97354578543E+03  0.97354578543E+03  0.00000000000E+00 0.  1.
      99926    2    1    2    0    0  0.00000000000E+00  0.00000000000E+00 -0.92208937386E+03  0.10250021970E+04  0.44763901804E+03 0.  0.
      99925    2    3    3    0    0  0.67484256107E+02 -0.80575170538E+02 -0.54910537735E+03  0.61780316375E+03  0.26290216958E+03 0.  0.
         25    1    4    4    0    0  0.49878972883E+02 -0.26218406167E+01 -0.26100275999E+03  0.29370858824E+03  0.12509000000E+03 0.  0.
         25    1    4    4    0    0  0.17605283224E+02 -0.77953329922E+02 -0.28810261736E+03  0.32409457551E+03  0.12509000000E+03 0.  0.
         25    1    3    3    0    0 -0.67484256107E+02  0.80575170538E+02 -0.37298399651E+03  0.40719903326E+03  0.12509000000E+03 0.  0.
<mgrwt>
<rscale>  2 0.44763902E+03</rscale>
<asrwt>0</asrwt>
<pdfrwt beam="1">  1       21 0.75671197E-02 0.44763902E+03</pdfrwt>
<pdfrwt beam="2">  1       21 0.14316849E+00 0.44763902E+03</pdfrwt>
<totfact> 0.40485321E+04</totfact>
</mgrwt>
</event>
<event>
 7    0  0.4707675E-002  0.4541417E+03  0.7546771E-02  0.1026494E+00
         21   -1    0    0  502  501  0.00000000000E+00  0.00000000000E+00  0.11659856105E+04  0.11659856105E+04  0.00000000000E+00 0. -1.
         21   -1    0    0  501  502 -0.00000000000E+00 -0.00000000000E+00 -0.44221113006E+02  0.44221113006E+02  0.00000000000E+00 0. -1.
      99926    2    1    2    0    0 -0.71054273576E-14 -0.35527136788E-14  0.11217644974E+04  0.12102067235E+04  0.45414174635E+03 0.  0.
      99925    2    3    3    0    0  0.44057487219E+02  0.21197699700E+02  0.43676680918E+03  0.51216679216E+03  0.26298131633E+03 0.  0.
         25    1    3    3    0    0 -0.44057487219E+02 -0.21197699700E+02  0.68499768827E+03  0.69803993130E+03  0.12509000000E+03 0.  0.
         25    1    4    4    0    0  0.51720593155E+02  0.31399121312E+01  0.17390030975E+03  0.22039442969E+03  0.12509000000E+03 0.  0.
         25    1    4    4    0    0 -0.76631059363E+01  0.18057787569E+02  0.26286649943E+03  0.29177236248E+03  0.12509000000E+03 0.  0.
<mgrwt>
<rscale>  2 0.45414175E+03</rscale>
<asrwt>0</asrwt>
<pdfrwt beam="1">  1       21 0.17146845E+00 0.45414175E+03</pdfrwt>
<pdfrwt beam="2">  1       21 0.65031056E-02 0.45414175E+03</pdfrwt>
<totfact> 0.32047830E+04</totfact>
</mgrwt>
</event>
<event>
 7    0  0.4707675E-002  0.4637809E+03  0.7546771E-02  0.1023690E+00
         21   -1    0    0  502  501  0.00000000000E+00  0.00000000000E+00  0.28407491378E+03  0.28407491378E+03  0.00000000000E+00 0.  1.
         21   -1    0    0  501  502 -0.00000000000E+00 -0.00000000000E+00 -0.18929228552E+03  0.18929228552E+03  0.00000000000E+00 0.  1.
      99926    2    1    2    0    0  0.00000000000E+00  0.71054273576E-14  0.94782628259E+02  0.47336719930E+03  0.46378093833E+03 0.  0.
      99925    2    3    3    0    0 -0.14371795243E+02  0.60207593957E+02  0.16562097237E+03  0.31685176247E+03  0.26293198745E+03 0.  0.
         25    1    4    4    0    0  0.24710284612E+02  0.11185484514E+02  0.99348704034E+02  0.16202896754E+03  0.12509000000E+03 0.  0.
         25    1    3    3    0    0  0.14371795243E+02 -0.60207593957E+02 -0.70838344111E+02  0.15651543683E+03  0.12509000000E+03 0.  0.
         25    1    4    4    0    0 -0.39082079855E+02  0.49022109444E+02  0.66272268337E+02  0.15482279493E+03  0.12509000000E+03 0.  0.
<mgrwt>
<rscale>  2 0.46378094E+03</rscale>
<asrwt>0</asrwt>
<pdfrwt beam="1">  1       21 0.41775723E-01 0.46378094E+03</pdfrwt>
<pdfrwt beam="2">  1       21 0.27837101E-01 0.46378094E+03</pdfrwt>
<totfact> 0.62701395E+04</totfact>
</mgrwt>
</event>
<event>
 7    0  0.4707675E-002  0.4387156E+03  0.7546771E-02  0.1031142E+00
         21   -1    0    0  502  501  0.00000000000E+00  0.00000000000E+00  0.12267649517E+03  0.12267649517E+03  0.00000000000E+00 0.  1.
         21   -1    0    0  501  502 -0.00000000000E+00 -0.00000000000E+00 -0.39223354260E+03  0.39223354260E+03  0.00000000000E+00 0.  1.
      99926    2    1    2    0    0 -0.52180482157E-14  0.71054273576E-14 -0.26955704742E+03  0.51491003777E+03  0.43871556295E+03 0.  0.
      99925    2    3    3    0    0  0.96327725715E+00  0.45263629612E+02 -0.71876165271E+02  0.27663506355E+03  0.26326992077E+03 0.  0.
         25    1    3    3    0    0 -0.96327725715E+00 -0.45263629612E+02 -0.19768088215E+03  0.23827497422E+03  0.12509000000E+03 0.  0.
         25    1    4    4    0    0  0.36438340631E+02  0.40855291597E+02 -0.45192970245E+02  0.14382913536E+03  0.12509000000E+03 0.  0.
         25    1    4    4    0    0 -0.35475063374E+02  0.44083380148E+01 -0.26683195026E+02  0.13280592819E+03  0.12509000000E+03 0.  0.
<mgrwt>
<rscale>  2 0.43871556E+03</rscale>
<asrwt>0</asrwt>
<pdfrwt beam="1">  1       21 0.18040661E-01 0.43871556E+03</pdfrwt>
<pdfrwt beam="2">  1       21 0.57681403E-01 0.43871556E+03</pdfrwt>
<totfact> 0.73244537E+04</totfact>
</mgrwt>
</event>
<event>
 7    0  0.4707675E-002  0.4688813E+03  0.7546771E-02  0.1022236E+00
         21   -1    0    0  502  501  0.00000000000E+00  0.00000000000E+00  0.28398077747E+03  0.28398077747E+03  0.00000000000E+00 0.  1.
         21   -1    0    0  501  502 -0.00000000000E+00 -0.00000000000E+00 -0.19354271366E+03  0.19354271366E+03  0.00000000000E+00 0.  1.
      99926    2    1    2    0    0 -0.14210854715E-13  0.00000000000E+00  0.90438063802E+02  0.47752349113E+03  0.46888126556E+03 0.  0.
      99925    2    3    3    0    0  0.11068345828E+03 -0.42592922759E+02  0.13414485435E+02  0.28872432606E+03  0.26290074750E+03 0.  0.
         25    1    4    4    0    0  0.19860717554E+02 -0.38434074123E+02 -0.80357924952E+01  0.13260357543E+03  0.12509000000E+03 0.  0.
         25    1    3    3    0    0 -0.11068345828E+03  0.42592922759E+02  0.77023578368E+02  0.18879916507E+03  0.12509000000E+03 0.  0.
         25    1    4    4    0    0  0.90822740725E+02 -0.41588486361E+01  0.21450277930E+02  0.15612075063E+03  0.12509000000E+03 0.  0.
<mgrwt>
<rscale>  2 0.46888127E+03</rscale>
<asrwt>0</asrwt>
<pdfrwt beam="1">  1       21 0.41761879E-01 0.46888127E+03</pdfrwt>
<pdfrwt beam="2">  1       21 0.28462164E-01 0.46888127E+03</pdfrwt>
<totfact> 0.59992330E+04</totfact>
</mgrwt>
</event>
<event>
 7    0  0.4707675E-002  0.4612485E+03  0.7546771E-02  0.1024420E+00
         21   -1    0    0  502  501  0.00000000000E+00  0.00000000000E+00  0.10853997411E+03  0.10853997411E+03  0.00000000000E+00 0.  1.
         21   -1    0    0  501  502 -0.00000000000E+00 -0.00000000000E+00 -0.49002733968E+03  0.49002733968E+03  0.00000000000E+00 0.  1.
      99926    2    1    2    0    0 -0.14210854715E-13  0.71054273576E-14 -0.38148736557E+03  0.59856731379E+03  0.46124854368E+03 0.  0.
      99925    2    3    3    0    0  0.10233705487E+03 -0.58996474327E+02 -0.22023539701E+03  0.36276408597E+03  0.26294618308E+03 0.  0.
         25    1    3    3    0    0 -0.10233705487E+03  0.58996474327E+02 -0.16125196856E+03  0.23580322781E+03  0.12509000000E+03 0.  0.
         25    1    4    4    0    0  0.56514967642E+02 -0.66952501784E+02 -0.13913865772E+03  0.20660022564E+03  0.12509000000E+03 0.  0.
         25    1    4    4    0    0  0.45822087229E+02  0.79560274569E+01 -0.81096739289E+02  0.15616386033E+03  0.12509000000E+03 0.  0.
<mgrwt>
<rscale>  2 0.46124854E+03</rscale>
<asrwt>0</asrwt>
<pdfrwt beam="1">  1       21 0.15961761E-01 0.46124854E+03</pdfrwt>
<pdfrwt beam="2">  1       21 0.72062843E-01 0.46124854E+03</pdfrwt>
<totfact> 0.55952300E+04</totfact>
</mgrwt>
</event>
<event>
 7    0  0.4707675E-002  0.4561699E+03  0.7546771E-02  0.1025898E+00
         21   -1    0    0  502  501  0.00000000000E+00  0.00000000000E+00  0.22195027859E+03  0.22195027859E+03  0.00000000000E+00 0.  1.
         21   -1    0    0  501  502 -0.00000000000E+00 -0.00000000000E+00 -0.23438915658E+03  0.23438915658E+03  0.00000000000E+00 0.  1.
      99926    2    1    2    0    0 -0.88817841970E-15  0.14210854715E-13 -0.12438877989E+02  0.45633943517E+03  0.45616987450E+03 0.  0.
      99925    2    3    3    0    0 -0.58397739216E+01  0.99497809699E+02 -0.63780052187E+02  0.28835925371E+03  0.26296244418E+03 0.  0.
         25    1    3    3    0    0  0.58397739216E+01 -0.99497809699E+02  0.51341174198E+02  0.16798018146E+03  0.12509000000E+03 0.  0.
         25    1    4    4    0    0 -0.26559553876E+02  0.74933221819E+02 -0.57742107613E+02  0.15906620234E+03  0.12509000000E+03 0.  0.
         25    1    4    4    0    0  0.20719779954E+02  0.24564587880E+02 -0.60379445737E+01  0.12929305137E+03  0.12509000000E+03 0.  0.
<mgrwt>
<rscale>  2 0.45616987E+03</rscale>
<asrwt>0</asrwt>
<pdfrwt beam="1">  1       21 0.32639747E-01 0.45616987E+03</pdfrwt>
<pdfrwt beam="2">  1       21 0.34468994E-01 0.45616987E+03</pdfrwt>
<totfact> 0.67812586E+04</totfact>
</mgrwt>
</event>
<event>
 7    0  0.4707675E-002  0.4565995E+03  0.7546771E-02  0.1025772E+00
         21   -1    0    0  502  501  0.00000000000E+00  0.00000000000E+00  0.66319930116E+02  0.66319930116E+02  0.00000000000E+00 0. -1.
         21   -1    0    0  501  502 -0.00000000000E+00 -0.00000000000E+00 -0.78589901240E+03  0.78589901240E+03  0.00000000000E+00 0. -1.
      99926    2    1    2    0    0  0.17763568394E-14  0.00000000000E+00 -0.71957908228E+03  0.85221894251E+03  0.45659946378E+03 0.  0.
      99925    2    3    3    0    0 -0.15578546765E+02 -0.85323127861E+01 -0.66353952635E+03  0.71400377906E+03  0.26306121340E+03 0.  0.
         25    1    4    4    0    0  0.27493181519E+02 -0.21899777742E+02 -0.35494338856E+03  0.37797856087E+03  0.12509000000E+03 0.  0.
         25    1    4    4    0    0 -0.43071728284E+02  0.13367464956E+02 -0.30859613780E+03  0.33602521819E+03  0.12509000000E+03 0.  0.
         25    1    3    3    0    0  0.15578546765E+02  0.85323127861E+01 -0.56039555929E+02  0.13821516346E+03  0.12509000000E+03 0.  0.
<mgrwt>
<rscale>  2 0.45659946E+03</rscale>
<asrwt>0</asrwt>
<pdfrwt beam="1">  1       21 0.97529317E-02 0.45659946E+03</pdfrwt>
<pdfrwt beam="2">  1       21 0.11557337E+00 0.45659946E+03</pdfrwt>
<totfact> 0.44775837E+04</totfact>
</mgrwt>
</event>
<event>
 7    0  0.4707675E-002  0.4522874E+03  0.7546771E-02  0.1027042E+00
         21   -1    0    0  502  501  0.00000000000E+00  0.00000000000E+00  0.42990170643E+03  0.42990170643E+03  0.00000000000E+00 0. -1.
         21   -1    0    0  501  502 -0.00000000000E+00 -0.00000000000E+00 -0.11895970990E+03  0.11895970990E+03  0.00000000000E+00 0. -1.
      99926    2    1    2    0    0  0.00000000000E+00  0.00000000000E+00  0.31094199653E+03  0.54886141634E+03  0.45228744083E+03 0.  0.
      99925    2    3    3    0    0 -0.42204312224E+02  0.48692832122E+02  0.30515354865E+03  0.40803098603E+03  0.26309390232E+03 0.  0.
         25    1    4    4    0    0 -0.30797684327E+02  0.54752335075E+02  0.19992632443E+03  0.24405810550E+03  0.12509000000E+03 0.  0.
         25    1    3    3    0    0  0.42204312224E+02 -0.48692832122E+02  0.57884478798E+01  0.14083043030E+03  0.12509000000E+03 0.  0.
         25    1    4    4    0    0 -0.11406627898E+02 -0.60595029532E+01  0.10522722422E+03  0.16397288054E+03  0.12509000000E+03 0.  0.
<mgrwt>
<rscale>  2 0.45228744E+03</rscale>
<asrwt>0</asrwt>
<pdfrwt beam="1">  1       21 0.63220839E-01 0.45228744E+03</pdfrwt>
<pdfrwt beam="2">  1       21 0.17494075E-01 0.45228744E+03</pdfrwt>
<totfact> 0.63289230E+04</totfact>
</mgrwt>
</event>
<event>
 7    0  0.4707675E-002  0.4552374E+03  0.7546771E-02  0.1026172E+00
         21   -1    0    0  502  501  0.00000000000E+00  0.00000000000E+00  0.12119509571E+04  0.12119509571E+04  0.00000000000E+00 0. -1.
         21   -1    0    0  501  502 -0.00000000000E+00 -0.00000000000E+00 -0.42749487531E+02  0.42749487531E+02  0.00000000000E+00 0. -1.
      99926    2    1    2    0    0 -0.14210854715E-13  0.35527136788E-14  0.11692014696E+04  0.12547004446E+04  0.45523744279E+03 0.  0.
      99925    2    3    3    0    0 -0.10942579080E+03  0.25851091628E+02  0.69351968953E+03  0.75015813065E+03  0.26291705649E+03 0.  0.
         25    1    3    3    0    0  0.10942579080E+03 -0.25851091628E+02  0.47568178004E+03  0.50454231397E+03  0.12509000000E+03 0.  0.
         25    1    4    4    0    0 -0.13139824918E+02  0.18235346186E+01  0.32742176840E+03  0.35075419142E+03  0.12509000000E+03 0.  0.
         25    1    4    4    0    0 -0.96285965878E+02  0.24027557010E+02  0.36609792113E+03  0.39940393924E+03  0.12509000000E+03 0.  0.
<mgrwt>
<rscale>  2 0.45523744E+03</rscale>
<asrwt>0</asrwt>
<pdfrwt beam="1">  1       21 0.17822806E+00 0.45523744E+03</pdfrwt>
<pdfrwt beam="2">  1       21 0.62866901E-02 0.45523744E+03</pdfrwt>
<totfact> 0.30402944E+04</totfact>
</mgrwt>
</event>
<event>
 7    0  0.4707675E-002  0.4545173E+03  0.7546771E-02  0.1026383E+00
         21   -1    0    0  502  501  0.00000000000E+00  0.00000000000E+00  0.58496429734E+03  0.58496429734E+03  0.00000000000E+00 0.  1.
         21   -1    0    0  501  502 -0.00000000000E+00 -0.00000000000E+00 -0.88289977139E+02  0.88289977139E+02  0.00000000000E+00 0.  1.
      99926    2    1    2    0    0  0.00000000000E+00  0.14210854715E-13  0.49667432020E+03  0.67325427448E+03  0.45451725793E+03 0.  0.
      99925    2    3    3    0    0 -0.74640936854E+02  0.75769032111E+02  0.36811682135E+03  0.46471949491E+03  0.26294866248E+03 0.  0.
         25    1    4    4    0    0 -0.58566584186E+02  0.39201789969E+01  0.19054749714E+03  0.23537474238E+03  0.12509000000E+03 0.  0.
         25    1    4    4    0    0 -0.16074352668E+02  0.71848853114E+02  0.17756932422E+03  0.22934475252E+03  0.12509000000E+03 0.  0.
         25    1    3    3    0    0  0.74640936854E+02 -0.75769032111E+02  0.12855749885E+03  0.20853477957E+03  0.12509000000E+03 0.  0.
<mgrwt>
<rscale>  2 0.45451726E+03</rscale>
<asrwt>0</asrwt>
<pdfrwt beam="1">  1       21 0.86024159E-01 0.45451726E+03</pdfrwt>
<pdfrwt beam="2">  1       21 0.12983820E-01 0.45451726E+03</pdfrwt>
<totfact> 0.54586964E+04</totfact>
</mgrwt>
</event>
<event>
 7    0  0.4707675E-002  0.4573048E+03  0.7546771E-02  0.1025566E+00
         21   -1    0    0  502  501  0.00000000000E+00  0.00000000000E+00  0.17435495391E+03  0.17435495391E+03  0.00000000000E+00 0.  1.
         21   -1    0    0  501  502 -0.00000000000E+00 -0.00000000000E+00 -0.29985910678E+03  0.29985910678E+03  0.00000000000E+00 0.  1.
      99926    2    1    2    0    0 -0.35527136788E-14  0.00000000000E+00 -0.12550415287E+03  0.47421406068E+03  0.45730480312E+03 0.  0.
      99925    2    3    3    0    0  0.13094107912E+02  0.11348005698E+03 -0.95184692147E+02  0.30212118810E+03  0.26299792334E+03 0.  0.
         25    1    4    4    0    0  0.42253547535E+02  0.38047763881E+02 -0.37980042459E+02  0.14255871191E+03  0.12509000000E+03 0.  0.
         25    1    3    3    0    0 -0.13094107912E+02 -0.11348005698E+03 -0.30319460724E+02  0.17209287258E+03  0.12509000000E+03 0.  0.
         25    1    4    4    0    0 -0.29159439623E+02  0.75432293104E+02 -0.57204649688E+02  0.15956247619E+03  0.12509000000E+03 0.  0.
<mgrwt>
<rscale>  2 0.45730480E+03</rscale>
<asrwt>0</asrwt>
<pdfrwt beam="1">  1       21 0.25640434E-01 0.45730480E+03</pdfrwt>
<pdfrwt beam="2">  1       21 0.44096927E-01 0.45730480E+03</pdfrwt>
<totfact> 0.65910132E+04</totfact>
</mgrwt>
</event>
<event>
 7    0  0.4707675E-002  0.4773219E+03  0.7546771E-02  0.1019874E+00
         21   -1    0    0  502  501  0.00000000000E+00  0.00000000000E+00  0.49247043518E+02  0.49247043518E+02  0.00000000000E+00 0. -1.
         21   -1    0    0  501  502 -0.00000000000E+00 -0.00000000000E+00 -0.11565982099E+04  0.11565982099E+04  0.00000000000E+00 0. -1.
      99926    2    1    2    0    0  0.88817841970E-15  0.00000000000E+00 -0.11073511664E+04  0.12058452534E+04  0.47732187202E+03 0.  0.
      99925    2    3    3    0    0  0.54796868389E+01 -0.33964811050E+02 -0.35895633215E+03  0.44628882276E+03  0.26294567798E+03 0.  0.
         25    1    3    3    0    0 -0.54796868389E+01  0.33964811050E+02 -0.74839483426E+03  0.75955643069E+03  0.12509000000E+03 0.  0.
         25    1    4    4    0    0  0.20413140280E+02 -0.53212706623E+02 -0.19658332664E+03  0.23987663674E+03  0.12509000000E+03 0.  0.
         25    1    4    4    0    0 -0.14933453441E+02  0.19247895572E+02 -0.16237300551E+03  0.20641218601E+03  0.12509000000E+03 0.  0.
<mgrwt>
<rscale>  2 0.47732187E+03</rscale>
<asrwt>0</asrwt>
<pdfrwt beam="1">  1       21 0.72422121E-02 0.47732187E+03</pdfrwt>
<pdfrwt beam="2">  1       21 0.17008798E+00 0.47732187E+03</pdfrwt>
<totfact> 0.26967894E+04</totfact>
</mgrwt>
</event>
<event>
 7    0  0.4707675E-002  0.4772765E+03  0.7546771E-02  0.1019886E+00
         21   -1    0    0  502  501  0.00000000000E+00  0.00000000000E+00  0.54298097503E+02  0.54298097503E+02  0.00000000000E+00 0. -1.
         21   -1    0    0  501  502 -0.00000000000E+00 -0.00000000000E+00 -0.10488066016E+04  0.10488066016E+04  0.00000000000E+00 0. -1.
      99926    2    1    2    0    0  0.00000000000E+00  0.35527136788E-14 -0.99450850405E+03  0.11031046991E+04  0.47727645286E+03 0.  0.
      99925    2    3    3    0    0 -0.84554079008E+02 -0.28046565880E+02 -0.84236269771E+03  0.88692917634E+03  0.26293049883E+03 0.  0.
         25    1    4    4    0    0 -0.27281810664E+02  0.16029541180E+02 -0.32214366428E+03  0.34702347460E+03  0.12509000000E+03 0.  0.
         25    1    3    3    0    0  0.84554079008E+02  0.28046565880E+02 -0.15214580634E+03  0.21617552271E+03  0.12509000000E+03 0.  0.
         25    1    4    4    0    0 -0.57272268344E+02 -0.44076107060E+02 -0.52021903343E+03  0.53990570175E+03  0.12509000000E+03 0.  0.
<mgrwt>
<rscale>  2 0.47727645E+03</rscale>
<asrwt>0</asrwt>
<pdfrwt beam="1">  1       21 0.79850144E-02 0.47727645E+03</pdfrwt>
<pdfrwt beam="2">  1       21 0.15423626E+00 0.47727645E+03</pdfrwt>
<totfact> 0.29851747E+04</totfact>
</mgrwt>
</event>
<event>
 7    0  0.4707675E-002  0.4590669E+03  0.7546771E-02  0.1025052E+00
         21   -1    0    0  502  501  0.00000000000E+00  0.00000000000E+00  0.12487985270E+03  0.12487985270E+03  0.00000000000E+00 0. -1.
         21   -1    0    0  501  502 -0.00000000000E+00 -0.00000000000E+00 -0.42189033353E+03  0.42189033353E+03  0.00000000000E+00 0. -1.
      99926    2    1    2    0    0 -0.14210854715E-13  0.14210854715E-13 -0.29701048082E+03  0.54677018623E+03  0.45906689145E+03 0.  0.
      99925    2    3    3    0    0 -0.94156540669E+02  0.64244796181E+02 -0.15516835398E+03  0.32595455038E+03  0.26301388338E+03 0.  0.
         25    1    3    3    0    0  0.94156540669E+02 -0.64244796181E+02 -0.14184212684E+03  0.22081563585E+03  0.12509000000E+03 0.  0.
         25    1    4    4    0    0 -0.48659491075E+02  0.37333715172E+02 -0.12426193877E+03  0.18668178778E+03  0.12509000000E+03 0.  0.
         25    1    4    4    0    0 -0.45497049594E+02  0.26911081008E+02 -0.30906415211E+02  0.13927276261E+03  0.12509000000E+03 0.  0.
<mgrwt>
<rscale>  2 0.45906689E+03</rscale>
<asrwt>0</asrwt>
<pdfrwt beam="1">  1       21 0.18364684E-01 0.45906689E+03</pdfrwt>
<pdfrwt beam="2">  1       21 0.62042696E-01 0.45906689E+03</pdfrwt>
<totfact> 0.60122239E+04</totfact>
</mgrwt>
</event>
<event>
 7    0  0.4707675E-002  0.4646499E+03  0.7546771E-02  0.1023441E+00
         21   -1    0    0  502  501  0.00000000000E+00  0.00000000000E+00  0.10712583340E+04  0.10712583340E+04  0.00000000000E+00 0.  1.
         21   -1    0    0  501  502 -0.00000000000E+00 -0.00000000000E+00 -0.50384571297E+02  0.50384571297E+02  0.00000000000E+00 0.  1.
      99926    2    1    2    0    0  0.71054273576E-14  0.14210854715E-13  0.10208737627E+04  0.11216429053E+04  0.46464994094E+03 0.  0.
      99925    2    3    3    0    0 -0.34675612958E+02 -0.11249685813E+03  0.55991657667E+03  0.62972118725E+03  0.26302900909E+03 0.  0.
         25    1    4    4    0    0 -0.38652737237E+02 -0.67065678446E+02  0.21990739963E+03  0.26457250771E+03  0.12509000000E+03 0.  0.
         25    1    3    3    0    0  0.34675612958E+02  0.11249685813E+03  0.46095718600E+03  0.49192171801E+03  0.12509000000E+03 0.  0.
         25    1    4    4    0    0  0.39771242791E+01 -0.45431179685E+02  0.34000917704E+03  0.36514867955E+03  0.12509000000E+03 0.  0.
<mgrwt>
<rscale>  2 0.46464994E+03</rscale>
<asrwt>0</asrwt>
<pdfrwt beam="1">  1       21 0.15753798E+00 0.46464994E+03</pdfrwt>
<pdfrwt beam="2">  1       21 0.74094965E-02 0.46464994E+03</pdfrwt>
<totfact> 0.32248117E+04</totfact>
</mgrwt>
</event>
<event>
 7    0  0.4707675E-002  0.4524263E+03  0.7546771E-02  0.1027001E+00
         21   -1    0    0  502  501  0.00000000000E+00  0.00000000000E+00  0.19020323223E+03  0.19020323223E+03  0.00000000000E+00 0.  1.
         21   -1    0    0  501  502 -0.00000000000E+00 -0.00000000000E+00 -0.26904055148E+03  0.26904055148E+03  0.00000000000E+00 0.  1.
      99926    2    1    2    0    0  0.00000000000E+00  0.35527136788E-14 -0.78837319251E+02  0.45924378370E+03  0.45242627019E+03 0.  0.
      99925    2    3    3    0    0  0.13910488732E+02 -0.30588970906E+02  0.57359714389E+02  0.27129079248E+03  0.26301971487E+03 0.  0.
         25    1    3    3    0    0 -0.13910488732E+02  0.30588970906E+02 -0.13619703364E+03  0.18795299122E+03  0.12509000000E+03 0.  0.
         25    1    4    4    0    0 -0.24427187433E+02  0.96089277876E+01  0.35805091085E+02  0.13273481693E+03  0.12509000000E+03 0.  0.
         25    1    4    4    0    0  0.38337676165E+02 -0.40197898693E+02  0.21554623304E+02  0.13855597554E+03  0.12509000000E+03 0.  0.
<mgrwt>
<rscale>  2 0.45242627E+03</rscale>
<asrwt>0</asrwt>
<pdfrwt beam="1">  1       21 0.27971063E-01 0.45242627E+03</pdfrwt>
<pdfrwt beam="2">  1       21 0.39564787E-01 0.45242627E+03</pdfrwt>
<totfact> 0.69653746E+04</totfact>
</mgrwt>
</event>
<event>
 7    0  0.4707675E-002  0.4506192E+03  0.7546771E-02  0.1027538E+00
         21   -1    0    0  502  501  0.00000000000E+00  0.00000000000E+00  0.10159385858E+03  0.10159385858E+03  0.00000000000E+00 0.  1.
         21   -1    0    0  501  502 -0.00000000000E+00 -0.00000000000E+00 -0.49967987789E+03  0.49967987789E+03  0.00000000000E+00 0.  1.
      99926    2    1    2    0    0  0.00000000000E+00  0.71054273576E-14 -0.39808601931E+03  0.60127373647E+03  0.45061916005E+03 0.  0.
      99925    2    3    3    0    0  0.92346308124E+02 -0.57452351651E+02 -0.26098540422E+03  0.38616283463E+03  0.26302041803E+03 0.  0.
         25    1    4    4    0    0  0.48165687453E+02 -0.13843201129E+02 -0.77068742229E+02  0.15523745294E+03  0.12509000000E+03 0.  0.
         25    1    4    4    0    0  0.44180620671E+02 -0.43609150522E+02 -0.18391666199E+03  0.23092538169E+03  0.12509000000E+03 0.  0.
         25    1    3    3    0    0 -0.92346308124E+02  0.57452351651E+02 -0.13710061509E+03  0.21511090185E+03  0.12509000000E+03 0.  0.
<mgrwt>
<rscale>  2 0.45061916E+03</rscale>
<asrwt>0</asrwt>
<pdfrwt beam="1">  1       21 0.14940273E-01 0.45061916E+03</pdfrwt>
<pdfrwt beam="2">  1       21 0.73482335E-01 0.45061916E+03</pdfrwt>
<totfact> 0.60672837E+04</totfact>
</mgrwt>
</event>
<event>
 7    0  0.4707675E-002  0.4738020E+03  0.7546771E-02  0.1020853E+00
         21   -1    0    0  502  501  0.00000000000E+00  0.00000000000E+00  0.88641204451E+03  0.88641204451E+03  0.00000000000E+00 0. -1.
         21   -1    0    0  501  502 -0.00000000000E+00 -0.00000000000E+00 -0.63313775551E+02  0.63313775551E+02  0.00000000000E+00 0. -1.
      99926    2    1    2    0    0  0.00000000000E+00  0.00000000000E+00  0.82309826896E+03  0.94972582006E+03  0.47380203981E+03 0.  0.
      99925    2    3    3    0    0 -0.10942388193E+03 -0.40293138300E+02  0.39438745614E+03  0.48816586506E+03  0.26299681238E+03 0.  0.
         25    1    4    4    0    0 -0.55783136779E+02  0.20732066534E+02  0.18883948961E+03  0.23419956846E+03  0.12509000000E+03 0.  0.
         25    1    3    3    0    0  0.10942388193E+03  0.40293138300E+02  0.42871081282E+03  0.46155995500E+03  0.12509000000E+03 0.  0.
         25    1    4    4    0    0 -0.53640745146E+02 -0.61025204834E+02  0.20554796653E+03  0.25396629660E+03  0.12509000000E+03 0.  0.
<mgrwt>
<rscale>  2 0.47380204E+03</rscale>
<asrwt>0</asrwt>
<pdfrwt beam="1">  1       21 0.13035471E+00 0.47380204E+03</pdfrwt>
<pdfrwt beam="2">  1       21 0.93108499E-02 0.47380204E+03</pdfrwt>
<totfact> 0.35617230E+04</totfact>
</mgrwt>
</event>
<event>
 7    0  0.4707675E-002  0.4542173E+03  0.7546771E-02  0.1026472E+00
         21   -1    0    0  502  501  0.00000000000E+00  0.00000000000E+00  0.22234344624E+04  0.22234344624E+04  0.00000000000E+00 0. -1.
         21   -1    0    0  501  502 -0.00000000000E+00 -0.00000000000E+00 -0.23197597992E+02  0.23197597992E+02  0.00000000000E+00 0. -1.
      99926    2    1    2    0    0 -0.14210854715E-13  0.71054273576E-14  0.22002368644E+04  0.22466320604E+04  0.45421729963E+03 0.  0.
      99925    2    3    3    0    0  0.90187524977E+02 -0.52867099813E+02  0.15900783604E+04  0.16150707981E+04  0.26301287190E+03 0.  0.
         25    1    3    3    0    0 -0.90187524977E+02  0.52867099813E+02  0.61015850403E+03  0.63156126230E+03  0.12509000000E+03 0.  0.
         25    1    4    4    0    0  0.75180549337E+02 -0.42943270776E+02  0.72308735429E+03  0.73891749846E+03  0.12509000000E+03 0.  0.
         25    1    4    4    0    0  0.15006975640E+02 -0.99238290366E+01  0.86699100608E+03  0.87615329962E+03  0.12509000000E+03 0.  0.
<mgrwt>
<rscale>  2 0.45421730E+03</rscale>
<asrwt>0</asrwt>
<pdfrwt beam="1">  1       21 0.32697551E+00 0.45421730E+03</pdfrwt>
<pdfrwt beam="2">  1       21 0.34114130E-02 0.45421730E+03</pdfrwt>
<totfact> 0.10146351E+04</totfact>
</mgrwt>
</event>
<event>
 7    0  0.4707675E-002  0.4535149E+03  0.7546771E-02  0.1026679E+00
         21   -1    0    0  502  501  0.00000000000E+00  0.00000000000E+00  0.11391963812E+04  0.11391963812E+04  0.00000000000E+00 0. -1.
         21   -1    0    0  501  502 -0.00000000000E+00 -0.00000000000E+00 -0.45136160300E+02  0.45136160300E+02  0.00000000000E+00 0. -1.
      99926    2    1    2    0    0  0.17763568394E-14  0.00000000000E+00  0.10940602209E+04  0.11843325415E+04  0.45351494121E+03 0.  0.
      99925    2    3    3    0    0  0.14866312798E+02 -0.45469824754E+02  0.42372691589E+03  0.50075170493E+03  0.26252477697E+03 0.  0.
         25    1    4    4    0    0 -0.17991071719E+02 -0.98525504213E+01  0.15361894635E+03  0.19916586101E+03  0.12509000000E+03 0.  0.
         25    1    3    3    0    0 -0.14866312798E+02  0.45469824754E+02  0.67033330501E+03  0.68358083657E+03  0.12509000000E+03 0.  0.
         25    1    4    4    0    0  0.32857384517E+02 -0.35617274333E+02  0.27010796953E+03  0.30158584392E+03  0.12509000000E+03 0.  0.
<mgrwt>
<rscale>  2 0.45351494E+03</rscale>
<asrwt>0</asrwt>
<pdfrwt beam="1">  1       21 0.16752886E+00 0.45351494E+03</pdfrwt>
<pdfrwt beam="2">  1       21 0.66376713E-02 0.45351494E+03</pdfrwt>
<totfact> 0.33037101E+04</totfact>
</mgrwt>
</event>
<event>
 7    0  0.4707675E-002  0.4448322E+03  0.7546771E-02  0.1029274E+00
         21   -1    0    0  502  501  0.00000000000E+00  0.00000000000E+00  0.13933557425E+04  0.13933557425E+04  0.00000000000E+00 0. -1.
         21   -1    0    0  501  502 -0.00000000000E+00 -0.00000000000E+00 -0.35503445177E+02  0.35503445177E+02  0.00000000000E+00 0. -1.
      99926    2    1    2    0    0 -0.71054273576E-14 -0.17763568394E-14  0.13578522974E+04  0.14288591877E+04  0.44483223452E+03 0.  0.
      99925    2    3    3    0    0  0.40453170192E+02 -0.43820823063E+01  0.11677359619E+04  0.11976722704E+04  0.26297514898E+03 0.  0.
         25    1    4    4    0    0  0.10494649881E+02 -0.40334692762E+02  0.53683352787E+03  0.55278817812E+03  0.12509000000E+03 0.  0.
         25    1    4    4    0    0  0.29958520311E+02  0.35952610456E+02  0.63090243399E+03  0.64488409226E+03  0.12509000000E+03 0.  0.
         25    1    3    3    0    0 -0.40453170192E+02  0.43820823063E+01  0.19011633549E+03  0.23118691733E+03  0.12509000000E+03 0.  0.
<mgrwt>
<rscale>  2 0.44483223E+03</rscale>
<asrwt>0</asrwt>
<pdfrwt beam="1">  1       21 0.20490522E+00 0.44483223E+03</pdfrwt>
<pdfrwt beam="2">  1       21 0.52210958E-02 0.44483223E+03</pdfrwt>
<totfact> 0.27697554E+04</totfact>
</mgrwt>
</event>
<event>
 7    0  0.4707675E-002  0.4511634E+03  0.7546771E-02  0.1027376E+00
         21   -1    0    0  502  501  0.00000000000E+00  0.00000000000E+00  0.28203728138E+03  0.28203728138E+03  0.00000000000E+00 0. -1.
         21   -1    0    0  501  502 -0.00000000000E+00 -0.00000000000E+00 -0.18042683892E+03  0.18042683892E+03  0.00000000000E+00 0. -1.
      99926    2    1    2    0    0  0.00000000000E+00  0.00000000000E+00  0.10161044246E+03  0.46246412030E+03  0.45116336348E+03 0.  0.
      99925    2    3    3    0    0  0.27736164097E+02  0.10531322111E+03  0.75859351207E+02  0.29462253981E+03  0.26303541674E+03 0.  0.
         25    1    3    3    0    0 -0.27736164097E+02 -0.10531322111E+03  0.25751091255E+02  0.16784158049E+03  0.12509000000E+03 0.  0.
         25    1    4    4    0    0  0.42831529170E+02  0.53374561398E+02  0.68378763431E+02  0.15813458535E+03  0.12509000000E+03 0.  0.
         25    1    4    4    0    0 -0.15095365073E+02  0.51938659713E+02  0.74805877754E+01  0.13648795446E+03  0.12509000000E+03 0.  0.
<mgrwt>
<rscale>  2 0.45116336E+03</rscale>
<asrwt>0</asrwt>
<pdfrwt beam="1">  1       21 0.41476071E-01 0.45116336E+03</pdfrwt>
<pdfrwt beam="2">  1       21 0.26533359E-01 0.45116336E+03</pdfrwt>
<totfact> 0.70110155E+04</totfact>
</mgrwt>
</event>
<event>
 7    0  0.4707675E-002  0.4600729E+03  0.7546771E-02  0.1024760E+00
         21   -1    0    0  502  501  0.00000000000E+00  0.00000000000E+00  0.53112393442E+03  0.53112393442E+03  0.00000000000E+00 0. -1.
         21   -1    0    0  501  502 -0.00000000000E+00 -0.00000000000E+00 -0.99631658472E+02  0.99631658472E+02  0.00000000000E+00 0. -1.
      99926    2    1    2    0    0  0.00000000000E+00 -0.35527136788E-14  0.43149227595E+03  0.63075559289E+03  0.46007285702E+03 0.  0.
      99925    2    3    3    0    0  0.39636244566E+02 -0.23561742392E+02  0.12173918725E+03  0.29353063586E+03  0.26308480931E+03 0.  0.
         25    1    4    4    0    0  0.54413648850E+02  0.47432715582E+01  0.47022269404E+02  0.14436739842E+03  0.12509000000E+03 0.  0.
         25    1    4    4    0    0 -0.14777404284E+02 -0.28305013950E+02  0.74716917851E+02  0.14916323745E+03  0.12509000000E+03 0.  0.
         25    1    3    3    0    0 -0.39636244566E+02  0.23561742392E+02  0.30975308869E+03  0.33722495703E+03  0.12509000000E+03 0.  0.
<mgrwt>
<rscale>  2 0.46007286E+03</rscale>
<asrwt>0</asrwt>
<pdfrwt beam="1">  1       21 0.78106460E-01 0.46007286E+03</pdfrwt>
<pdfrwt beam="2">  1       21 0.14651715E-01 0.46007286E+03</pdfrwt>
<totfact> 0.54604258E+04</totfact>
</mgrwt>
</event>
<event>
 7    0  0.4707675E-002  0.4533930E+03  0.7546771E-02  0.1026715E+00
         21   -1    0    0  502  501  0.00000000000E+00  0.00000000000E+00  0.15560227460E+03  0.15560227460E+03  0.00000000000E+00 0. -1.
         21   -1    0    0  501  502 -0.00000000000E+00 -0.00000000000E+00 -0.33027353380E+03  0.33027353380E+03  0.00000000000E+00 0. -1.
      99926    2    1    2    0    0  0.00000000000E+00 -0.35527136788E-14 -0.17467125920E+03  0.48587580839E+03  0.45339304405E+03 0.  0.
      99925    2    3    3    0    0  0.10243995427E+03 -0.26980036487E+02 -0.14790762276E+03  0.31978647419E+03  0.26299212461E+03 0.  0.
         25    1    4    4    0    0  0.20308358085E+02  0.15861231990E+02 -0.71913552863E+02  0.14657105879E+03  0.12509000000E+03 0.  0.
         25    1    3    3    0    0 -0.10243995427E+03  0.26980036487E+02 -0.26763636447E+02  0.16608933420E+03  0.12509000000E+03 0.  0.
         25    1    4    4    0    0  0.82131596182E+02 -0.42841268477E+02 -0.75994069892E+02  0.17321541541E+03  0.12509000000E+03 0.  0.
<mgrwt>
<rscale>  2 0.45339304E+03</rscale>
<asrwt>0</asrwt>
<pdfrwt beam="1">  1       21 0.22882687E-01 0.45339304E+03</pdfrwt>
<pdfrwt beam="2">  1       21 0.48569637E-01 0.45339304E+03</pdfrwt>
<totfact> 0.67127065E+04</totfact>
</mgrwt>
</event>
<event>
 7    0  0.4707675E-002  0.4501964E+03  0.7546771E-02  0.1027663E+00
         21   -1    0    0  502  501  0.00000000000E+00  0.00000000000E+00  0.18779789534E+03  0.18779789534E+03  0.00000000000E+00 0. -1.
         21   -1    0    0  501  502 -0.00000000000E+00 -0.00000000000E+00 -0.26980704758E+03  0.26980704758E+03  0.00000000000E+00 0. -1.
      99926    2    1    2    0    0  0.00000000000E+00  0.00000000000E+00 -0.82009152240E+02  0.45760494291E+03  0.45019638240E+03 0.  0.
      99925    2    3    3    0    0  0.36176059005E+02  0.32813387915E+02 -0.15063089032E+03  0.30680084248E+03  0.26277683717E+03 0.  0.
         25    1    4    4    0    0 -0.19395898303E+01 -0.54481194584E+01 -0.40511108508E+02  0.13161345686E+03  0.12509000000E+03 0.  0.
         25    1    4    4    0    0  0.38115648835E+02  0.38261507374E+02 -0.11011978181E+03  0.17518738562E+03  0.12509000000E+03 0.  0.
         25    1    3    3    0    0 -0.36176059005E+02 -0.32813387915E+02  0.68621738080E+02  0.15080410044E+03  0.12509000000E+03 0.  0.
<mgrwt>
<rscale>  2 0.45019638E+03</rscale>
<asrwt>0</asrwt>
<pdfrwt beam="1">  1       21 0.27617338E-01 0.45019638E+03</pdfrwt>
<pdfrwt beam="2">  1       21 0.39677507E-01 0.45019638E+03</pdfrwt>
<totfact> 0.71036701E+04</totfact>
</mgrwt>
</event>
<event>
 7    0  0.4707675E-002  0.4661365E+03  0.7546771E-02  0.1023016E+00
         21   -1    0    0  502  501  0.00000000000E+00  0.00000000000E+00  0.28486715166E+03  0.28486715166E+03  0.00000000000E+00 0. -1.
         21   -1    0    0  501  502 -0.00000000000E+00 -0.00000000000E+00 -0.19068820778E+03  0.19068820778E+03  0.00000000000E+00 0. -1.
      99926    2    1    2    0    0  0.14210854715E-13 -0.35527136788E-14  0.94178943881E+02  0.47555535944E+03  0.46613648904E+03 0.  0.
      99925    2    3    3    0    0 -0.11191032191E+03  0.16247296205E+02  0.10890626734E+03  0.30628546566E+03  0.26298729366E+03 0.  0.
         25    1    4    4    0    0 -0.42703731110E+02 -0.30727370067E+02  0.55443190994E+02  0.14659207158E+03  0.12509000000E+03 0.  0.
         25    1    3    3    0    0  0.11191032191E+03 -0.16247296205E+02 -0.14727323457E+02  0.16926989378E+03  0.12509000000E+03 0.  0.
         25    1    4    4    0    0 -0.69206590797E+02  0.46974666271E+02  0.53463076345E+02  0.15969339408E+03  0.12509000000E+03 0.  0.
<mgrwt>
<rscale>  2 0.46613649E+03</rscale>
<asrwt>0</asrwt>
<pdfrwt beam="1">  1       21 0.41892228E-01 0.46613649E+03</pdfrwt>
<pdfrwt beam="2">  1       21 0.28042383E-01 0.46613649E+03</pdfrwt>
<totfact> 0.61414341E+04</totfact>
</mgrwt>
</event>
<event>
 7    0  0.4707675E-002  0.4419050E+03  0.7546771E-02  0.1030164E+00
         21   -1    0    0  502  501  0.00000000000E+00  0.00000000000E+00  0.51528472256E+03  0.51528472256E+03  0.00000000000E+00 0. -1.
         21   -1    0    0  501  502 -0.00000000000E+00 -0.00000000000E+00 -0.94743767999E+02  0.94743767999E+02  0.00000000000E+00 0. -1.
      99926    2    1    2    0    0  0.00000000000E+00 -0.17763568394E-14  0.42054095456E+03  0.61002849056E+03  0.44190504052E+03 0.  0.
      99925    2    3    3    0    0 -0.53438454951E+02 -0.11143907587E+02  0.15159031667E+03  0.30842973581E+03  0.26300080357E+03 0.  0.
         25    1    4    4    0    0 -0.41827117540E+02  0.15375137722E+02  0.11299089594E+03  0.17435697086E+03  0.12509000000E+03 0.  0.
         25    1    4    4    0    0 -0.11611337412E+02 -0.26519045309E+02  0.38599420724E+02  0.13407276495E+03  0.12509000000E+03 0.  0.
         25    1    3    3    0    0  0.53438454951E+02  0.11143907587E+02  0.26895063790E+03  0.30159875475E+03  0.12509000000E+03 0.  0.
<mgrwt>
<rscale>  2 0.44190504E+03</rscale>
<asrwt>0</asrwt>
<pdfrwt beam="1">  1       21 0.75777164E-01 0.44190504E+03</pdfrwt>
<pdfrwt beam="2">  1       21 0.13932907E-01 0.44190504E+03</pdfrwt>
<totfact> 0.64479917E+04</totfact>
</mgrwt>
</event>
<event>
 7    0  0.4707675E-002  0.4571766E+03  0.7546771E-02  0.1025603E+00
         21   -1    0    0  502  501  0.00000000000E+00  0.00000000000E+00  0.60694774518E+03  0.60694774518E+03  0.00000000000E+00 0. -1.
         21   -1    0    0  501  502 -0.00000000000E+00 -0.00000000000E+00 -0.86090798847E+02  0.86090798847E+02  0.00000000000E+00 0. -1.
      99926    2    1    2    0    0  0.14210854715E-13 -0.71054273576E-14  0.52085694633E+03  0.69303854403E+03  0.45717662338E+03 0.  0.
      99925    2    3    3    0    0  0.84356661722E+02 -0.45009134766E+02  0.22968829459E+03  0.36202712361E+03  0.26299250363E+03 0.  0.
         25    1    4    4    0    0  0.16015023849E+02 -0.48683274704E+02  0.89893190642E+02  0.16234172615E+03  0.12509000000E+03 0.  0.
         25    1    4    4    0    0  0.68341637873E+02  0.36741399380E+01  0.13979510394E+03  0.19968539746E+03  0.12509000000E+03 0.  0.
         25    1    3    3    0    0 -0.84356661722E+02  0.45009134766E+02  0.29116865175E+03  0.33101142042E+03  0.12509000000E+03 0.  0.
<mgrwt>
<rscale>  2 0.45717662E+03</rscale>
<asrwt>0</asrwt>
<pdfrwt beam="1">  1       21 0.89257020E-01 0.45717662E+03</pdfrwt>
<pdfrwt beam="2">  1       21 0.12660412E-01 0.45717662E+03</pdfrwt>
<totfact> 0.52379405E+04</totfact>
</mgrwt>
</event>
<event>
 7    0  0.4707675E-002  0.4568915E+03  0.7546771E-02  0.1025687E+00
         21   -1    0    0  502  501  0.00000000000E+00  0.00000000000E+00  0.12499492213E+03  0.12499492213E+03  0.00000000000E+00 0.  1.
         21   -1    0    0  501  502 -0.00000000000E+00 -0.00000000000E+00 -0.41751673202E+03  0.41751673202E+03  0.00000000000E+00 0.  1.
      99926    2    1    2    0    0 -0.14210854715E-13  0.00000000000E+00 -0.29252180988E+03  0.54251165415E+03  0.45689154690E+03 0.  0.
      99925    2    3    3    0    0  0.93400674186E+02 -0.58379304584E+02 -0.14454314820E+03  0.31962822822E+03  0.26294039903E+03 0.  0.
         25    1    4    4    0    0  0.56134326177E+02 -0.53818948003E+02 -0.11198360176E+03  0.18502804356E+03  0.12509000000E+03 0.  0.
         25    1    3    3    0    0 -0.93400674186E+02  0.58379304584E+02 -0.14797866168E+03  0.22288342593E+03  0.12509000000E+03 0.  0.
         25    1    4    4    0    0  0.37266348009E+02 -0.45603565817E+01 -0.32559546438E+02  0.13460018466E+03  0.12509000000E+03 0.  0.
<mgrwt>
<rscale>  2 0.45689155E+03</rscale>
<asrwt>0</asrwt>
<pdfrwt beam="1">  1       21 0.18381607E-01 0.45689155E+03</pdfrwt>
<pdfrwt beam="2">  1       21 0.61399518E-01 0.45689155E+03</pdfrwt>
<totfact> 0.61439236E+04</totfact>
</mgrwt>
</event>
<event>
 7    0  0.4707675E-002  0.4556682E+03  0.7546771E-02  0.1026045E+00
         21   -1    0    0  502  501  0.00000000000E+00  0.00000000000E+00  0.50911467579E+02  0.50911467579E+02  0.00000000000E+00 0.  1.
         21   -1    0    0  501  502 -0.00000000000E+00 -0.00000000000E+00 -0.10195814003E+04  0.10195814003E+04  0.00000000000E+00 0.  1.
      99926    2    1    2    0    0  0.71054273576E-14  0.00000000000E+00 -0.96866993276E+03  0.10704928679E+04  0.45566823636E+03 0.  0.
      99925    2    3    3    0    0  0.43567914948E+02  0.52831081222E+02 -0.39469201468E+03  0.47906455874E+03  0.26273899336E+03 0.  0.
         25    1    3    3    0    0 -0.43567914948E+02 -0.52831081222E+02 -0.57397791808E+03  0.59142830918E+03  0.12509000000E+03 0.  0.
         25    1    4    4    0    0 -0.13564834637E+01 -0.51970821797E+01 -0.20620730124E+03  0.24124222038E+03  0.12509000000E+03 0.  0.
         25    1    4    4    0    0  0.44924398412E+02  0.58028163402E+02 -0.18848471344E+03  0.23782233836E+03  0.12509000000E+03 0.  0.
<mgrwt>
<rscale>  2 0.45566824E+03</rscale>
<asrwt>0</asrwt>
<pdfrwt beam="1">  1       21 0.74869809E-02 0.45566824E+03</pdfrwt>
<pdfrwt beam="2">  1       21 0.14993843E+00 0.45566824E+03</pdfrwt>
<totfact> 0.36344429E+04</totfact>
</mgrwt>
</event>
<event>
 7    0  0.4707675E-002  0.4410028E+03  0.7546771E-02  0.1030440E+00
         21   -1    0    0  502  501  0.00000000000E+00  0.00000000000E+00  0.23014352270E+03  0.23014352270E+03  0.00000000000E+00 0. -1.
         21   -1    0    0  501  502 -0.00000000000E+00 -0.00000000000E+00 -0.21126328464E+03  0.21126328464E+03  0.00000000000E+00 0. -1.
      99926    2    1    2    0    0 -0.71054273576E-14 -0.13322676296E-14  0.18880238055E+02  0.44140680734E+03  0.44100284146E+03 0.  0.
      99925    2    3    3    0    0  0.50928366406E+02 -0.24743527325E+01 -0.73484707049E+02  0.27776508860E+03  0.26297076140E+03 0.  0.
         25    1    3    3    0    0 -0.50928366406E+02  0.24743527325E+01  0.92364945104E+02  0.16364171873E+03  0.12509000000E+03 0.  0.
         25    1    4    4    0    0  0.35545868846E+02  0.36873215320E+02 -0.46970799927E+02  0.14309754347E+03  0.12509000000E+03 0.  0.
         25    1    4    4    0    0  0.15382497560E+02 -0.39347568052E+02 -0.26513907122E+02  0.13466754514E+03  0.12509000000E+03 0.  0.
<mgrwt>
<rscale>  2 0.44100284E+03</rscale>
<asrwt>0</asrwt>
<pdfrwt beam="1">  1       21 0.33844636E-01 0.44100284E+03</pdfrwt>
<pdfrwt beam="2">  1       21 0.31068130E-01 0.44100284E+03</pdfrwt>
<totfact> 0.77896134E+04</totfact>
</mgrwt>
</event>
<event>
 7    0  0.4707675E-002  0.4586834E+03  0.7546771E-02  0.1025164E+00
         21   -1    0    0  502  501  0.00000000000E+00  0.00000000000E+00  0.13199077787E+03  0.13199077787E+03  0.00000000000E+00 0. -1.
         21   -1    0    0  501  502 -0.00000000000E+00 -0.00000000000E+00 -0.39849464709E+03  0.39849464709E+03  0.00000000000E+00 0. -1.
      99926    2    1    2    0    0  0.00000000000E+00  0.00000000000E+00 -0.26650386922E+03  0.53048542496E+03  0.45868341346E+03 0.  0.
      99925    2    3    3    0    0  0.57302378844E+02  0.24106049690E+02 -0.53043686401E+02  0.27538265743E+03  0.26297777680E+03 0.  0.
         25    1    4    4    0    0 -0.34636757826E+01  0.10329763015E+02  0.94598667721E+00  0.12556712963E+03  0.12509000000E+03 0.  0.
         25    1    4    4    0    0  0.60766054627E+02  0.13776286675E+02 -0.53989673078E+02  0.14981552780E+03  0.12509000000E+03 0.  0.
         25    1    3    3    0    0 -0.57302378844E+02 -0.24106049690E+02 -0.21346018282E+03  0.25510276753E+03  0.12509000000E+03 0.  0.
<mgrwt>
<rscale>  2 0.45868341E+03</rscale>
<asrwt>0</asrwt>
<pdfrwt beam="1">  1       21 0.19410409E-01 0.45868341E+03</pdfrwt>
<pdfrwt beam="2">  1       21 0.58602153E-01 0.45868341E+03</pdfrwt>
<totfact> 0.61362467E+04</totfact>
</mgrwt>
</event>
<event>
 7    0  0.4707675E-002  0.4565293E+03  0.7546771E-02  0.1025793E+00
         21   -1    0    0  502  501  0.00000000000E+00  0.00000000000E+00  0.11113036368E+04  0.11113036368E+04  0.00000000000E+00 0.  1.
         21   -1    0    0  501  502 -0.00000000000E+00 -0.00000000000E+00 -0.46886151653E+02  0.46886151653E+02  0.00000000000E+00 0.  1.
      99926    2    1    2    0    0  0.14210854715E-13  0.44408920985E-15  0.10644174852E+04  0.11581897885E+04  0.45652930180E+03 0.  0.
      99925    2    3    3    0    0  0.11248694670E+03 -0.96475262334E+00  0.72419470313E+03  0.77864625547E+03  0.26301668996E+03 0.  0.
         25    1    4    4    0    0  0.83962173673E+02  0.53434461068E+01  0.47411100310E+03  0.49750070390E+03  0.12509000000E+03 0.  0.
         25    1    4    4    0    0  0.28524773027E+02 -0.63081987302E+01  0.25008370003E+03  0.28114555157E+03  0.12509000000E+03 0.  0.
         25    1    3    3    0    0 -0.11248694670E+03  0.96475262334E+00  0.34022278205E+03  0.37954353301E+03  0.12509000000E+03 0.  0.
<mgrwt>
<rscale>  2 0.45652930E+03</rscale>
<asrwt>0</asrwt>
<pdfrwt beam="1">  1       21 0.16342699E+00 0.45652930E+03</pdfrwt>
<pdfrwt beam="2">  1       21 0.68950230E-02 0.45652930E+03</pdfrwt>
<totfact> 0.33113693E+04</totfact>
</mgrwt>
</event>
<event>
 7    0  0.4707675E-002  0.4564335E+03  0.7546771E-02  0.1025821E+00
         21   -1    0    0  502  501  0.00000000000E+00  0.00000000000E+00  0.79891622522E+03  0.79891622522E+03  0.00000000000E+00 0. -1.
         21   -1    0    0  501  502 -0.00000000000E+00 -0.00000000000E+00 -0.65191931041E+02  0.65191931041E+02  0.00000000000E+00 0. -1.
      99926    2    1    2    0    0  0.00000000000E+00  0.14210854715E-13  0.73372429417E+03  0.86410815626E+03  0.45643352840E+03 0.  0.
      99925    2    3    3    0    0 -0.23016613218E+02 -0.10349898112E+03  0.38031641239E+03  0.47451036034E+03  0.26320658229E+03 0.  0.
         25    1    4    4    0    0 -0.34992845831E+02 -0.60509089516E+02  0.14230187573E+03  0.20194846152E+03  0.12509000000E+03 0.  0.
         25    1    4    4    0    0  0.11976232613E+02 -0.42989891602E+02  0.23801453665E+03  0.27256189882E+03  0.12509000000E+03 0.  0.
         25    1    3    3    0    0  0.23016613218E+02  0.10349898112E+03  0.35340788179E+03  0.38959779592E+03  0.12509000000E+03 0.  0.
<mgrwt>
<rscale>  2 0.45643353E+03</rscale>
<asrwt>0</asrwt>
<pdfrwt beam="1">  1       21 0.11748767E+00 0.45643353E+03</pdfrwt>
<pdfrwt beam="2">  1       21 0.95870492E-02 0.45643353E+03</pdfrwt>
<totfact> 0.44314302E+04</totfact>
</mgrwt>
</event>
<event>
 7    0  0.4707675E-002  0.4600520E+03  0.7546771E-02  0.1024766E+00
         21   -1    0    0  502  501  0.00000000000E+00  0.00000000000E+00  0.11818738421E+04  0.11818738421E+04  0.00000000000E+00 0. -1.
         21   -1    0    0  501  502 -0.00000000000E+00 -0.00000000000E+00 -0.44769558956E+02  0.44769558956E+02  0.00000000000E+00 0. -1.
      99926    2    1    2    0    0  0.00000000000E+00  0.71054273576E-14  0.11371042831E+04  0.12266434010E+04  0.46005204337E+03 0.  0.
      99925    2    3    3    0    0 -0.80423877683E+02 -0.39580385748E+02  0.91607072720E+03  0.95731470226E+03  0.26311832871E+03 0.  0.
         25    1    3    3    0    0  0.80423877683E+02  0.39580385748E+02  0.22103355593E+03  0.26932869878E+03  0.12509000000E+03 0.  0.
         25    1    4    4    0    0 -0.43660946830E+02 -0.21550776359E+02  0.32238778397E+03  0.34921641656E+03  0.12509000000E+03 0.  0.
         25    1    4    4    0    0 -0.36762930853E+02 -0.18029609389E+02  0.59368294323E+03  0.60809828571E+03  0.12509000000E+03 0.  0.
<mgrwt>
<rscale>  2 0.46005204E+03</rscale>
<asrwt>0</asrwt>
<pdfrwt beam="1">  1       21 0.17380496E+00 0.46005204E+03</pdfrwt>
<pdfrwt beam="2">  1       21 0.65837594E-02 0.46005204E+03</pdfrwt>
<totfact> 0.30119411E+04</totfact>
</mgrwt>
</event>
<event>
 7    0  0.4707675E-002  0.4474289E+03  0.7546771E-02  0.1028492E+00
         21   -1    0    0  502  501  0.00000000000E+00  0.00000000000E+00  0.21010783982E+03  0.21010783982E+03  0.00000000000E+00 0.  1.
         21   -1    0    0  501  502 -0.00000000000E+00 -0.00000000000E+00 -0.23820225534E+03  0.23820225534E+03  0.00000000000E+00 0.  1.
      99926    2    1    2    0    0  0.00000000000E+00  0.00000000000E+00 -0.28094415520E+02  0.44831009516E+03  0.44742892758E+03 0.  0.
      99925    2    3    3    0    0  0.46605118628E+02 -0.87642274647E+02 -0.53838075129E+02  0.28655889888E+03  0.26337095285E+03 0.  0.
         25    1    4    4    0    0  0.14705062145E+02 -0.75077911427E+02 -0.55669871418E+02  0.15684251439E+03  0.12509000000E+03 0.  0.
         25    1    4    4    0    0  0.31900056484E+02 -0.12564363220E+02  0.18317962889E+01  0.12971638449E+03  0.12509000000E+03 0.  0.
         25    1    3    3    0    0 -0.46605118628E+02  0.87642274647E+02  0.25743659610E+02  0.16175119628E+03  0.12509000000E+03 0.  0.
<mgrwt>
<rscale>  2 0.44742893E+03</rscale>
<asrwt>0</asrwt>
<pdfrwt beam="1">  1       21 0.30898212E-01 0.44742893E+03</pdfrwt>
<pdfrwt beam="2">  1       21 0.35029743E-01 0.44742893E+03</pdfrwt>
<totfact> 0.73371811E+04</totfact>
</mgrwt>
</event>
<event>
 7    0  0.4707675E-002  0.4569746E+03  0.7546771E-02  0.1025662E+00
         21   -1    0    0  502  501  0.00000000000E+00  0.00000000000E+00  0.32055591671E+03  0.32055591671E+03  0.00000000000E+00 0. -1.
         21   -1    0    0  501  502 -0.00000000000E+00 -0.00000000000E+00 -0.16286219037E+03  0.16286219037E+03  0.00000000000E+00 0. -1.
      99926    2    1    2    0    0  0.00000000000E+00 -0.14210854715E-13  0.15769372634E+03  0.48341810707E+03  0.45697456704E+03 0.  0.
      99925    2    3    3    0    0 -0.16073219665E+02 -0.10112527463E+03  0.15428644517E+03  0.32172770159E+03  0.26309644097E+03 0.  0.
         25    1    3    3    0    0  0.16073219665E+02  0.10112527463E+03  0.34072811732E+01  0.16169040548E+03  0.12509000000E+03 0.  0.
         25    1    4    4    0    0 -0.31393970350E+02 -0.81250462247E+02  0.63429611719E+02  0.16510009913E+03  0.12509000000E+03 0.  0.
         25    1    4    4    0    0  0.15320750685E+02 -0.19874812382E+02  0.90856833449E+02  0.15662760246E+03  0.12509000000E+03 0.  0.
<mgrwt>
<rscale>  2 0.45697457E+03</rscale>
<asrwt>0</asrwt>
<pdfrwt beam="1">  1       21 0.47140576E-01 0.45697457E+03</pdfrwt>
<pdfrwt beam="2">  1       21 0.23950322E-01 0.45697457E+03</pdfrwt>
<totfact> 0.65420686E+04</totfact>
</mgrwt>
</event>
<event>
 7    0  0.4707675E-002  0.4534975E+03  0.7546771E-02  0.1026684E+00
         21   -1    0    0  502  501  0.00000000000E+00  0.00000000000E+00  0.53696442324E+03  0.53696442324E+03  0.00000000000E+00 0.  1.
         21   -1    0    0  501  502 -0.00000000000E+00 -0.00000000000E+00 -0.95751234432E+02  0.95751234432E+02  0.00000000000E+00 0.  1.
      99926    2    1    2    0    0  0.00000000000E+00  0.00000000000E+00  0.44121318881E+03  0.63271565768E+03  0.45349754739E+03 0.  0.
      99925    2    3    3    0    0  0.42737502480E+02 -0.10180133886E+03  0.25429117450E+03  0.38216156322E+03  0.26304648309E+03 0.  0.
         25    1    3    3    0    0 -0.42737502480E+02  0.10180133886E+03  0.18692201431E+03  0.25055409445E+03  0.12509000000E+03 0.  0.
         25    1    4    4    0    0 -0.11632419991E+02 -0.23844483718E+02  0.12290337885E+03  0.17736014556E+03  0.12509000000E+03 0.  0.
         25    1    4    4    0    0  0.54369922471E+02 -0.77956855143E+02  0.13138779565E+03  0.20480141767E+03  0.12509000000E+03 0.  0.
<mgrwt>
<rscale>  2 0.45349755E+03</rscale>
<asrwt>0</asrwt>
<pdfrwt beam="1">  1       21 0.78965355E-01 0.45349755E+03</pdfrwt>
<pdfrwt beam="2">  1       21 0.14081064E-01 0.45349755E+03</pdfrwt>
<totfact> 0.57385929E+04</totfact>
</mgrwt>
</event>
<event>
 7    0  0.4707675E-002  0.4558645E+03  0.7546771E-02  0.1025987E+00
         21   -1    0    0  502  501  0.00000000000E+00  0.00000000000E+00  0.28365128408E+02  0.28365128408E+02  0.00000000000E+00 0. -1.
         21   -1    0    0  501  502 -0.00000000000E+00 -0.00000000000E+00 -0.18315835886E+04  0.18315835886E+04  0.00000000000E+00 0. -1.
      99926    2    1    2    0    0  0.00000000000E+00  0.00000000000E+00 -0.18032184602E+04  0.18599487170E+04  0.45586446969E+03 0.  0.
      99925    2    3    3    0    0  0.52713497225E+02  0.82670073583E+02 -0.13719115551E+04  0.14002899215E+04  0.26278792825E+03 0.  0.
         25    1    4    4    0    0  0.23922121114E+02  0.58489387246E+02 -0.89105215948E+03  0.90200595082E+03  0.12509000000E+03 0.  0.
         25    1    4    4    0    0  0.28791376111E+02  0.24180686337E+02 -0.48085939566E+03  0.49828397067E+03  0.12509000000E+03 0.  0.
         25    1    3    3    0    0 -0.52713497225E+02 -0.82670073583E+02 -0.43130690509E+03  0.45965879555E+03  0.12509000000E+03 0.  0.
<mgrwt>
<rscale>  2 0.45586447E+03</rscale>
<asrwt>0</asrwt>
<pdfrwt beam="1">  1       21 0.41713416E-02 0.45586447E+03</pdfrwt>
<pdfrwt beam="2">  1       21 0.26935058E+00 0.45586447E+03</pdfrwt>
<totfact> 0.16026414E+04</totfact>
</mgrwt>
</event>
<event>
 7    0  0.4707675E-002  0.4552212E+03  0.7546771E-02  0.1026176E+00
         21   -1    0    0  502  501  0.00000000000E+00  0.00000000000E+00  0.26463258748E+03  0.26463258748E+03  0.00000000000E+00 0.  1.
         21   -1    0    0  501  502 -0.00000000000E+00 -0.00000000000E+00 -0.19576801438E+03  0.19576801438E+03  0.00000000000E+00 0.  1.
      99926    2    1    2    0    0  0.71054273576E-14  0.00000000000E+00  0.68864573100E+02  0.46040060187E+03  0.45522124815E+03 0.  0.
      99925    2    3    3    0    0 -0.39973480242E+02 -0.99082714090E+02  0.81734809169E+02  0.29539025543E+03  0.26298205380E+03 0.  0.
         25    1    4    4    0    0 -0.50587544167E+02 -0.41592467076E+02  0.67740964668E+02  0.15660580876E+03  0.12509000000E+03 0.  0.
         25    1    4    4    0    0  0.10614063925E+02 -0.57490247014E+02  0.13993844501E+02  0.13878444667E+03  0.12509000000E+03 0.  0.
         25    1    3    3    0    0  0.39973480242E+02  0.99082714090E+02 -0.12870236069E+02  0.16501034643E+03  0.12509000000E+03 0.  0.
<mgrwt>
<rscale>  2 0.45522125E+03</rscale>
<asrwt>0</asrwt>
<pdfrwt beam="1">  1       21 0.38916557E-01 0.45522125E+03</pdfrwt>
<pdfrwt beam="2">  1       21 0.28789414E-01 0.45522125E+03</pdfrwt>
<totfact> 0.68031269E+04</totfact>
</mgrwt>
</event>
<event>
 7    0  0.4707675E-002  0.4568972E+03  0.7546771E-02  0.1025685E+00
         21   -1    0    0  502  501  0.00000000000E+00  0.00000000000E+00  0.92015499573E+02  0.92015499573E+02  0.00000000000E+00 0.  1.
         21   -1    0    0  501  502 -0.00000000000E+00 -0.00000000000E+00 -0.56717355242E+03  0.56717355242E+03  0.00000000000E+00 0.  1.
      99926    2    1    2    0    0  0.35527136788E-14 -0.14210854715E-13 -0.47515805285E+03  0.65918905199E+03  0.45689717780E+03 0.  0.
      99925    2    3    3    0    0 -0.21710183879E+02  0.11270712427E+03 -0.29107156899E+03  0.40877026359E+03  0.26305178611E+03 0.  0.
         25    1    4    4    0    0 -0.41932585001E+02  0.84563807196E+02 -0.14721640631E+03  0.21501059871E+03  0.12509000000E+03 0.  0.
         25    1    3    3    0    0  0.21710183879E+02 -0.11270712427E+03 -0.18408648386E+03  0.25041878840E+03  0.12509000000E+03 0.  0.
         25    1    4    4    0    0  0.20222401123E+02  0.28143317078E+02 -0.14385516269E+03  0.19375966488E+03  0.12509000000E+03 0.  0.
<mgrwt>
<rscale>  2 0.45689718E+03</rscale>
<asrwt>0</asrwt>
<pdfrwt beam="1">  1       21 0.13531691E-01 0.45689718E+03</pdfrwt>
<pdfrwt beam="2">  1       21 0.83407877E-01 0.45689718E+03</pdfrwt>
<totfact> 0.54357053E+04</totfact>
</mgrwt>
</event>
<event>
 7    0  0.4707675E-002  0.4550872E+03  0.7546771E-02  0.1026216E+00
         21   -1    0    0  502  501  0.00000000000E+00  0.00000000000E+00  0.80164247632E+03  0.80164247632E+03  0.00000000000E+00 0.  1.
         21   -1    0    0  501  502 -0.00000000000E+00 -0.00000000000E+00 -0.64587512669E+02  0.64587512669E+02  0.00000000000E+00 0.  1.
      99926    2    1    2    0    0  0.00000000000E+00  0.71054273576E-14  0.73705496365E+03  0.86622998898E+03  0.45508721623E+03 0.  0.
      99925    2    3    3    0    0 -0.77115332076E+02 -0.60347407746E+02  0.57202866495E+03  0.63716717790E+03  0.26301451481E+03 0.  0.
         25    1    4    4    0    0 -0.32514679490E+02 -0.22291267877E+02  0.18952638494E+03  0.23048180773E+03  0.12509000000E+03 0.  0.
         25    1    4    4    0    0 -0.44600652585E+02 -0.38056139869E+02  0.38250228002E+03  0.40668537017E+03  0.12509000000E+03 0.  0.
         25    1    3    3    0    0  0.77115332076E+02  0.60347407746E+02  0.16502629869E+03  0.22906281109E+03  0.12509000000E+03 0.  0.
<mgrwt>
<rscale>  2 0.45508722E+03</rscale>
<asrwt>0</asrwt>
<pdfrwt beam="1">  1       21 0.11788859E+00 0.45508722E+03</pdfrwt>
<pdfrwt beam="2">  1       21 0.94981641E-02 0.45508722E+03</pdfrwt>
<totfact> 0.44691175E+04</totfact>
</mgrwt>
</event>
<event>
 7    0  0.4707675E-002  0.4644083E+03  0.7546771E-02  0.1023510E+00
         21   -1    0    0  502  501  0.00000000000E+00  0.00000000000E+00  0.87215378218E+03  0.87215378218E+03  0.00000000000E+00 0. -1.
         21   -1    0    0  501  502 -0.00000000000E+00 -0.00000000000E+00 -0.61822545105E+02  0.61822545105E+02  0.00000000000E+00 0. -1.
      99926    2    1    2    0    0  0.35527136788E-14  0.00000000000E+00  0.81033123707E+03  0.93397632728E+03  0.46440829681E+03 0.  0.
      99925    2    3    3    0    0 -0.18624347699E+02 -0.11246733648E+03  0.59207713577E+03  0.65779137306E+03  0.26294179521E+03 0.  0.
         25    1    3    3    0    0  0.18624347699E+02  0.11246733648E+03  0.21825410130E+03  0.27618495422E+03  0.12509000000E+03 0.  0.
         25    1    4    4    0    0 -0.16653364894E+02 -0.23824522105E+02  0.33071949564E+03  0.35477857223E+03  0.12509000000E+03 0.  0.
         25    1    4    4    0    0 -0.19709828054E+01 -0.88642814379E+02  0.26135764013E+03  0.30301280083E+03  0.12509000000E+03 0.  0.
<mgrwt>
<rscale>  2 0.46440830E+03</rscale>
<asrwt>0</asrwt>
<pdfrwt beam="1">  1       21 0.12825790E+00 0.46440830E+03</pdfrwt>
<pdfrwt beam="2">  1       21 0.90915513E-02 0.46440830E+03</pdfrwt>
<totfact> 0.38856545E+04</totfact>
</mgrwt>
</event>
<event>
 7    0  0.4707675E-002  0.4554961E+03  0.7546771E-02  0.1026096E+00
         21   -1    0    0  502  501  0.00000000000E+00  0.00000000000E+00  0.59209292776E+03  0.59209292776E+03  0.00000000000E+00 0.  1.
         21   -1    0    0  501  502 -0.00000000000E+00 -0.00000000000E+00 -0.87603092357E+02  0.87603092357E+02  0.00000000000E+00 0.  1.
      99926    2    1    2    0    0 -0.14210854715E-13 -0.14210854715E-13  0.50448983540E+03  0.67969602012E+03  0.45549608751E+03 0.  0.
      99925    2    3    3    0    0  0.70278851182E+02  0.83322076891E+02  0.36546050782E+03  0.46322813000E+03  0.26293959807E+03 0.  0.
         25    1    4    4    0    0  0.84484705417E+01  0.24374169404E+02  0.12286837537E+03  0.17722760099E+03  0.12509000000E+03 0.  0.
         25    1    4    4    0    0  0.61830380640E+02  0.58947907488E+02  0.24259213245E+03  0.28600052901E+03  0.12509000000E+03 0.  0.
         25    1    3    3    0    0 -0.70278851182E+02 -0.83322076891E+02  0.13902932759E+03  0.21646789011E+03  0.12509000000E+03 0.  0.
<mgrwt>
<rscale>  2 0.45549609E+03</rscale>
<asrwt>0</asrwt>
<pdfrwt beam="1">  1       21 0.87072487E-01 0.45549609E+03</pdfrwt>
<pdfrwt beam="2">  1       21 0.12882808E-01 0.45549609E+03</pdfrwt>
<totfact> 0.53809189E+04</totfact>
</mgrwt>
</event>
<event>
 7    0  0.4707675E-002  0.4560158E+03  0.7546771E-02  0.1025943E+00
         21   -1    0    0  502  501  0.00000000000E+00  0.00000000000E+00  0.12678649461E+04  0.12678649461E+04  0.00000000000E+00 0. -1.
         21   -1    0    0  501  502 -0.00000000000E+00 -0.00000000000E+00 -0.41004057146E+02  0.41004057146E+02  0.00000000000E+00 0. -1.
      99926    2    1    2    0    0  0.00000000000E+00  0.00000000000E+00  0.12268608889E+04  0.13088690032E+04  0.45601581859E+03 0.  0.
      99925    2    3    3    0    0 -0.10228916055E+03 -0.14760082658E+02  0.63243498851E+03  0.69269484635E+03  0.26300418830E+03 0.  0.
         25    1    3    3    0    0  0.10228916055E+03  0.14760082658E+02  0.59442590042E+03  0.61617415687E+03  0.12509000000E+03 0.  0.
         25    1    4    4    0    0 -0.86482320024E+02 -0.50350151852E+01  0.40214082636E+03  0.42996429547E+03  0.12509000000E+03 0.  0.
         25    1    4    4    0    0 -0.15806840526E+02 -0.97250674724E+01  0.23029416215E+03  0.26273055088E+03  0.12509000000E+03 0.  0.
<mgrwt>
<rscale>  2 0.45601582E+03</rscale>
<asrwt>0</asrwt>
<pdfrwt beam="1">  1       21 0.18645070E+00 0.45601582E+03</pdfrwt>
<pdfrwt beam="2">  1       21 0.60300092E-02 0.45601582E+03</pdfrwt>
<totfact> 0.28631351E+04</totfact>
</mgrwt>
</event>
<event>
 7    0  0.4707675E-002  0.4204123E+03  0.7546771E-02  0.1036932E+00
         21   -1    0    0  502  501  0.00000000000E+00  0.00000000000E+00  0.37791151957E+02  0.37791151957E+02  0.00000000000E+00 0. -1.
         21   -1    0    0  501  502 -0.00000000000E+00 -0.00000000000E+00 -0.11692322351E+04  0.11692322351E+04  0.00000000000E+00 0. -1.
      99926    2    1    2    0    0  0.00000000000E+00 -0.71054273576E-14 -0.11314410832E+04  0.12070233871E+04  0.42041233603E+03 0.  0.
      99925    2    3    3    0    0  0.60365484048E+02  0.43094984622E+02 -0.78923290589E+03  0.83519666123E+03  0.26298995004E+03 0.  0.
         25    1    4    4    0    0  0.62800730542E+02  0.42871945614E+02 -0.47214454889E+03  0.49431762929E+03  0.12509000000E+03 0.  0.
         25    1    3    3    0    0 -0.60365484048E+02 -0.43094984622E+02 -0.34220817730E+03  0.37182672587E+03  0.12509000000E+03 0.  0.
         25    1    4    4    0    0 -0.24352464941E+01  0.22303900831E+00 -0.31708835699E+03  0.34087903194E+03  0.12509000000E+03 0.  0.
<mgrwt>
<rscale>  2 0.42041234E+03</rscale>
<asrwt>0</asrwt>
<pdfrwt beam="1">  1       21 0.55575226E-02 0.42041234E+03</pdfrwt>
<pdfrwt beam="2">  1       21 0.17194591E+00 0.42041234E+03</pdfrwt>
<totfact> 0.42207002E+04</totfact>
</mgrwt>
</event>
<event>
 7    0  0.4707675E-002  0.4536911E+03  0.7546771E-02  0.1026627E+00
         21   -1    0    0  502  501  0.00000000000E+00  0.00000000000E+00  0.19822032425E+04  0.19822032425E+04  0.00000000000E+00 0.  1.
         21   -1    0    0  501  502 -0.00000000000E+00 -0.00000000000E+00 -0.25960460392E+02  0.25960460392E+02  0.00000000000E+00 0.  1.
      99926    2    1    2    0    0  0.00000000000E+00  0.00000000000E+00  0.19562427821E+04  0.20081637029E+04  0.45369112297E+03 0.  0.
      99925    2    3    3    0    0 -0.79856952962E+02  0.57991649141E+02  0.10015307337E+04  0.10402469875E+04  0.26326758310E+03 0.  0.
         25    1    4    4    0    0 -0.36469015121E+02  0.23715065514E+02  0.64341849142E+03  0.65690734248E+03  0.12509000000E+03 0.  0.
         25    1    4    4    0    0 -0.43387937840E+02  0.34276583627E+02  0.35811224223E+03  0.38333964505E+03  0.12509000000E+03 0.  0.
         25    1    3    3    0    0  0.79856952962E+02 -0.57991649141E+02  0.95471204845E+03  0.96791671535E+03  0.12509000000E+03 0.  0.
<mgrwt>
<rscale>  2 0.45369112E+03</rscale>
<asrwt>0</asrwt>
<pdfrwt beam="1">  1       21 0.29150037E+00 0.45369112E+03</pdfrwt>
<pdfrwt beam="2">  1       21 0.38177161E-02 0.45369112E+03</pdfrwt>
<totfact> 0.13715643E+04</totfact>
</mgrwt>
</event>
<event>
 7    0  0.4707675E-002  0.4550036E+03  0.7546771E-02  0.1026240E+00
         21   -1    0    0  502  501  0.00000000000E+00  0.00000000000E+00  0.32018685011E+03  0.32018685011E+03  0.00000000000E+00 0.  1.
         21   -1    0    0  501  502 -0.00000000000E+00 -0.00000000000E+00 -0.16164645132E+03  0.16164645132E+03  0.00000000000E+00 0.  1.
      99926    2    1    2    0    0  0.14210854715E-13 -0.13322676296E-14  0.15854039879E+03  0.48183330143E+03  0.45500359594E+03 0.  0.
      99925    2    3    3    0    0  0.11311635253E+03  0.20064749355E+01  0.10288277567E+03  0.30422526596E+03  0.26299964214E+03 0.  0.
         25    1    4    4    0    0  0.89042319899E+02 -0.96017048313E+01  0.82905213215E+02  0.17476129419E+03  0.12509000000E+03 0.  0.
         25    1    3    3    0    0 -0.11311635253E+03 -0.20064749355E+01  0.55657623123E+02  0.17760803547E+03  0.12509000000E+03 0.  0.
         25    1    4    4    0    0  0.24074032633E+02  0.11608179767E+02  0.19977562451E+02  0.12946397177E+03  0.12509000000E+03 0.  0.
<mgrwt>
<rscale>  2 0.45500360E+03</rscale>
<asrwt>0</asrwt>
<pdfrwt beam="1">  1       21 0.47086302E-01 0.45500360E+03</pdfrwt>
<pdfrwt beam="2">  1       21 0.23771537E-01 0.45500360E+03</pdfrwt>
<totfact> 0.66564990E+04</totfact>
</mgrwt>
</event>
<event>
 7    0  0.4707675E-002  0.4572224E+03  0.7546771E-02  0.1025590E+00
         21   -1    0    0  502  501  0.00000000000E+00  0.00000000000E+00  0.90048720998E+02  0.90048720998E+02  0.00000000000E+00 0. -1.
         21   -1    0    0  501  502 -0.00000000000E+00 -0.00000000000E+00 -0.58038664984E+03  0.58038664984E+03  0.00000000000E+00 0. -1.
      99926    2    1    2    0    0  0.71054273576E-14  0.00000000000E+00 -0.49033792884E+03  0.67043537084E+03  0.45722237698E+03 0.  0.
      99925    2    3    3    0    0 -0.35181908815E+02  0.82625965198E+02 -0.41382945525E+03  0.49848807815E+03  0.26300328741E+03 0.  0.
         25    1    4    4    0    0 -0.54069814252E+02  0.26657656093E+02 -0.18938811540E+03  0.23483939575E+03  0.12509000000E+03 0.  0.
         25    1    3    3    0    0  0.35181908815E+02 -0.82625965198E+02 -0.76508473594E+02  0.17194729269E+03  0.12509000000E+03 0.  0.
         25    1    4    4    0    0  0.18887905437E+02  0.55968309106E+02 -0.22444133985E+03  0.26364868239E+03  0.12509000000E+03 0.  0.
<mgrwt>
<rscale>  2 0.45722238E+03</rscale>
<asrwt>0</asrwt>
<pdfrwt beam="1">  1       21 0.13242459E-01 0.45722238E+03</pdfrwt>
<pdfrwt beam="2">  1       21 0.85350979E-01 0.45722238E+03</pdfrwt>
<totfact> 0.53592719E+04</totfact>
</mgrwt>
</event>
<event>
 7    0  0.4707675E-002  0.4155555E+03  0.7546771E-02  0.1038523E+00
         21   -1    0    0  502  501  0.00000000000E+00  0.00000000000E+00  0.49018090306E+02  0.49018090306E+02  0.00000000000E+00 0.  1.
         21   -1    0    0  501  502 -0.00000000000E+00 -0.00000000000E+00 -0.88072766927E+03  0.88072766927E+03  0.00000000000E+00 0.  1.
      99926    2    1    2    0    0  0.00000000000E+00 -0.26645352591E-14 -0.83170957897E+03  0.92974575958E+03  0.41555547609E+03 0.  0.
      99925    2    3    3    0    0  0.68873186602E+02 -0.25770658771E+01 -0.57555362917E+03  0.63646511614E+03  0.26282257686E+03 0.  0.
         25    1    3    3    0    0 -0.68873186602E+02  0.25770658771E+01 -0.25615594979E+03  0.29328064344E+03  0.12509000000E+03 0.  0.
         25    1    4    4    0    0  0.28388408464E+02  0.27897125652E+02 -0.34750542999E+03  0.37147231839E+03  0.12509000000E+03 0.  0.
         25    1    4    4    0    0  0.40484778138E+02 -0.30474191529E+02 -0.22804819918E+03  0.26499279775E+03  0.12509000000E+03 0.  0.
<mgrwt>
<rscale>  2 0.41555548E+03</rscale>
<asrwt>0</asrwt>
<pdfrwt beam="1">  1       21 0.72085416E-02 0.41555548E+03</pdfrwt>
<pdfrwt beam="2">  1       21 0.12951880E+00 0.41555548E+03</pdfrwt>
<totfact> 0.57866734E+04</totfact>
</mgrwt>
</event>
<event>
 7    0  0.4707675E-002  0.4582253E+03  0.7546771E-02  0.1025297E+00
         21   -1    0    0  502  501  0.00000000000E+00  0.00000000000E+00  0.10417680014E+04  0.10417680014E+04  0.00000000000E+00 0.  1.
         21   -1    0    0  501  502 -0.00000000000E+00 -0.00000000000E+00 -0.50387998368E+02  0.50387998368E+02  0.00000000000E+00 0.  1.
      99926    2    1    2    0    0  0.00000000000E+00  0.00000000000E+00  0.99138000304E+03  0.10921559998E+04  0.45822529112E+03 0.  0.
      99925    2    3    3    0    0  0.90387597049E+02 -0.67106513033E+02  0.55403467079E+03  0.62354992904E+03  0.26303402018E+03 0.  0.
         25    1    4    4    0    0  0.52518097322E+02 -0.27585040017E+02  0.19268658703E+03  0.23726507097E+03  0.12509000000E+03 0.  0.
         25    1    4    4    0    0  0.37869499727E+02 -0.39521473017E+02  0.36134808376E+03  0.38628485807E+03  0.12509000000E+03 0.  0.
         25    1    3    3    0    0 -0.90387597049E+02  0.67106513033E+02  0.43734533225E+03  0.46860607074E+03  0.12509000000E+03 0.  0.
<mgrwt>
<rscale>  2 0.45822529E+03</rscale>
<asrwt>0</asrwt>
<pdfrwt beam="1">  1       21 0.15320116E+00 0.45822529E+03</pdfrwt>
<pdfrwt beam="2">  1       21 0.74100004E-02 0.45822529E+03</pdfrwt>
<totfact> 0.34881430E+04</totfact>
</mgrwt>
</event>
<event>
 7    0  0.4707675E-002  0.4513035E+03  0.7546771E-02  0.1027334E+00
         21   -1    0    0  502  501  0.00000000000E+00  0.00000000000E+00  0.12292065711E+03  0.12292065711E+03  0.00000000000E+00 0.  1.
         21   -1    0    0  501  502 -0.00000000000E+00 -0.00000000000E+00 -0.41424055404E+03  0.41424055404E+03  0.00000000000E+00 0.  1.
      99926    2    1    2    0    0  0.00000000000E+00 -0.17763568394E-14 -0.29131989693E+03  0.53716121115E+03  0.45130353911E+03 0.  0.
      99925    2    3    3    0    0  0.74653274607E+02  0.91642527547E+01 -0.88994933691E+02  0.28768176553E+03  0.26302776480E+03 0.  0.
         25    1    4    4    0    0  0.53397402973E+02  0.40300598701E+02 -0.58996713619E+02  0.15363444021E+03  0.12509000000E+03 0.  0.
         25    1    4    4    0    0  0.21255871634E+02 -0.31136345946E+02 -0.29998220072E+02  0.13404732532E+03  0.12509000000E+03 0.  0.
         25    1    3    3    0    0 -0.74653274607E+02 -0.91642527547E+01 -0.20232496324E+03  0.24947944562E+03  0.12509000000E+03 0.  0.
<mgrwt>
<rscale>  2 0.45130354E+03</rscale>
<asrwt>0</asrwt>
<pdfrwt beam="1">  1       21 0.18076567E-01 0.45130354E+03</pdfrwt>
<pdfrwt beam="2">  1       21 0.60917728E-01 0.45130354E+03</pdfrwt>
<totfact> 0.64591991E+04</totfact>
</mgrwt>
</event>
<event>
 7    0  0.4707675E-002  0.4531373E+03  0.7546771E-02  0.1026791E+00
         21   -1    0    0  502  501  0.00000000000E+00  0.00000000000E+00  0.39274783825E+02  0.39274783825E+02  0.00000000000E+00 0. -1.
         21   -1    0    0  501  502 -0.00000000000E+00 -0.00000000000E+00 -0.13070310509E+04  0.13070310509E+04  0.00000000000E+00 0. -1.
      99926    2    1    2    0    0  0.17763568394E-14  0.53290705182E-14 -0.12677562671E+04  0.13463058348E+04  0.45313733891E+03 0.  0.
      99925    2    3    3    0    0 -0.15669257337E+02  0.13756673037E+02 -0.11252481991E+04  0.11555420300E+04  0.26202881848E+03 0.  0.
         25    1    4    4    0    0 -0.28246952736E+01  0.44719322274E+02 -0.53491511551E+03  0.55117101301E+03  0.12509000000E+03 0.  0.
         25    1    4    4    0    0 -0.12844562064E+02 -0.30962649237E+02 -0.59033308362E+03  0.60437101696E+03  0.12509000000E+03 0.  0.
         25    1    3    3    0    0  0.15669257337E+02 -0.13756673037E+02 -0.14250806799E+03  0.19076380480E+03  0.12509000000E+03 0.  0.
<mgrwt>
<rscale>  2 0.45313734E+03</rscale>
<asrwt>0</asrwt>
<pdfrwt beam="1">  1       21 0.57757041E-02 0.45313734E+03</pdfrwt>
<pdfrwt beam="2">  1       21 0.19221043E+00 0.45313734E+03</pdfrwt>
<totfact> 0.28204797E+04</totfact>
</mgrwt>
</event>
<event>
 7    0  0.4707675E-002  0.4572322E+03  0.7546771E-02  0.1025587E+00
         21   -1    0    0  502  501  0.00000000000E+00  0.00000000000E+00  0.15317628359E+03  0.15317628359E+03  0.00000000000E+00 0. -1.
         21   -1    0    0  501  502 -0.00000000000E+00 -0.00000000000E+00 -0.34121028566E+03  0.34121028566E+03  0.00000000000E+00 0. -1.
      99926    2    1    2    0    0  0.00000000000E+00  0.00000000000E+00 -0.18803400208E+03  0.49438656925E+03  0.45723221006E+03 0.  0.
      99925    2    3    3    0    0  0.35400549450E+02 -0.10937183599E+03 -0.12759170740E+03  0.31406414553E+03  0.26294723102E+03 0.  0.
         25    1    4    4    0    0  0.22760658245E+02 -0.30777092270E+02 -0.96526101002E+02  0.16257328577E+03  0.12509000000E+03 0.  0.
         25    1    4    4    0    0  0.12639891205E+02 -0.78594743718E+02 -0.31065606393E+02  0.15149085976E+03  0.12509000000E+03 0.  0.
         25    1    3    3    0    0 -0.35400549450E+02  0.10937183599E+03 -0.60442294681E+02  0.18032242372E+03  0.12509000000E+03 0.  0.
<mgrwt>
<rscale>  2 0.45723221E+03</rscale>
<asrwt>0</asrwt>
<pdfrwt beam="1">  1       21 0.22525925E-01 0.45723221E+03</pdfrwt>
<pdfrwt beam="2">  1       21 0.50177982E-01 0.45723221E+03</pdfrwt>
<totfact> 0.64515974E+04</totfact>
</mgrwt>
</event>
<event>
 7    0  0.4707675E-002  0.4550038E+03  0.7546771E-02  0.1026240E+00
         21   -1    0    0  502  501  0.00000000000E+00  0.00000000000E+00  0.15778916369E+03  0.15778916369E+03  0.00000000000E+00 0.  1.
         21   -1    0    0  501  502 -0.00000000000E+00 -0.00000000000E+00 -0.32801433050E+03  0.32801433050E+03  0.00000000000E+00 0.  1.
      99926    2    1    2    0    0  0.00000000000E+00  0.00000000000E+00 -0.17022516680E+03  0.48580349419E+03  0.45500376653E+03 0.  0.
      99925    2    3    3    0    0  0.95887013154E+02 -0.33137552786E+02 -0.53549870736E+02  0.28692400931E+03  0.26299312113E+03 0.  0.
         25    1    4    4    0    0  0.50729244998E+02  0.23982324931E+02 -0.28598869738E+02  0.14005003269E+03  0.12509000000E+03 0.  0.
         25    1    4    4    0    0  0.45157768156E+02 -0.57119877717E+02 -0.24951000998E+02  0.14687397661E+03  0.12509000000E+03 0.  0.
         25    1    3    3    0    0 -0.95887013154E+02  0.33137552786E+02 -0.11667529607E+03  0.19887948488E+03  0.12509000000E+03 0.  0.
<mgrwt>
<rscale>  2 0.45500377E+03</rscale>
<asrwt>0</asrwt>
<pdfrwt beam="1">  1       21 0.23204289E-01 0.45500377E+03</pdfrwt>
<pdfrwt beam="2">  1       21 0.48237401E-01 0.45500377E+03</pdfrwt>
<totfact> 0.66278036E+04</totfact>
</mgrwt>
</event>
<event>
 7    0  0.4707675E-002  0.3946191E+03  0.7546771E-02  0.1045659E+00
         21   -1    0    0  502  501  0.00000000000E+00  0.00000000000E+00  0.42389038932E+03  0.42389038932E+03  0.00000000000E+00 0.  1.
         21   -1    0    0  501  502 -0.00000000000E+00 -0.00000000000E+00 -0.91842285860E+02  0.91842285860E+02  0.00000000000E+00 0.  1.
      99926    2    1    2    0    0  0.00000000000E+00  0.00000000000E+00  0.33204810346E+03  0.51573267518E+03  0.39461911920E+03 0.  0.
      99925    2    3    3    0    0  0.13641008959E+02  0.77499535930E+01  0.18420285173E+03  0.32143428233E+03  0.26295088584E+03 0.  0.
         25    1    3    3    0    0 -0.13641008959E+02 -0.77499535930E+01  0.14784525172E+03  0.19429839285E+03  0.12509000000E+03 0.  0.
         25    1    4    4    0    0  0.89820730778E+01  0.46922967407E+01  0.42886632379E+02  0.13262528651E+03  0.12509000000E+03 0.  0.
         25    1    4    4    0    0  0.46589358809E+01  0.30576568523E+01  0.14131621935E+03  0.18880899582E+03  0.12509000000E+03 0.  0.
<mgrwt>
<rscale>  2 0.39461912E+03</rscale>
<asrwt>0</asrwt>
<pdfrwt beam="1">  1       21 0.62336821E-01 0.39461912E+03</pdfrwt>
<pdfrwt beam="2">  1       21 0.13506219E-01 0.39461912E+03</pdfrwt>
<totfact> 0.10681766E+05</totfact>
</mgrwt>
</event>
<event>
 7    0  0.4707675E-002  0.4420925E+03  0.7546771E-02  0.1030107E+00
         21   -1    0    0  502  501  0.00000000000E+00  0.00000000000E+00  0.85478689492E+03  0.85478689492E+03  0.00000000000E+00 0. -1.
         21   -1    0    0  501  502 -0.00000000000E+00 -0.00000000000E+00 -0.57162127775E+02  0.57162127775E+02  0.00000000000E+00 0. -1.
      99926    2    1    2    0    0  0.00000000000E+00  0.00000000000E+00  0.79762476715E+03  0.91194902269E+03  0.44209246864E+03 0.  0.
      99925    2    3    3    0    0  0.23423940773E+02 -0.60993573280E+02  0.35091927717E+03  0.44348109438E+03  0.26317721216E+03 0.  0.
         25    1    3    3    0    0 -0.23423940773E+02  0.60993573280E+02  0.44670548998E+03  0.46846792832E+03  0.12509000000E+03 0.  0.
         25    1    4    4    0    0  0.30725937823E+02 -0.29482950599E+01  0.13057701971E+03  0.18344111282E+03  0.12509000000E+03 0.  0.
         25    1    4    4    0    0 -0.73019970498E+01 -0.58045278220E+02  0.22034225746E+03  0.26003998155E+03  0.12509000000E+03 0.  0.
<mgrwt>
<rscale>  2 0.44209247E+03</rscale>
<asrwt>0</asrwt>
<pdfrwt beam="1">  1       21 0.12570395E+00 0.44209247E+03</pdfrwt>
<pdfrwt beam="2">  1       21 0.84061958E-02 0.44209247E+03</pdfrwt>
<totfact> 0.47322043E+04</totfact>
</mgrwt>
</event>
<event>
 7    0  0.4707675E-002  0.4583544E+03  0.7546771E-02  0.1025260E+00
         21   -1    0    0  502  501  0.00000000000E+00  0.00000000000E+00  0.85509417323E+02  0.85509417323E+02  0.00000000000E+00 0. -1.
         21   -1    0    0  501  502 -0.00000000000E+00 -0.00000000000E+00 -0.61422704599E+03  0.61422704599E+03  0.00000000000E+00 0. -1.
      99926    2    1    2    0    0  0.00000000000E+00  0.00000000000E+00 -0.52871762867E+03  0.69973646332E+03  0.45835443407E+03 0.  0.
      99925    2    3    3    0    0 -0.77928383928E+02  0.81140370085E+02 -0.28778877193E+03  0.40588137183E+03  0.26317431120E+03 0.  0.
         25    1    3    3    0    0  0.77928383928E+02 -0.81140370085E+02 -0.24092885674E+03  0.29385509148E+03  0.12509000000E+03 0.  0.
         25    1    4    4    0    0 -0.18239906840E+02  0.62312124430E+02 -0.10517638971E+03  0.17585527034E+03  0.12509000000E+03 0.  0.
         25    1    4    4    0    0 -0.59688477088E+02  0.18828245654E+02 -0.18261238222E+03  0.23002610150E+03  0.12509000000E+03 0.  0.
<mgrwt>
<rscale>  2 0.45835443E+03</rscale>
<asrwt>0</asrwt>
<pdfrwt beam="1">  1       21 0.12574914E-01 0.45835443E+03</pdfrwt>
<pdfrwt beam="2">  1       21 0.90327507E-01 0.45835443E+03</pdfrwt>
<totfact> 0.51543036E+04</totfact>
</mgrwt>
</event>
<event>
 7    0  0.4707675E-002  0.4476775E+03  0.7546771E-02  0.1028417E+00
         21   -1    0    0  502  501  0.00000000000E+00  0.00000000000E+00  0.27428585754E+03  0.27428585754E+03  0.00000000000E+00 0. -1.
         21   -1    0    0  501  502 -0.00000000000E+00 -0.00000000000E+00 -0.18266997040E+03  0.18266997040E+03  0.00000000000E+00 0. -1.
      99926    2    1    2    0    0  0.35527136788E-14  0.44408920985E-15  0.91615887142E+02  0.45695582794E+03  0.44767751553E+03 0.  0.
      99925    2    3    3    0    0 -0.26662427141E+02  0.31925421133E+01  0.16293776471E+03  0.31047922344E+03  0.26292119670E+03 0.  0.
         25    1    4    4    0    0  0.77955113069E+01 -0.29533134374E+02  0.97555958168E+02  0.16154766819E+03  0.12509000000E+03 0.  0.
         25    1    3    3    0    0  0.26662427141E+02 -0.31925421133E+01 -0.71321877568E+02  0.14647660450E+03  0.12509000000E+03 0.  0.
         25    1    4    4    0    0 -0.34457938448E+02  0.32725676487E+02  0.65381806541E+02  0.14893155525E+03  0.12509000000E+03 0.  0.
<mgrwt>
<rscale>  2 0.44767752E+03</rscale>
<asrwt>0</asrwt>
<pdfrwt beam="1">  1       21 0.40336155E-01 0.44767752E+03</pdfrwt>
<pdfrwt beam="2">  1       21 0.26863231E-01 0.44767752E+03</pdfrwt>
<totfact> 0.72541633E+04</totfact>
</mgrwt>
</event>
<event>
 7    0  0.4707675E-002  0.4590829E+03  0.7546771E-02  0.1025048E+00
         21   -1    0    0  502  501  0.00000000000E+00  0.00000000000E+00  0.18235511926E+03  0.18235511926E+03  0.00000000000E+00 0. -1.
         21   -1    0    0  501  502 -0.00000000000E+00 -0.00000000000E+00 -0.28893771413E+03  0.28893771413E+03  0.00000000000E+00 0. -1.
      99926    2    1    2    0    0  0.00000000000E+00  0.00000000000E+00 -0.10658259487E+03  0.47129283338E+03  0.45908287407E+03 0.  0.
      99925    2    3    3    0    0  0.10972870311E+02 -0.87702716162E+02 -0.14571908866E+03  0.31320632684E+03  0.26277743448E+03 0.  0.
         25    1    4    4    0    0 -0.67254865020E+01 -0.32497987349E+02 -0.11228855680E+03  0.17134053647E+03  0.12509000000E+03 0.  0.
         25    1    3    3    0    0 -0.10972870311E+02  0.87702716162E+02  0.39136493783E+02  0.15808650654E+03  0.12509000000E+03 0.  0.
         25    1    4    4    0    0  0.17698356813E+02 -0.55204728812E+02 -0.33430531857E+02  0.14186579037E+03  0.12509000000E+03 0.  0.
<mgrwt>
<rscale>  2 0.45908287E+03</rscale>
<asrwt>0</asrwt>
<pdfrwt beam="1">  1       21 0.26816930E-01 0.45908287E+03</pdfrwt>
<pdfrwt beam="2">  1       21 0.42490840E-01 0.45908287E+03</pdfrwt>
<totfact> 0.65202367E+04</totfact>
</mgrwt>
</event>
<event>
 7    0  0.4707675E-002  0.4578761E+03  0.7546771E-02  0.1025399E+00
         21   -1    0    0  502  501  0.00000000000E+00  0.00000000000E+00  0.57099804550E+03  0.57099804550E+03  0.00000000000E+00 0.  1.
         21   -1    0    0  501  502 -0.00000000000E+00 -0.00000000000E+00 -0.91791243878E+02  0.91791243878E+02  0.00000000000E+00 0.  1.
      99926    2    1    2    0    0 -0.71054273576E-14 -0.14210854715E-13  0.47920680162E+03  0.66278928938E+03  0.45787605680E+03 0.  0.
      99925    2    3    3    0    0 -0.46702964032E+02 -0.84812245561E+02  0.39299707855E+03  0.48263960634E+03  0.26290683143E+03 0.  0.
         25    1    4    4    0    0 -0.28573490589E+02 -0.80877985424E+02  0.18513718114E+03  0.23933444556E+03  0.12509000000E+03 0.  0.
         25    1    3    3    0    0  0.46702964032E+02  0.84812245561E+02  0.86209723069E+02  0.18014968304E+03  0.12509000000E+03 0.  0.
         25    1    4    4    0    0 -0.18129473443E+02 -0.39342601370E+01  0.20785989742E+03  0.24330516079E+03  0.12509000000E+03 0.  0.
<mgrwt>
<rscale>  2 0.45787606E+03</rscale>
<asrwt>0</asrwt>
<pdfrwt beam="1">  1       21 0.83970299E-01 0.45787606E+03</pdfrwt>
<pdfrwt beam="2">  1       21 0.13498713E-01 0.45787606E+03</pdfrwt>
<totfact> 0.53740795E+04</totfact>
</mgrwt>
</event>
<event>
 7    0  0.4707675E-002  0.4490317E+03  0.7546771E-02  0.1028011E+00
         21   -1    0    0  502  501  0.00000000000E+00  0.00000000000E+00  0.10633989825E+04  0.10633989825E+04  0.00000000000E+00 0. -1.
         21   -1    0    0  501  502 -0.00000000000E+00 -0.00000000000E+00 -0.47402130196E+02  0.47402130196E+02  0.00000000000E+00 0. -1.
      99926    2    1    2    0    0  0.00000000000E+00  0.71054273576E-14  0.10159968523E+04  0.11108011127E+04  0.44903174506E+03 0.  0.
      99925    2    3    3    0    0  0.97353351059E+02  0.43735320596E+02  0.61165660926E+03  0.67430484298E+03  0.26300714892E+03 0.  0.
         25    1    4    4    0    0  0.51325990038E+02 -0.15405924137E+02  0.25617749527E+03  0.29007950106E+03  0.12509000000E+03 0.  0.
         25    1    4    4    0    0  0.46027361022E+02  0.59141244732E+02  0.35547911399E+03  0.38422534192E+03  0.12509000000E+03 0.  0.
         25    1    3    3    0    0 -0.97353351059E+02 -0.43735320596E+02  0.40434024302E+03  0.43649626969E+03  0.12509000000E+03 0.  0.
<mgrwt>
<rscale>  2 0.44903175E+03</rscale>
<asrwt>0</asrwt>
<pdfrwt beam="1">  1       21 0.15638219E+00 0.44903175E+03</pdfrwt>
<pdfrwt beam="2">  1       21 0.69709022E-02 0.44903175E+03</pdfrwt>
<totfact> 0.36801269E+04</totfact>
</mgrwt>
</event>
<event>
 7    0  0.4707675E-002  0.4582425E+03  0.7546771E-02  0.1025292E+00
         21   -1    0    0  502  501  0.00000000000E+00  0.00000000000E+00  0.20877696030E+03  0.20877696030E+03  0.00000000000E+00 0. -1.
         21   -1    0    0  501  502 -0.00000000000E+00 -0.00000000000E+00 -0.25144799560E+03  0.25144799560E+03  0.00000000000E+00 0. -1.
      99926    2    1    2    0    0  0.71054273576E-14  0.00000000000E+00 -0.42671035299E+02  0.46022495589E+03  0.45824250433E+03 0.  0.
      99925    2    3    3    0    0  0.37101980821E+02 -0.10892420624E+03 -0.39334325760E+02  0.29022589291E+03  0.26352009420E+03 0.  0.
         25    1    3    3    0    0 -0.37101980821E+02  0.10892420624E+03 -0.33367095383E+01  0.16999906299E+03  0.12509000000E+03 0.  0.
         25    1    4    4    0    0  0.18069945905E+01 -0.72906225845E+02  0.13389542562E+02  0.14541447984E+03  0.12509000000E+03 0.  0.
         25    1    4    4    0    0  0.35294986231E+02 -0.36017980393E+02 -0.52723868323E+02  0.14481141307E+03  0.12509000000E+03 0.  0.
<mgrwt>
<rscale>  2 0.45824250E+03</rscale>
<asrwt>0</asrwt>
<pdfrwt beam="1">  1       21 0.30702494E-01 0.45824250E+03</pdfrwt>
<pdfrwt beam="2">  1       21 0.36977646E-01 0.45824250E+03</pdfrwt>
<totfact> 0.66429428E+04</totfact>
</mgrwt>
</event>
<event>
 7    0  0.4707675E-002  0.4537239E+03  0.7546771E-02  0.1026617E+00
         21   -1    0    0  502  501  0.00000000000E+00  0.00000000000E+00  0.47378481328E+02  0.47378481328E+02  0.00000000000E+00 0. -1.
         21   -1    0    0  501  502 -0.00000000000E+00 -0.00000000000E+00 -0.10862809172E+04  0.10862809172E+04  0.00000000000E+00 0. -1.
      99926    2    1    2    0    0 -0.71054273576E-14  0.00000000000E+00 -0.10389024359E+04  0.11336593985E+04  0.45372388146E+03 0.  0.
      99925    2    3    3    0    0 -0.47119243899E+02 -0.95708542647E+02 -0.74079504801E+03  0.79322457206E+03  0.26276904359E+03 0.  0.
         25    1    4    4    0    0  0.48640889182E+01 -0.59408009013E+02 -0.44084312749E+03  0.46210728414E+03  0.12509000000E+03 0.  0.
         25    1    4    4    0    0 -0.51983332817E+02 -0.36300533634E+02 -0.29995192052E+03  0.33111728792E+03  0.12509000000E+03 0.  0.
         25    1    3    3    0    0  0.47119243899E+02  0.95708542647E+02 -0.29810738787E+03  0.34043482649E+03  0.12509000000E+03 0.  0.
<mgrwt>
<rscale>  2 0.45372388E+03</rscale>
<asrwt>0</asrwt>
<pdfrwt beam="1">  1       21 0.69674238E-02 0.45372388E+03</pdfrwt>
<pdfrwt beam="2">  1       21 0.15974719E+00 0.45372388E+03</pdfrwt>
<totfact> 0.34676310E+04</totfact>
</mgrwt>
</event>
<event>
 7    0  0.4707675E-002  0.4546292E+03  0.7546771E-02  0.1026350E+00
         21   -1    0    0  502  501  0.00000000000E+00  0.00000000000E+00  0.20964685735E+03  0.20964685735E+03  0.00000000000E+00 0. -1.
         21   -1    0    0  501  502 -0.00000000000E+00 -0.00000000000E+00 -0.24647131892E+03  0.24647131892E+03  0.00000000000E+00 0. -1.
      99926    2    1    2    0    0  0.00000000000E+00  0.00000000000E+00 -0.36824461575E+02  0.45611817627E+03  0.45462924428E+03 0.  0.
      99925    2    3    3    0    0  0.78991600407E+02 -0.48884498000E+02 -0.87744304791E+02  0.29219836169E+03  0.26277643058E+03 0.  0.
         25    1    4    4    0    0  0.57553621888E+02 -0.79817450142E+01 -0.78111283473E+02  0.15850870119E+03  0.12509000000E+03 0.  0.
         25    1    4    4    0    0  0.21437978519E+02 -0.40902752986E+02 -0.96330213177E+01  0.13368966050E+03  0.12509000000E+03 0.  0.
         25    1    3    3    0    0 -0.78991600407E+02  0.48884498000E+02  0.50919843215E+02  0.16391981458E+03  0.12509000000E+03 0.  0.
<mgrwt>
<rscale>  2 0.45462924E+03</rscale>
<asrwt>0</asrwt>
<pdfrwt beam="1">  1       21 0.30830420E-01 0.45462924E+03</pdfrwt>
<pdfrwt beam="2">  1       21 0.36245782E-01 0.45462924E+03</pdfrwt>
<totfact> 0.68666887E+04</totfact>
</mgrwt>
</event>
<event>
 7    0  0.4707675E-002  0.4529002E+03  0.7546771E-02  0.1026861E+00
         21   -1    0    0  502  501  0.00000000000E+00  0.00000000000E+00  0.12441511839E+03  0.12441511839E+03  0.00000000000E+00 0. -1.
         21   -1    0    0  501  502 -0.00000000000E+00 -0.00000000000E+00 -0.41216580029E+03  0.41216580029E+03  0.00000000000E+00 0. -1.
      99926    2    1    2    0    0  0.14210854715E-13  0.00000000000E+00 -0.28775068190E+03  0.53658091869E+03  0.45290023997E+03 0.  0.
      99925    2    3    3    0    0  0.67181409620E+02 -0.13814978497E+02 -0.77642866970E+02  0.28261832809E+03  0.26294582931E+03 0.  0.
         25    1    4    4    0    0  0.61535871886E+02 -0.47975562816E+01 -0.95903263534E+01  0.13981831974E+03  0.12509000000E+03 0.  0.
         25    1    4    4    0    0  0.56455377344E+01 -0.90174222153E+01 -0.68052540617E+02  0.14280000835E+03  0.12509000000E+03 0.  0.
         25    1    3    3    0    0 -0.67181409620E+02  0.13814978497E+02 -0.21010781493E+03  0.25396259060E+03  0.12509000000E+03 0.  0.
<mgrwt>
<rscale>  2 0.45290024E+03</rscale>
<asrwt>0</asrwt>
<pdfrwt beam="1">  1       21 0.18296341E-01 0.45290024E+03</pdfrwt>
<pdfrwt beam="2">  1       21 0.60612618E-01 0.45290024E+03</pdfrwt>
<totfact> 0.63816007E+04</totfact>
</mgrwt>
</event>
<event>
 7    0  0.4707675E-002  0.4508435E+03  0.7546771E-02  0.1027471E+00
         21   -1    0    0  502  501  0.00000000000E+00  0.00000000000E+00  0.67359098923E+03  0.67359098923E+03  0.00000000000E+00 0.  1.
         21   -1    0    0  501  502 -0.00000000000E+00 -0.00000000000E+00 -0.75438895005E+02  0.75438895005E+02  0.00000000000E+00 0.  1.
      99926    2    1    2    0    0  0.00000000000E+00 -0.35527136788E-14  0.59815209423E+03  0.74902988424E+03  0.45084347578E+03 0.  0.
      99925    2    3    3    0    0 -0.56390183613E+02  0.26027069266E+02  0.22854312721E+03  0.35391527081E+03  0.26299581133E+03 0.  0.
         25    1    3    3    0    0  0.56390183613E+02 -0.26027069266E+02  0.36960896702E+03  0.39511461343E+03  0.12509000000E+03 0.  0.
         25    1    4    4    0    0 -0.85169360425E+01  0.17723037309E+02  0.15745185049E+03  0.20205256142E+03  0.12509000000E+03 0.  0.
         25    1    4    4    0    0 -0.47873247570E+02  0.83040319574E+01  0.71091276714E+02  0.15186270939E+03  0.12509000000E+03 0.  0.
<mgrwt>
<rscale>  2 0.45084348E+03</rscale>
<asrwt>0</asrwt>
<pdfrwt beam="1">  1       21 0.99057495E-01 0.45084348E+03</pdfrwt>
<pdfrwt beam="2">  1       21 0.11093956E-01 0.45084348E+03</pdfrwt>
<totfact> 0.51998490E+04</totfact>
</mgrwt>
</event>
<event>
 7    0  0.4707675E-002  0.4555369E+03  0.7546771E-02  0.1026084E+00
         21   -1    0    0  502  501  0.00000000000E+00  0.00000000000E+00  0.11110984099E+03  0.11110984099E+03  0.00000000000E+00 0.  1.
         21   -1    0    0  501  502 -0.00000000000E+00 -0.00000000000E+00 -0.46691156938E+03  0.46691156938E+03  0.00000000000E+00 0.  1.
      99926    2    1    2    0    0  0.00000000000E+00  0.00000000000E+00 -0.35580172839E+03  0.57802141037E+03  0.45553691499E+03 0.  0.
      99925    2    3    3    0    0  0.61170346883E+02  0.69518155829E+02 -0.30782344136E+03  0.41515947665E+03  0.26273091686E+03 0.  0.
         25    1    3    3    0    0 -0.61170346883E+02 -0.69518155829E+02 -0.47978287025E+02  0.16286193372E+03  0.12509000000E+03 0.  0.
         25    1    4    4    0    0  0.30541442484E+02  0.72970205592E+01 -0.10156152431E+03  0.16415930537E+03  0.12509000000E+03 0.  0.
         25    1    4    4    0    0  0.30628904399E+02  0.62221135270E+02 -0.20626191705E+03  0.25100017128E+03  0.12509000000E+03 0.  0.
<mgrwt>
<rscale>  2 0.45553691E+03</rscale>
<asrwt>0</asrwt>
<pdfrwt beam="1">  1       21 0.16339683E-01 0.45553691E+03</pdfrwt>
<pdfrwt beam="2">  1       21 0.68663465E-01 0.45553691E+03</pdfrwt>
<totfact> 0.59797679E+04</totfact>
</mgrwt>
</event>
<event>
 7    0  0.4707675E-002  0.4751741E+03  0.7546771E-02  0.1020470E+00
         21   -1    0    0  502  501  0.00000000000E+00  0.00000000000E+00  0.11818553897E+03  0.11818553897E+03  0.00000000000E+00 0. -1.
         21   -1    0    0  501  502 -0.00000000000E+00 -0.00000000000E+00 -0.47761852751E+03  0.47761852751E+03  0.00000000000E+00 0. -1.
      99926    2    1    2    0    0  0.00000000000E+00  0.00000000000E+00 -0.35943298854E+03  0.59580406648E+03  0.47517408639E+03 0.  0.
      99925    2    3    3    0    0 -0.65774807700E+02  0.63374099837E+02 -0.34040567086E+03  0.43975231616E+03  0.26298949971E+03 0.  0.
         25    1    4    4    0    0 -0.53343838593E+02  0.59751960190E+02 -0.22140949656E+03  0.26661870739E+03  0.12509000000E+03 0.  0.
         25    1    3    3    0    0  0.65774807700E+02 -0.63374099837E+02 -0.19027317679E+02  0.15605175031E+03  0.12509000000E+03 0.  0.
         25    1    4    4    0    0 -0.12430969108E+02  0.36221396469E+01 -0.11899617430E+03  0.17313360877E+03  0.12509000000E+03 0.  0.
<mgrwt>
<rscale>  2 0.47517409E+03</rscale>
<asrwt>0</asrwt>
<pdfrwt beam="1">  1       21 0.17380226E-01 0.47517409E+03</pdfrwt>
<pdfrwt beam="2">  1       21 0.70238019E-01 0.47517409E+03</pdfrwt>
<totfact> 0.50406919E+04</totfact>
</mgrwt>
</event>
<event>
 7    0  0.4707675E-002  0.4514863E+03  0.7546771E-02  0.1027280E+00
         21   -1    0    0  502  501  0.00000000000E+00  0.00000000000E+00  0.59640222030E+02  0.59640222030E+02  0.00000000000E+00 0.  1.
         21   -1    0    0  501  502 -0.00000000000E+00 -0.00000000000E+00 -0.85445650220E+03  0.85445650220E+03  0.00000000000E+00 0.  1.
      99926    2    1    2    0    0 -0.71054273576E-14  0.00000000000E+00 -0.79481628017E+03  0.91409672423E+03  0.45148632540E+03 0.  0.
      99925    2    3    3    0    0  0.56158928147E+02  0.94253460754E+02 -0.49014428646E+03  0.56695111800E+03  0.26297263845E+03 0.  0.
         25    1    4    4    0    0  0.18210783558E+02  0.45810683468E+02 -0.16270133274E+03  0.21106748478E+03  0.12509000000E+03 0.  0.
         25    1    4    4    0    0  0.37948144589E+02  0.48442777286E+02 -0.32744295372E+03  0.35588363322E+03  0.12509000000E+03 0.  0.
         25    1    3    3    0    0 -0.56158928147E+02 -0.94253460754E+02 -0.30467199371E+03  0.34714560623E+03  0.12509000000E+03 0.  0.
<mgrwt>
<rscale>  2 0.45148633E+03</rscale>
<asrwt>0</asrwt>
<pdfrwt beam="1">  1       21 0.87706205E-02 0.45148633E+03</pdfrwt>
<pdfrwt beam="2">  1       21 0.12565537E+00 0.45148633E+03</pdfrwt>
<totfact> 0.43822173E+04</totfact>
</mgrwt>
</event>
<event>
 7    0  0.4707675E-002  0.4626643E+03  0.7546771E-02  0.1024011E+00
         21   -1    0    0  502  501  0.00000000000E+00  0.00000000000E+00  0.55144264194E+03  0.55144264194E+03  0.00000000000E+00 0.  1.
         21   -1    0    0  501  502 -0.00000000000E+00 -0.00000000000E+00 -0.97044676734E+02  0.97044676734E+02  0.00000000000E+00 0.  1.
      99926    2    1    2    0    0  0.00000000000E+00  0.15543122345E-14  0.45439796520E+03  0.64848731867E+03  0.46266434020E+03 0.  0.
      99925    2    3    3    0    0 -0.22980838754E+02  0.49582366928E+00  0.44960051891E+03  0.52121246498E+03  0.26266602798E+03 0.  0.
         25    1    4    4    0    0 -0.13771954589E+02  0.13516193423E+02  0.29966277701E+03  0.32529623767E+03  0.12509000000E+03 0.  0.
         25    1    4    4    0    0 -0.92088841649E+01 -0.13020369754E+02  0.14993774190E+03  0.19591622731E+03  0.12509000000E+03 0.  0.
         25    1    3    3    0    0  0.22980838754E+02 -0.49582366928E+00  0.47974462899E+01  0.12727485369E+03  0.12509000000E+03 0.  0.
<mgrwt>
<rscale>  2 0.46266434E+03</rscale>
<asrwt>0</asrwt>
<pdfrwt beam="1">  1       21 0.81094505E-01 0.46266434E+03</pdfrwt>
<pdfrwt beam="2">  1       21 0.14271276E-01 0.46266434E+03</pdfrwt>
<totfact> 0.52538850E+04</totfact>
</mgrwt>
</event>
<event>
 7    0  0.4707675E-002  0.4630201E+03  0.7546771E-02  0.1023909E+00
         21   -1    0    0  502  501  0.00000000000E+00  0.00000000000E+00  0.21553101617E+03  0.21553101617E+03  0.00000000000E+00 0. -1.
         21   -1    0    0  501  502 -0.00000000000E+00 -0.00000000000E+00 -0.24867377103E+03  0.24867377103E+03  0.00000000000E+00 0. -1.
      99926    2    1    2    0    0  0.00000000000E+00  0.00000000000E+00 -0.33142754868E+02  0.46420478720E+03  0.46302013159E+03 0.  0.
      99925    2    3    3    0    0  0.65853230242E+02 -0.97695509313E+02 -0.46233929044E+02  0.29186806037E+03  0.26299872242E+03 0.  0.
         25    1    4    4    0    0 -0.25435068949E+01 -0.37242239020E+02 -0.41357689143E+02  0.13693582565E+03  0.12509000000E+03 0.  0.
         25    1    4    4    0    0  0.68396737137E+02 -0.60453270293E+02 -0.48762399019E+01  0.15493223472E+03  0.12509000000E+03 0.  0.
         25    1    3    3    0    0 -0.65853230242E+02  0.97695509313E+02  0.13091174176E+02  0.17233672683E+03  0.12509000000E+03 0.  0.
<mgrwt>
<rscale>  2 0.46302013E+03</rscale>
<asrwt>0</asrwt>
<pdfrwt beam="1">  1       21 0.31695738E-01 0.46302013E+03</pdfrwt>
<pdfrwt beam="2">  1       21 0.36569672E-01 0.46302013E+03</pdfrwt>
<totfact> 0.63701731E+04</totfact>
</mgrwt>
</event>
<event>
 7    0  0.4707675E-002  0.4542330E+03  0.7546771E-02  0.1026467E+00
         21   -1    0    0  502  501  0.00000000000E+00  0.00000000000E+00  0.70996693070E+02  0.70996693070E+02  0.00000000000E+00 0. -1.
         21   -1    0    0  501  502 -0.00000000000E+00 -0.00000000000E+00 -0.72653953965E+03  0.72653953965E+03  0.00000000000E+00 0. -1.
      99926    2    1    2    0    0  0.00000000000E+00  0.14210854715E-13 -0.65554284658E+03  0.79753623272E+03  0.45423300056E+03 0.  0.
      99925    2    3    3    0    0 -0.81491427594E+02 -0.76707882965E+02 -0.43307908907E+03  0.51885615882E+03  0.26292444558E+03 0.  0.
         25    1    4    4    0    0 -0.11426751843E+02 -0.61698668989E+02 -0.18555276289E+03  0.23241048240E+03  0.12509000000E+03 0.  0.
         25    1    4    4    0    0 -0.70064675751E+02 -0.15009213977E+02 -0.24752632618E+03  0.28644567643E+03  0.12509000000E+03 0.  0.
         25    1    3    3    0    0  0.81491427594E+02  0.76707882965E+02 -0.22246375751E+03  0.27868007390E+03  0.12509000000E+03 0.  0.
<mgrwt>
<rscale>  2 0.45423300E+03</rscale>
<asrwt>0</asrwt>
<pdfrwt beam="1">  1       21 0.10440691E-01 0.45423300E+03</pdfrwt>
<pdfrwt beam="2">  1       21 0.10684404E+00 0.45423300E+03</pdfrwt>
<totfact> 0.48173535E+04</totfact>
</mgrwt>
</event>
<event>
 7    0  0.4707675E-002  0.4429945E+03  0.7546771E-02  0.1029832E+00
         21   -1    0    0  502  501  0.00000000000E+00  0.00000000000E+00  0.19827884513E+03  0.19827884513E+03  0.00000000000E+00 0. -1.
         21   -1    0    0  501  502 -0.00000000000E+00 -0.00000000000E+00 -0.24743451982E+03  0.24743451982E+03  0.00000000000E+00 0. -1.
      99926    2    1    2    0    0 -0.35527136788E-14 -0.71054273576E-14 -0.49155674687E+02  0.44571336496E+03  0.44299449584E+03 0.  0.
      99925    2    3    3    0    0 -0.24610489632E+02  0.54633189233E+02  0.51110495127E+02  0.27456642670E+03  0.26302847449E+03 0.  0.
         25    1    3    3    0    0  0.24610489632E+02 -0.54633189233E+02 -0.10026616981E+03  0.17114693826E+03  0.12509000000E+03 0.  0.
         25    1    4    4    0    0 -0.35662208935E+02 -0.61668879181E+01  0.26556390056E+02  0.13290061552E+03  0.12509000000E+03 0.  0.
         25    1    4    4    0    0  0.11051719303E+02  0.60800077151E+02  0.24554105070E+02  0.14166581118E+03  0.12509000000E+03 0.  0.
<mgrwt>
<rscale>  2 0.44299450E+03</rscale>
<asrwt>0</asrwt>
<pdfrwt beam="1">  1       21 0.29158654E-01 0.44299450E+03</pdfrwt>
<pdfrwt beam="2">  1       21 0.36387429E-01 0.44299450E+03</pdfrwt>
<totfact> 0.76280341E+04</totfact>
</mgrwt>
</event>
<event>
 7    0  0.4707675E-002  0.4606293E+03  0.7546771E-02  0.1024599E+00
         21   -1    0    0  502  501  0.00000000000E+00  0.00000000000E+00  0.74307538044E+03  0.74307538044E+03  0.00000000000E+00 0.  1.
         21   -1    0    0  501  502 -0.00000000000E+00 -0.00000000000E+00 -0.71385528284E+02  0.71385528284E+02  0.00000000000E+00 0.  1.
      99926    2    1    2    0    0  0.00000000000E+00  0.00000000000E+00  0.67168985216E+03  0.81446090872E+03  0.46062925911E+03 0.  0.
      99925    2    3    3    0    0 -0.93527765982E+02 -0.36455301571E+02  0.30936034586E+03  0.41822031104E+03  0.26292199024E+03 0.  0.
         25    1    4    4    0    0 -0.54785297557E+01 -0.21050667835E+02  0.12511179345E+03  0.17825154660E+03  0.12509000000E+03 0.  0.
         25    1    4    4    0    0 -0.88049236226E+02 -0.15404633737E+02  0.18424855241E+03  0.23996876444E+03  0.12509000000E+03 0.  0.
         25    1    3    3    0    0  0.93527765982E+02  0.36455301571E+02  0.36232950630E+03  0.39624059769E+03  0.12509000000E+03 0.  0.
<mgrwt>
<rscale>  2 0.46062926E+03</rscale>
<asrwt>0</asrwt>
<pdfrwt beam="1">  1       21 0.10927579E+00 0.46062926E+03</pdfrwt>
<pdfrwt beam="2">  1       21 0.10497872E-01 0.46062926E+03</pdfrwt>
<totfact> 0.45050103E+04</totfact>
</mgrwt>
</event>
<event>
 7    0  0.4707675E-002  0.4549000E+03  0.7546771E-02  0.1026271E+00
         21   -1    0    0  502  501  0.00000000000E+00  0.00000000000E+00  0.59076198690E+03  0.59076198690E+03  0.00000000000E+00 0. -1.
         21   -1    0    0  501  502 -0.00000000000E+00 -0.00000000000E+00 -0.87570786650E+02  0.87570786650E+02  0.00000000000E+00 0. -1.
      99926    2    1    2    0    0  0.00000000000E+00  0.00000000000E+00  0.50319120025E+03  0.67833277355E+03  0.45489995347E+03 0.  0.
      99925    2    3    3    0    0  0.60592344167E+02 -0.85600362892E+02  0.37982553448E+03  0.47372229022E+03  0.26295725376E+03 0.  0.
         25    1    4    4    0    0  0.37737041492E+02 -0.41904670948E+02  0.12507333065E+03  0.18566349100E+03  0.12509000000E+03 0.  0.
         25    1    3    3    0    0 -0.60592344167E+02  0.85600362892E+02  0.12336566577E+03  0.20461048333E+03  0.12509000000E+03 0.  0.
         25    1    4    4    0    0  0.22855302675E+02 -0.43695691944E+02  0.25475220383E+03  0.28805879922E+03  0.12509000000E+03 0.  0.
<mgrwt>
<rscale>  2 0.45489995E+03</rscale>
<asrwt>0</asrwt>
<pdfrwt beam="1">  1       21 0.86876761E-01 0.45489995E+03</pdfrwt>
<pdfrwt beam="2">  1       21 0.12878057E-01 0.45489995E+03</pdfrwt>
<totfact> 0.54138352E+04</totfact>
</mgrwt>
</event>
<event>
 7    0  0.4707675E-002  0.4562030E+03  0.7546771E-02  0.1025888E+00
         21   -1    0    0  502  501  0.00000000000E+00  0.00000000000E+00  0.45031009722E+03  0.45031009722E+03  0.00000000000E+00 0. -1.
         21   -1    0    0  501  502 -0.00000000000E+00 -0.00000000000E+00 -0.11554323884E+03  0.11554323884E+03  0.00000000000E+00 0. -1.
      99926    2    1    2    0    0  0.00000000000E+00  0.00000000000E+00  0.33476685838E+03  0.56585333606E+03  0.45620296849E+03 0.  0.
      99925    2    3    3    0    0 -0.62760430629E+02  0.56712089927E+02  0.11489550903E+03  0.29912116484E+03  0.26290180765E+03 0.  0.
         25    1    4    4    0    0  0.67663787443E+01  0.22013841282E+02  0.36665428207E+02  0.13237165412E+03  0.12509000000E+03 0.  0.
         25    1    3    3    0    0  0.62760430629E+02 -0.56712089927E+02  0.21987134935E+03  0.26673217122E+03  0.12509000000E+03 0.  0.
         25    1    4    4    0    0 -0.69526809374E+02  0.34698248645E+02  0.78230080821E+02  0.16674951072E+03  0.12509000000E+03 0.  0.
<mgrwt>
<rscale>  2 0.45620297E+03</rscale>
<asrwt>0</asrwt>
<pdfrwt beam="1">  1       21 0.66222073E-01 0.45620297E+03</pdfrwt>
<pdfrwt beam="2">  1       21 0.16991653E-01 0.45620297E+03</pdfrwt>
<totfact> 0.60255591E+04</totfact>
</mgrwt>
</event>
<event>
 7    0  0.4707675E-002  0.4478367E+03  0.7546771E-02  0.1028369E+00
         21   -1    0    0  502  501  0.00000000000E+00  0.00000000000E+00  0.80249341340E+02  0.80249341340E+02  0.00000000000E+00 0.  1.
         21   -1    0    0  501  502 -0.00000000000E+00 -0.00000000000E+00 -0.62479562019E+03  0.62479562019E+03  0.00000000000E+00 0.  1.
      99926    2    1    2    0    0  0.17763568394E-14 -0.71054273576E-14 -0.54454627885E+03  0.70504496153E+03  0.44783674254E+03 0.  0.
      99925    2    3    3    0    0 -0.88894127385E+01  0.63072473984E+02 -0.20875273143E+03  0.34109170462E+03  0.26212342406E+03 0.  0.
         25    1    4    4    0    0 -0.88796392911E+01 -0.19541577813E+00 -0.12856344008E+03  0.17959663807E+03  0.12509000000E+03 0.  0.
         25    1    3    3    0    0  0.88894127385E+01 -0.63072473984E+02 -0.33579354741E+03  0.36395325691E+03  0.12509000000E+03 0.  0.
         25    1    4    4    0    0 -0.97734473728E-02  0.63267889762E+02 -0.80189291358E+02  0.16149506655E+03  0.12509000000E+03 0.  0.
<mgrwt>
<rscale>  2 0.44783674E+03</rscale>
<asrwt>0</asrwt>
<pdfrwt beam="1">  1       21 0.11801374E-01 0.44783674E+03</pdfrwt>
<pdfrwt beam="2">  1       21 0.91881704E-01 0.44783674E+03</pdfrwt>
<totfact> 0.55703868E+04</totfact>
</mgrwt>
</event>
<event>
 7    0  0.4707675E-002  0.4611683E+03  0.7546771E-02  0.1024443E+00
         21   -1    0    0  502  501  0.00000000000E+00  0.00000000000E+00  0.44978249034E+03  0.44978249034E+03  0.00000000000E+00 0.  1.
         21   -1    0    0  501  502 -0.00000000000E+00 -0.00000000000E+00 -0.11821059631E+03  0.11821059631E+03  0.00000000000E+00 0.  1.
      99926    2    1    2    0    0  0.00000000000E+00  0.00000000000E+00  0.33157189404E+03  0.56799308665E+03  0.46116832672E+03 0.  0.
      99925    2    3    3    0    0  0.78072783498E+02 -0.69030413044E+02  0.13679311738E+03  0.31412927003E+03  0.26287693677E+03 0.  0.
         25    1    4    4    0    0  0.19069538599E+01 -0.13274997062E+02  0.54163864088E+02  0.13697114402E+03  0.12509000000E+03 0.  0.
         25    1    3    3    0    0 -0.78072783498E+02  0.69030413044E+02  0.19477877666E+03  0.25386381661E+03  0.12509000000E+03 0.  0.
         25    1    4    4    0    0  0.76165829638E+02 -0.55755415982E+02  0.82629253287E+02  0.17715812602E+03  0.12509000000E+03 0.  0.
<mgrwt>
<rscale>  2 0.46116833E+03</rscale>
<asrwt>0</asrwt>
<pdfrwt beam="1">  1       21 0.66144483E-01 0.46116833E+03</pdfrwt>
<pdfrwt beam="2">  1       21 0.17383911E-01 0.46116833E+03</pdfrwt>
<totfact> 0.57820335E+04</totfact>
</mgrwt>
</event>
<event>
 7    0  0.4707675E-002  0.4500577E+03  0.7546771E-02  0.1027705E+00
         21   -1    0    0  502  501  0.00000000000E+00  0.00000000000E+00  0.19774605808E+03  0.19774605808E+03  0.00000000000E+00 0.  1.
         21   -1    0    0  501  502 -0.00000000000E+00 -0.00000000000E+00 -0.25607580203E+03  0.25607580203E+03  0.00000000000E+00 0.  1.
      99926    2    1    2    0    0  0.00000000000E+00  0.00000000000E+00 -0.58329743944E+02  0.45382186011E+03  0.45005768707E+03 0.  0.
      99925    2    3    3    0    0  0.26617692298E+02 -0.37196566115E+02  0.62272035574E+02  0.27414330436E+03  0.26302976797E+03 0.  0.
         25    1    4    4    0    0 -0.25809728347E+02 -0.90597839306E+01  0.22318117889E+02  0.12997626033E+03  0.12509000000E+03 0.  0.
         25    1    4    4    0    0  0.52427420645E+02 -0.28136782184E+02  0.39953917685E+02  0.14416704403E+03  0.12509000000E+03 0.  0.
         25    1    3    3    0    0 -0.26617692298E+02  0.37196566115E+02 -0.12060177952E+03  0.17967855575E+03  0.12509000000E+03 0.  0.
<mgrwt>
<rscale>  2 0.45005769E+03</rscale>
<asrwt>0</asrwt>
<pdfrwt beam="1">  1       21 0.29080303E-01 0.45005769E+03</pdfrwt>
<pdfrwt beam="2">  1       21 0.37658206E-01 0.45005769E+03</pdfrwt>
<totfact> 0.71406355E+04</totfact>
</mgrwt>
</event>
<event>
 7    0  0.4707675E-002  0.4490991E+03  0.7546771E-02  0.1027991E+00
         21   -1    0    0  502  501  0.00000000000E+00  0.00000000000E+00  0.97253037676E+02  0.97253037676E+02  0.00000000000E+00 0.  1.
         21   -1    0    0  501  502 -0.00000000000E+00 -0.00000000000E+00 -0.51846698765E+03  0.51846698765E+03  0.00000000000E+00 0.  1.
      99926    2    1    2    0    0  0.00000000000E+00  0.00000000000E+00 -0.42121394997E+03  0.61572002532E+03  0.44909905136E+03 0.  0.
      99925    2    3    3    0    0  0.65431824290E+02 -0.38760842149E+02 -0.16272491142E+03  0.31865468290E+03  0.26320654176E+03 0.  0.
         25    1    4    4    0    0  0.41498486375E+02 -0.58003811310E+02 -0.71132830111E+02  0.16060496293E+03  0.12509000000E+03 0.  0.
         25    1    3    3    0    0 -0.65431824290E+02  0.38760842149E+02 -0.25848903856E+03  0.29706534242E+03  0.12509000000E+03 0.  0.
         25    1    4    4    0    0  0.23933337915E+02  0.19242969162E+02 -0.91592081304E+02  0.15804971997E+03  0.12509000000E+03 0.  0.
<mgrwt>
<rscale>  2 0.44909905E+03</rscale>
<asrwt>0</asrwt>
<pdfrwt beam="1">  1       21 0.14301917E-01 0.44909905E+03</pdfrwt>
<pdfrwt beam="2">  1       21 0.76245145E-01 0.44909905E+03</pdfrwt>
<totfact> 0.60491011E+04</totfact>
</mgrwt>
</event>
<event>
 7    0  0.4707675E-002  0.4278487E+03  0.7546771E-02  0.1034542E+00
         21   -1    0    0  502  501  0.00000000000E+00  0.00000000000E+00  0.11474678882E+04  0.11474678882E+04  0.00000000000E+00 0.  1.
         21   -1    0    0  501  502 -0.00000000000E+00 -0.00000000000E+00 -0.39882272475E+02  0.39882272475E+02  0.00000000000E+00 0.  1.
      99926    2    1    2    0    0  0.00000000000E+00 -0.71054273576E-14  0.11075856158E+04  0.11873501607E+04  0.42784869744E+03 0.  0.
      99925    2    3    3    0    0  0.50929380232E+02  0.58676618965E+02  0.81313662495E+03  0.85813220301E+03  0.26298851614E+03 0.  0.
         25    1    4    4    0    0 -0.13111369138E+00  0.60608696200E+02  0.40060297738E+03  0.42403264595E+03  0.12509000000E+03 0.  0.
         25    1    3    3    0    0 -0.50929380232E+02 -0.58676618965E+02  0.29444899081E+03  0.32921795770E+03  0.12509000000E+03 0.  0.
         25    1    4    4    0    0  0.51060493923E+02 -0.19320772350E+01  0.41253364758E+03  0.43409955706E+03  0.12509000000E+03 0.  0.
<mgrwt>
<rscale>  2 0.42784870E+03</rscale>
<asrwt>0</asrwt>
<pdfrwt beam="1">  1       21 0.16874526E+00 0.42784870E+03</pdfrwt>
<pdfrwt beam="2">  1       21 0.58650408E-02 0.42784870E+03</pdfrwt>
<totfact> 0.40463506E+04</totfact>
</mgrwt>
</event>
<event>
 7    0  0.4707675E-002  0.3933351E+03  0.7546771E-02  0.1046112E+00
         21   -1    0    0  502  501  0.00000000000E+00  0.00000000000E+00  0.59457231411E+02  0.59457231411E+02  0.00000000000E+00 0. -1.
         21   -1    0    0  501  502 -0.00000000000E+00 -0.00000000000E+00 -0.65052011946E+03  0.65052011946E+03  0.00000000000E+00 0. -1.
      99926    2    1    2    0    0 -0.35527136788E-14 -0.35527136788E-14 -0.59106288805E+03  0.70997735087E+03  0.39333510029E+03 0.  0.
      99925    2    3    3    0    0  0.26862129429E+02  0.13111221391E+02 -0.40003221690E+03  0.47968687442E+03  0.26302137709E+03 0.  0.
         25    1    4    4    0    0  0.27069541208E+02  0.31499470542E+02 -0.25668776507E+03  0.28854998447E+03  0.12509000000E+03 0.  0.
         25    1    3    3    0    0 -0.26862129429E+02 -0.13111221391E+02 -0.19103067115E+03  0.23029047645E+03  0.12509000000E+03 0.  0.
         25    1    4    4    0    0 -0.20741177911E+00 -0.18388249150E+02 -0.14334445184E+03  0.19113688995E+03  0.12509000000E+03 0.  0.
<mgrwt>
<rscale>  2 0.39333510E+03</rscale>
<asrwt>0</asrwt>
<pdfrwt beam="1">  1       21 0.87437107E-02 0.39333510E+03</pdfrwt>
<pdfrwt beam="2">  1       21 0.95664722E-01 0.39333510E+03</pdfrwt>
<totfact> 0.87839530E+04</totfact>
</mgrwt>
</event>
<event>
 7    0  0.4707675E-002  0.5180810E+03  0.7546771E-02  0.1009164E+00
         21   -1    0    0  502  501  0.00000000000E+00  0.00000000000E+00  0.32973918886E+03  0.32973918886E+03  0.00000000000E+00 0. -1.
         21   -1    0    0  501  502 -0.00000000000E+00 -0.00000000000E+00 -0.20350013772E+03  0.20350013772E+03  0.00000000000E+00 0. -1.
      99926    2    1    2    0    0  0.00000000000E+00 -0.35527136788E-14  0.12623905114E+03  0.53323932657E+03  0.51808096025E+03 0.  0.
      99925    2    3    3    0    0  0.10861188590E+03  0.19636873351E+02  0.20243928878E+03  0.34983776477E+03  0.26310197162E+03 0.  0.
         25    1    4    4    0    0  0.61484940746E+02 -0.18891141016E+02  0.67447668691E+02  0.15599349108E+03  0.12509000000E+03 0.  0.
         25    1    3    3    0    0 -0.10861188590E+03 -0.19636873351E+02 -0.76200237635E+02  0.18340156180E+03  0.12509000000E+03 0.  0.
         25    1    4    4    0    0  0.47126945156E+02  0.38528014367E+02  0.13499162009E+03  0.19384427369E+03  0.12509000000E+03 0.  0.
<mgrwt>
<rscale>  2 0.51808096E+03</rscale>
<asrwt>0</asrwt>
<pdfrwt beam="1">  1       21 0.48491058E-01 0.51808096E+03</pdfrwt>
<pdfrwt beam="2">  1       21 0.29926491E-01 0.51808096E+03</pdfrwt>
<totfact> 0.39303550E+04</totfact>
</mgrwt>
</event>
<event>
 7    0  0.4707675E-002  0.4560838E+03  0.7546771E-02  0.1025923E+00
         21   -1    0    0  502  501  0.00000000000E+00  0.00000000000E+00  0.10223765079E+03  0.10223765079E+03  0.00000000000E+00 0.  1.
         21   -1    0    0  501  502 -0.00000000000E+00 -0.00000000000E+00 -0.50864935394E+03  0.50864935394E+03  0.00000000000E+00 0.  1.
      99926    2    1    2    0    0 -0.35527136788E-14  0.14210854715E-13 -0.40641170315E+03  0.61088700473E+03  0.45608383011E+03 0.  0.
      99925    2    3    3    0    0 -0.31944936633E+02  0.10183793171E+03 -0.30989048276E+03  0.42021635309E+03  0.26297952162E+03 0.  0.
         25    1    3    3    0    0  0.31944936633E+02 -0.10183793171E+03 -0.96521220382E+02  0.19067065163E+03  0.12509000000E+03 0.  0.
         25    1    4    4    0    0 -0.14061118071E+02  0.30127848056E+02 -0.93903133858E+02  0.15990843917E+03  0.12509000000E+03 0.  0.
         25    1    4    4    0    0 -0.17883818562E+02  0.71710083650E+02 -0.21598734891E+03  0.26030791392E+03  0.12509000000E+03 0.  0.
<mgrwt>
<rscale>  2 0.45608383E+03</rscale>
<asrwt>0</asrwt>
<pdfrwt beam="1">  1       21 0.15034949E-01 0.45608383E+03</pdfrwt>
<pdfrwt beam="2">  1       21 0.74801375E-01 0.45608383E+03</pdfrwt>
<totfact> 0.57519101E+04</totfact>
</mgrwt>
</event>
<event>
 7    0  0.4707675E-002  0.4523008E+03  0.7546771E-02  0.1027038E+00
         21   -1    0    0  502  501  0.00000000000E+00  0.00000000000E+00  0.84334684268E+02  0.84334684268E+02  0.00000000000E+00 0. -1.
         21   -1    0    0  501  502 -0.00000000000E+00 -0.00000000000E+00 -0.60644079143E+03  0.60644079143E+03  0.00000000000E+00 0. -1.
      99926    2    1    2    0    0  0.00000000000E+00  0.00000000000E+00 -0.52210610716E+03  0.69077547569E+03  0.45230075247E+03 0.  0.
      99925    2    3    3    0    0  0.58798100676E+02 -0.35002295171E+02 -0.46210984826E+03  0.53608405223E+03  0.26297950850E+03 0.  0.
         25    1    4    4    0    0  0.58789184640E+02 -0.26147746508E+02 -0.18940024958E+03  0.23592336790E+03  0.12509000000E+03 0.  0.
         25    1    3    3    0    0 -0.58798100676E+02  0.35002295171E+02 -0.59996258901E+02  0.15469142346E+03  0.12509000000E+03 0.  0.
         25    1    4    4    0    0  0.89160358032E-02 -0.88545486628E+01 -0.27270959867E+03  0.30016068433E+03  0.12509000000E+03 0.  0.
<mgrwt>
<rscale>  2 0.45230075E+03</rscale>
<asrwt>0</asrwt>
<pdfrwt beam="1">  1       21 0.12402160E-01 0.45230075E+03</pdfrwt>
<pdfrwt beam="2">  1       21 0.89182469E-01 0.45230075E+03</pdfrwt>
<totfact> 0.54556745E+04</totfact>
</mgrwt>
</event>
<event>
 7    0  0.4707675E-002  0.4600484E+03  0.7546771E-02  0.1024767E+00
         21   -1    0    0  502  501  0.00000000000E+00  0.00000000000E+00  0.27326737739E+03  0.27326737739E+03  0.00000000000E+00 0. -1.
         21   -1    0    0  501  502 -0.00000000000E+00 -0.00000000000E+00 -0.19362405425E+03  0.19362405425E+03  0.00000000000E+00 0. -1.
      99926    2    1    2    0    0 -0.35527136788E-14  0.00000000000E+00  0.79643323141E+02  0.46689143163E+03  0.46004842138E+03 0.  0.
      99925    2    3    3    0    0  0.23222081865E+02 -0.11396637705E+03  0.30665227400E+02  0.28920079557E+03  0.26300027339E+03 0.  0.
         25    1    3    3    0    0 -0.23222081865E+02  0.11396637705E+03  0.48978095740E+02  0.17769063607E+03  0.12509000000E+03 0.  0.
         25    1    4    4    0    0  0.30663039015E+01 -0.22454218848E+02 -0.10547569555E+02  0.12756313530E+03  0.12509000000E+03 0.  0.
         25    1    4    4    0    0  0.20155777964E+02 -0.91512158201E+02  0.41212796955E+02  0.16163766027E+03  0.12509000000E+03 0.  0.
<mgrwt>
<rscale>  2 0.46004842E+03</rscale>
<asrwt>0</asrwt>
<pdfrwt beam="1">  1       21 0.40186379E-01 0.46004842E+03</pdfrwt>
<pdfrwt beam="2">  1       21 0.28474126E-01 0.46004842E+03</pdfrwt>
<totfact> 0.65021094E+04</totfact>
</mgrwt>
</event>
<event>
 7    0  0.4707675E-002  0.4540477E+03  0.7546771E-02  0.1026522E+00
         21   -1    0    0  502  501  0.00000000000E+00  0.00000000000E+00  0.65098792757E+02  0.65098792757E+02  0.00000000000E+00 0.  1.
         21   -1    0    0  501  502 -0.00000000000E+00 -0.00000000000E+00 -0.79171702273E+03  0.79171702273E+03  0.00000000000E+00 0.  1.
      99926    2    1    2    0    0  0.00000000000E+00 -0.35527136788E-14 -0.72661822998E+03  0.85681581549E+03  0.45404767320E+03 0.  0.
      99925    2    3    3    0    0  0.11557741698E+02 -0.28004896087E+02 -0.25305962663E+03  0.36607849828E+03  0.26278591415E+03 0.  0.
         25    1    3    3    0    0 -0.11557741698E+02  0.28004896087E+02 -0.47355860334E+03  0.49073731721E+03  0.12509000000E+03 0.  0.
         25    1    4    4    0    0 -0.13359001070E+02 -0.41526866413E+02 -0.97663471766E+02  0.16458616394E+03  0.12509000000E+03 0.  0.
         25    1    4    4    0    0  0.24916742768E+02  0.13521970326E+02 -0.15539615487E+03  0.20149233434E+03  0.12509000000E+03 0.  0.
<mgrwt>
<rscale>  2 0.45404767E+03</rscale>
<asrwt>0</asrwt>
<pdfrwt beam="1">  1       21 0.95733525E-02 0.45404767E+03</pdfrwt>
<pdfrwt beam="2">  1       21 0.11642897E+00 0.45404767E+03</pdfrwt>
<totfact> 0.45474735E+04</totfact>
</mgrwt>
</event>
<event>
 7    0  0.4707675E-002  0.4450047E+03  0.7546771E-02  0.1029222E+00
         21   -1    0    0  502  501  0.00000000000E+00  0.00000000000E+00  0.24370485113E+04  0.24370485113E+04  0.00000000000E+00 0.  1.
         21   -1    0    0  501  502 -0.00000000000E+00 -0.00000000000E+00 -0.20314447293E+02  0.20314447293E+02  0.00000000000E+00 0.  1.
      99926    2    1    2    0    0  0.00000000000E+00  0.00000000000E+00  0.24167340640E+04  0.24573629586E+04  0.44500469001E+03 0.  0.
      99925    2    3    3    0    0 -0.10283456042E+03 -0.76016835477E+01  0.14872721762E+04  0.15138696404E+04  0.26303997746E+03 0.  0.
         25    1    4    4    0    0 -0.58864103061E+02 -0.98212155311E+01  0.97083595250E+03  0.98067904722E+03  0.12509000000E+03 0.  0.
         25    1    3    3    0    0  0.10283456042E+03  0.76016835477E+01  0.92946188781E+03  0.94349331815E+03  0.12509000000E+03 0.  0.
         25    1    4    4    0    0 -0.43970457360E+02  0.22195319834E+01  0.51643622371E+03  0.53319059322E+03  0.12509000000E+03 0.  0.
<mgrwt>
<rscale>  2 0.44500469E+03</rscale>
<asrwt>0</asrwt>
<pdfrwt beam="1">  1       21 0.35838929E+00 0.44500469E+03</pdfrwt>
<pdfrwt beam="2">  1       21 0.29874204E-02 0.44500469E+03</pdfrwt>
<totfact> 0.81966285E+03</totfact>
</mgrwt>
</event>
<event>
 7    0  0.4707675E-002  0.4569776E+03  0.7546771E-02  0.1025661E+00
         21   -1    0    0  502  501  0.00000000000E+00  0.00000000000E+00  0.11496155555E+03  0.11496155555E+03  0.00000000000E+00 0. -1.
         21   -1    0    0  501  502 -0.00000000000E+00 -0.00000000000E+00 -0.45412691772E+03  0.45412691772E+03  0.00000000000E+00 0. -1.
      99926    2    1    2    0    0  0.88817841970E-15 -0.14210854715E-13 -0.33916536217E+03  0.56908847328E+03  0.45697762256E+03 0.  0.
      99925    2    3    3    0    0 -0.48259145391E+01  0.10429829862E+03 -0.15309215251E+03  0.32175838615E+03  0.26303959274E+03 0.  0.
         25    1    4    4    0    0 -0.23751886399E+02  0.19492909178E+02 -0.88719077200E+02  0.15640558933E+03  0.12509000000E+03 0.  0.
         25    1    4    4    0    0  0.18925971860E+02  0.84805389442E+02 -0.64373075314E+02  0.16535279682E+03  0.12509000000E+03 0.  0.
         25    1    3    3    0    0  0.48259145391E+01 -0.10429829862E+03 -0.18607320966E+03  0.24733008713E+03  0.12509000000E+03 0.  0.
<mgrwt>
<rscale>  2 0.45697762E+03</rscale>
<asrwt>0</asrwt>
<pdfrwt beam="1">  1       21 0.16906111E-01 0.45697762E+03</pdfrwt>
<pdfrwt beam="2">  1       21 0.66783371E-01 0.45697762E+03</pdfrwt>
<totfact> 0.59683583E+04</totfact>
</mgrwt>
</event>
<event>
 7    0  0.4707675E-002  0.4461934E+03  0.7546771E-02  0.1028863E+00
         21   -1    0    0  502  501  0.00000000000E+00  0.00000000000E+00  0.11849432093E+03  0.11849432093E+03  0.00000000000E+00 0. -1.
         21   -1    0    0  501  502 -0.00000000000E+00 -0.00000000000E+00 -0.42003825568E+03  0.42003825568E+03  0.00000000000E+00 0. -1.
      99926    2    1    2    0    0  0.00000000000E+00 -0.71054273576E-14 -0.30154393475E+03  0.53853257661E+03  0.44619344626E+03 0.  0.
      99925    2    3    3    0    0 -0.90366488920E+02 -0.33673800972E+02 -0.24036672894E+03  0.36915080131E+03  0.26305155870E+03 0.  0.
         25    1    4    4    0    0 -0.30425337322E+02  0.11715232010E+02 -0.14765533002E+03  0.19624615256E+03  0.12509000000E+03 0.  0.
         25    1    3    3    0    0  0.90366488920E+02  0.33673800972E+02 -0.61177205808E+02  0.16938177530E+03  0.12509000000E+03 0.  0.
         25    1    4    4    0    0 -0.59941151599E+02 -0.45389032982E+02 -0.92711398928E+02  0.17290464876E+03  0.12509000000E+03 0.  0.
<mgrwt>
<rscale>  2 0.44619345E+03</rscale>
<asrwt>0</asrwt>
<pdfrwt beam="1">  1       21 0.17425635E-01 0.44619345E+03</pdfrwt>
<pdfrwt beam="2">  1       21 0.61770332E-01 0.44619345E+03</pdfrwt>
<totfact> 0.67192743E+04</totfact>
</mgrwt>
</event>
<event>
 7    0  0.4707675E-002  0.4673137E+03  0.7546771E-02  0.1022681E+00
         21   -1    0    0  502  501  0.00000000000E+00  0.00000000000E+00  0.25553653529E+02  0.25553653529E+02  0.00000000000E+00 0. -1.
         21   -1    0    0  501  502 -0.00000000000E+00 -0.00000000000E+00 -0.21365059518E+04  0.21365059518E+04  0.00000000000E+00 0. -1.
      99926    2    1    2    0    0  0.00000000000E+00 -0.22204460493E-14 -0.21109522983E+04  0.21620596054E+04  0.46731373982E+03 0.  0.
      99925    2    3    3    0    0 -0.11723347709E+03 -0.37941475840E+01 -0.15078487931E+04  0.15350512882E+04  0.26270970829E+03 0.  0.
         25    1    4    4    0    0 -0.76344118417E+02  0.15514300097E+02 -0.96248529232E+03  0.97370147579E+03  0.12509000000E+03 0.  0.
         25    1    3    3    0    0  0.11723347709E+03  0.37941475840E+01 -0.60310350516E+03  0.62700831713E+03  0.12509000000E+03 0.  0.
         25    1    4    4    0    0 -0.40889358671E+02 -0.19308447681E+02 -0.54536350082E+03  0.56134981245E+03  0.12509000000E+03 0.  0.
<mgrwt>
<rscale>  2 0.46731374E+03</rscale>
<asrwt>0</asrwt>
<pdfrwt beam="1">  1       21 0.37578918E-02 0.46731374E+03</pdfrwt>
<pdfrwt beam="2">  1       21 0.31419192E+00 0.46731374E+03</pdfrwt>
<totfact> 0.10226429E+04</totfact>
</mgrwt>
</event>
<event>
 7    0  0.4707675E-002  0.4544246E+03  0.7546771E-02  0.1026411E+00
         21   -1    0    0  502  501  0.00000000000E+00  0.00000000000E+00  0.70294147636E+02  0.70294147636E+02  0.00000000000E+00 0. -1.
         21   -1    0    0  501  502 -0.00000000000E+00 -0.00000000000E+00 -0.73442016431E+03  0.73442016431E+03  0.00000000000E+00 0. -1.
      99926    2    1    2    0    0  0.44408920985E-15  0.00000000000E+00 -0.66412601668E+03  0.80471431195E+03  0.45442464483E+03 0.  0.
      99925    2    3    3    0    0 -0.21130600787E+01 -0.10086501415E+03 -0.32695702518E+03  0.43120574039E+03  0.26241051452E+03 0.  0.
         25    1    4    4    0    0  0.22658275746E+02 -0.26495551333E+02 -0.18788034969E+03  0.22838989820E+03  0.12509000000E+03 0.  0.
         25    1    4    4    0    0 -0.24771335825E+02 -0.74369462813E+02 -0.13907667549E+03  0.20281584219E+03  0.12509000000E+03 0.  0.
         25    1    3    3    0    0  0.21130600787E+01  0.10086501415E+03 -0.33716899149E+03  0.37350857156E+03  0.12509000000E+03 0.  0.
<mgrwt>
<rscale>  2 0.45442464E+03</rscale>
<asrwt>0</asrwt>
<pdfrwt beam="1">  1       21 0.10337375E-01 0.45442464E+03</pdfrwt>
<pdfrwt beam="2">  1       21 0.10800296E+00 0.45442464E+03</pdfrwt>
<totfact> 0.47752872E+04</totfact>
</mgrwt>
</event>
<event>
 7    0  0.4707675E-002  0.4610226E+03  0.7546771E-02  0.1024485E+00
         21   -1    0    0  502  501  0.00000000000E+00  0.00000000000E+00  0.42439799320E+03  0.42439799320E+03  0.00000000000E+00 0. -1.
         21   -1    0    0  501  502 -0.00000000000E+00 -0.00000000000E+00 -0.12520198259E+03  0.12520198259E+03  0.00000000000E+00 0. -1.
      99926    2    1    2    0    0 -0.17763568394E-14  0.00000000000E+00  0.29919601060E+03  0.54959997579E+03  0.46102264655E+03 0.  0.
      99925    2    3    3    0    0  0.79370970163E+01  0.11045846420E+03  0.23842496558E+03  0.37182287424E+03  0.26294812373E+03 0.  0.
         25    1    4    4    0    0  0.19907653071E+02  0.95719913762E+02  0.13535166485E+03  0.20862933116E+03  0.12509000000E+03 0.  0.
         25    1    4    4    0    0 -0.11970556055E+02  0.14738550437E+02  0.10307330072E+03  0.16319354308E+03  0.12509000000E+03 0.  0.
         25    1    3    3    0    0 -0.79370970163E+01 -0.11045846420E+03  0.60771045026E+02  0.17777710155E+03  0.12509000000E+03 0.  0.
<mgrwt>
<rscale>  2 0.46102265E+03</rscale>
<asrwt>0</asrwt>
<pdfrwt beam="1">  1       21 0.62411469E-01 0.46102265E+03</pdfrwt>
<pdfrwt beam="2">  1       21 0.18412056E-01 0.46102265E+03</pdfrwt>
<totfact> 0.59029402E+04</totfact>
</mgrwt>
</event>
<event>
 7    0  0.4707675E-002  0.4595284E+03  0.7546771E-02  0.1024918E+00
         21   -1    0    0  502  501  0.00000000000E+00  0.00000000000E+00  0.19000650841E+03  0.19000650841E+03  0.00000000000E+00 0.  1.
         21   -1    0    0  501  502 -0.00000000000E+00 -0.00000000000E+00 -0.27784095439E+03  0.27784095439E+03  0.00000000000E+00 0.  1.
      99926    2    1    2    0    0  0.17763568394E-14  0.00000000000E+00 -0.87834445977E+02  0.46784746280E+03  0.45952840886E+03 0.  0.
      99925    2    3    3    0    0  0.64443154169E+01  0.59261379339E+02 -0.15803009792E+03  0.31251434356E+03  0.26294155776E+03 0.  0.
         25    1    3    3    0    0 -0.64443154169E+01 -0.59261379339E+02  0.70195651944E+02  0.15533311924E+03  0.12509000000E+03 0.  0.
         25    1    4    4    0    0  0.32955292963E+02  0.52398337744E+01 -0.60750549394E+02  0.14300924636E+03  0.12509000000E+03 0.  0.
         25    1    4    4    0    0 -0.26510977546E+02  0.54021545565E+02 -0.97279548527E+02  0.16950509720E+03  0.12509000000E+03 0.  0.
<mgrwt>
<rscale>  2 0.45952841E+03</rscale>
<asrwt>0</asrwt>
<pdfrwt beam="1">  1       21 0.27942134E-01 0.45952841E+03</pdfrwt>
<pdfrwt beam="2">  1       21 0.40858963E-01 0.45952841E+03</pdfrwt>
<totfact> 0.65219781E+04</totfact>
</mgrwt>
</event>
<event>
 7    0  0.4707675E-002  0.4548513E+03  0.7546771E-02  0.1026285E+00
         21   -1    0    0  502  501  0.00000000000E+00  0.00000000000E+00  0.10497641672E+04  0.10497641672E+04  0.00000000000E+00 0. -1.
         21   -1    0    0  501  502 -0.00000000000E+00 -0.00000000000E+00 -0.49270511365E+02  0.49270511365E+02  0.00000000000E+00 0. -1.
      99926    2    1    2    0    0  0.35527136788E-14  0.00000000000E+00  0.10004936559E+04  0.10990346786E+04  0.45485126067E+03 0.  0.
      99925    2    3    3    0    0  0.31249181636E+02 -0.10258053109E+03  0.71447169477E+03  0.76895083009E+03  0.26327988864E+03 0.  0.
         25    1    4    4    0    0  0.45322344454E+02 -0.40002607555E+02  0.28504020482E+03  0.31709580568E+03  0.12509000000E+03 0.  0.
         25    1    4    4    0    0 -0.14073162818E+02 -0.62577923539E+02  0.42943148995E+03  0.45185502441E+03  0.12509000000E+03 0.  0.
         25    1    3    3    0    0 -0.31249181636E+02  0.10258053109E+03  0.28602196110E+03  0.33008384851E+03  0.12509000000E+03 0.  0.
<mgrwt>
<rscale>  2 0.45485126E+03</rscale>
<asrwt>0</asrwt>
<pdfrwt beam="1">  1       21 0.15437707E+00 0.45485126E+03</pdfrwt>
<pdfrwt beam="2">  1       21 0.72456641E-02 0.45485126E+03</pdfrwt>
<totfact> 0.35568989E+04</totfact>
</mgrwt>
</event>
<event>
 7    0  0.4707675E-002  0.4781208E+03  0.7546771E-02  0.1019653E+00
         21   -1    0    0  502  501  0.00000000000E+00  0.00000000000E+00  0.64394495466E+02  0.64394495466E+02  0.00000000000E+00 0. -1.
         21   -1    0    0  501  502 -0.00000000000E+00 -0.00000000000E+00 -0.88749635303E+03  0.88749635303E+03  0.00000000000E+00 0. -1.
      99926    2    1    2    0    0  0.00000000000E+00 -0.17763568394E-14 -0.82310185756E+03  0.95189084850E+03  0.47812082105E+03 0.  0.
      99925    2    3    3    0    0 -0.13283773163E+03 -0.15373430684E+02 -0.50402815718E+03  0.58400806867E+03  0.26294264722E+03 0.  0.
         25    1    3    3    0    0  0.13283773163E+03  0.15373430684E+02 -0.31907370039E+03  0.36788277983E+03  0.12509000000E+03 0.  0.
         25    1    4    4    0    0 -0.73830371840E+02  0.73496516228E+01 -0.18329619864E+03  0.23398706315E+03  0.12509000000E+03 0.  0.
         25    1    4    4    0    0 -0.59007359786E+02 -0.22723082306E+02 -0.32073195854E+03  0.35002100552E+03  0.12509000000E+03 0.  0.
<mgrwt>
<rscale>  2 0.47812082E+03</rscale>
<asrwt>0</asrwt>
<pdfrwt beam="1">  1       21 0.94697792E-02 0.47812082E+03</pdfrwt>
<pdfrwt beam="2">  1       21 0.13051416E+00 0.47812082E+03</pdfrwt>
<totfact> 0.34406292E+04</totfact>
</mgrwt>
</event>
<event>
 7    0  0.4707675E-002  0.4582043E+03  0.7546771E-02  0.1025303E+00
         21   -1    0    0  502  501  0.00000000000E+00  0.00000000000E+00  0.76675330710E+02  0.76675330710E+02  0.00000000000E+00 0. -1.
         21   -1    0    0  501  502 -0.00000000000E+00 -0.00000000000E+00 -0.68454593930E+03  0.68454593930E+03  0.00000000000E+00 0. -1.
      99926    2    1    2    0    0  0.00000000000E+00  0.35527136788E-14 -0.60787060859E+03  0.76122127001E+03  0.45820426136E+03 0.  0.
      99925    2    3    3    0    0  0.98682810735E+02  0.29836912483E+02 -0.46869634319E+03  0.54757314170E+03  0.26368834807E+03 0.  0.
         25    1    4    4    0    0  0.19953164488E+02  0.41823303599E+02 -0.24962125270E+03  0.28302931897E+03  0.12509000000E+03 0.  0.
         25    1    3    3    0    0 -0.98682810735E+02 -0.29836912483E+02 -0.13917426539E+03  0.21364812831E+03  0.12509000000E+03 0.  0.
         25    1    4    4    0    0  0.78729646247E+02 -0.11986391115E+02 -0.21907509050E+03  0.26454382273E+03  0.12509000000E+03 0.  0.
<mgrwt>
<rscale>  2 0.45820426E+03</rscale>
<asrwt>0</asrwt>
<pdfrwt beam="1">  1       21 0.11275783E-01 0.45820426E+03</pdfrwt>
<pdfrwt beam="2">  1       21 0.10066853E+00 0.45820426E+03</pdfrwt>
<totfact> 0.48466474E+04</totfact>
</mgrwt>
</event>
<event>
 7    0  0.4707675E-002  0.4534893E+03  0.7546771E-02  0.1026687E+00
         21   -1    0    0  502  501  0.00000000000E+00  0.00000000000E+00  0.83001773118E+02  0.83001773118E+02  0.00000000000E+00 0.  1.
         21   -1    0    0  501  502 -0.00000000000E+00 -0.00000000000E+00 -0.61942205626E+03  0.61942205626E+03  0.00000000000E+00 0.  1.
      99926    2    1    2    0    0  0.35527136788E-14  0.00000000000E+00 -0.53642028314E+03  0.70242382938E+03  0.45348926769E+03 0.  0.
      99925    2    3    3    0    0 -0.21829225898E+02 -0.44977690274E+02 -0.49280718411E+03  0.56082892046E+03  0.26300313608E+03 0.  0.
         25    1    3    3    0    0  0.21829225898E+02  0.44977690274E+02 -0.43613099036E+02  0.14159490892E+03  0.12509000000E+03 0.  0.
         25    1    4    4    0    0 -0.33053016112E+02 -0.57280147495E+02 -0.26419767863E+03  0.29970225001E+03  0.12509000000E+03 0.  0.
         25    1    4    4    0    0  0.11223790214E+02  0.12302457221E+02 -0.22860950548E+03  0.26112667044E+03  0.12509000000E+03 0.  0.
<mgrwt>
<rscale>  2 0.45348927E+03</rscale>
<asrwt>0</asrwt>
<pdfrwt beam="1">  1       21 0.12206143E-01 0.45348927E+03</pdfrwt>
<pdfrwt beam="2">  1       21 0.91091481E-01 0.45348927E+03</pdfrwt>
<totfact> 0.53403604E+04</totfact>
</mgrwt>
</event>
<event>
 7    0  0.4707675E-002  0.4575807E+03  0.7546771E-02  0.1025485E+00
         21   -1    0    0  502  501  0.00000000000E+00  0.00000000000E+00  0.30137621660E+03  0.30137621660E+03  0.00000000000E+00 0.  1.
         21   -1    0    0  501  502 -0.00000000000E+00 -0.00000000000E+00 -0.17368667819E+03  0.17368667819E+03  0.00000000000E+00 0.  1.
      99926    2    1    2    0    0  0.00000000000E+00  0.14210854715E-13  0.12768953840E+03  0.47506289479E+03  0.45758074237E+03 0.  0.
      99925    2    3    3    0    0 -0.78486825728E+02  0.84883532998E+02  0.94510475938E+02  0.30152974443E+03  0.26195908216E+03 0.  0.
         25    1    4    4    0    0 -0.21552882970E+02  0.82748975892E+01  0.59032960710E+02  0.14023337422E+03  0.12509000000E+03 0.  0.
         25    1    4    4    0    0 -0.56933942758E+02  0.76608635409E+02  0.35477515228E+02  0.16129637021E+03  0.12509000000E+03 0.  0.
         25    1    3    3    0    0  0.78486825728E+02 -0.84883532998E+02  0.33179062463E+02  0.17353315036E+03  0.12509000000E+03 0.  0.
<mgrwt>
<rscale>  2 0.45758074E+03</rscale>
<asrwt>0</asrwt>
<pdfrwt beam="1">  1       21 0.44320032E-01 0.45758074E+03</pdfrwt>
<pdfrwt beam="2">  1       21 0.25542159E-01 0.45758074E+03</pdfrwt>
<totfact> 0.65705402E+04</totfact>
</mgrwt>
</event>
<event>
 7    0  0.4707675E-002  0.4536404E+03  0.7546771E-02  0.1026642E+00
         21   -1    0    0  502  501  0.00000000000E+00  0.00000000000E+00  0.89299812317E+03  0.89299812317E+03  0.00000000000E+00 0.  1.
         21   -1    0    0  501  502 -0.00000000000E+00 -0.00000000000E+00 -0.57612006057E+02  0.57612006057E+02  0.00000000000E+00 0.  1.
      99926    2    1    2    0    0  0.00000000000E+00  0.14210854715E-13  0.83538611712E+03  0.95061012923E+03  0.45364044476E+03 0.  0.
      99925    2    3    3    0    0 -0.31676296343E+02  0.10331870635E+03  0.46576849810E+03  0.54571157994E+03  0.26302602879E+03 0.  0.
         25    1    4    4    0    0 -0.50360166600E+02  0.75679001221E+02  0.26523408724E+03  0.30701805605E+03  0.12509000000E+03 0.  0.
         25    1    3    3    0    0  0.31676296343E+02 -0.10331870635E+03  0.36961761902E+03  0.40489854929E+03  0.12509000000E+03 0.  0.
         25    1    4    4    0    0  0.18683870257E+02  0.27639705131E+02  0.20053441086E+03  0.23869352389E+03  0.12509000000E+03 0.  0.
<mgrwt>
<rscale>  2 0.45364044E+03</rscale>
<asrwt>0</asrwt>
<pdfrwt beam="1">  1       21 0.13132324E+00 0.45364044E+03</pdfrwt>
<pdfrwt beam="2">  1       21 0.84723544E-02 0.45364044E+03</pdfrwt>
<totfact> 0.41556156E+04</totfact>
</mgrwt>
</event>
<event>
 7    0  0.4707675E-002  0.4501268E+03  0.7546771E-02  0.1027684E+00
         21   -1    0    0  502  501  0.00000000000E+00  0.00000000000E+00  0.67855973344E+03  0.67855973344E+03  0.00000000000E+00 0. -1.
         21   -1    0    0  501  502 -0.00000000000E+00 -0.00000000000E+00 -0.74648586365E+02  0.74648586365E+02  0.00000000000E+00 0. -1.
      99926    2    1    2    0    0  0.00000000000E+00 -0.71054273576E-14  0.60391114708E+03  0.75320831981E+03  0.45012675933E+03 0.  0.
      99925    2    3    3    0    0 -0.62780886675E+02  0.45723386720E+02  0.25481373341E+03  0.37433026534E+03  0.26298486837E+03 0.  0.
         25    1    4    4    0    0 -0.55656588544E+02  0.56185065602E+02  0.12656406396E+03  0.19473157893E+03  0.12509000000E+03 0.  0.
         25    1    3    3    0    0  0.62780886675E+02 -0.45723386720E+02  0.34909741367E+03  0.37887805446E+03  0.12509000000E+03 0.  0.
         25    1    4    4    0    0 -0.71242981312E+01 -0.10461678882E+02  0.12824966945E+03  0.17959868642E+03  0.12509000000E+03 0.  0.
<mgrwt>
<rscale>  2 0.45012676E+03</rscale>
<asrwt>0</asrwt>
<pdfrwt beam="1">  1       21 0.99788193E-01 0.45012676E+03</pdfrwt>
<pdfrwt beam="2">  1       21 0.10977734E-01 0.45012676E+03</pdfrwt>
<totfact> 0.52073313E+04</totfact>
</mgrwt>
</event>
<event>
 7    0  0.4707675E-002  0.4532756E+03  0.7546771E-02  0.1026750E+00
         21   -1    0    0  502  501  0.00000000000E+00  0.00000000000E+00  0.97756714286E+02  0.97756714286E+02  0.00000000000E+00 0. -1.
         21   -1    0    0  501  502 -0.00000000000E+00 -0.00000000000E+00 -0.52543382482E+03  0.52543382482E+03  0.00000000000E+00 0. -1.
      99926    2    1    2    0    0 -0.14210854715E-13  0.17763568394E-14 -0.42767711054E+03  0.62319053911E+03  0.45327556426E+03 0.  0.
      99925    2    3    3    0    0  0.97480325721E+02 -0.14236495011E+02 -0.34150800084E+03  0.44214437025E+03  0.26298067954E+03 0.  0.
         25    1    4    4    0    0  0.75503233004E+02 -0.19067917633E+02 -0.13605429571E+03  0.20055573579E+03  0.12509000000E+03 0.  0.
         25    1    4    4    0    0  0.21977092717E+02  0.48314226218E+01 -0.20545370513E+03  0.24158863446E+03  0.12509000000E+03 0.  0.
         25    1    3    3    0    0 -0.97480325721E+02  0.14236495011E+02 -0.86169109697E+02  0.18104616886E+03  0.12509000000E+03 0.  0.
<mgrwt>
<rscale>  2 0.45327556E+03</rscale>
<asrwt>0</asrwt>
<pdfrwt beam="1">  1       21 0.14375987E-01 0.45327556E+03</pdfrwt>
<pdfrwt beam="2">  1       21 0.77269680E-01 0.45327556E+03</pdfrwt>
<totfact> 0.58059546E+04</totfact>
</mgrwt>
</event>
<event>
 7    0  0.4707675E-002  0.4443313E+03  0.7546771E-02  0.1029426E+00
         21   -1    0    0  502  501  0.00000000000E+00  0.00000000000E+00  0.35241179187E+03  0.35241179187E+03  0.00000000000E+00 0. -1.
         21   -1    0    0  501  502 -0.00000000000E+00 -0.00000000000E+00 -0.14005653412E+03  0.14005653412E+03  0.00000000000E+00 0. -1.
      99926    2    1    2    0    0  0.00000000000E+00  0.00000000000E+00  0.21235525775E+03  0.49246832600E+03  0.44433129151E+03 0.  0.
      99925    2    3    3    0    0  0.27654194700E+02  0.96281633129E+02  0.10940408803E+03  0.30199166389E+03  0.26304905097E+03 0.  0.
         25    1    3    3    0    0 -0.27654194700E+02 -0.96281633129E+02  0.10295116972E+03  0.19047666211E+03  0.12509000000E+03 0.  0.
         25    1    4    4    0    0  0.46371950097E+02  0.23244973506E+02  0.53399304918E+02  0.14556675587E+03  0.12509000000E+03 0.  0.
         25    1    4    4    0    0 -0.18717755397E+02  0.73036659623E+02  0.56004783111E+02  0.15642490801E+03  0.12509000000E+03 0.  0.
<mgrwt>
<rscale>  2 0.44433129E+03</rscale>
<asrwt>0</asrwt>
<pdfrwt beam="1">  1       21 0.51825263E-01 0.44433129E+03</pdfrwt>
<pdfrwt beam="2">  1       21 0.20596549E-01 0.44433129E+03</pdfrwt>
<totfact> 0.71684385E+04</totfact>
</mgrwt>
</event>
<event>
 7    0  0.4707675E-002  0.4485929E+03  0.7546771E-02  0.1028142E+00
         21   -1    0    0  502  501  0.00000000000E+00  0.00000000000E+00  0.26147344199E+03  0.26147344199E+03  0.00000000000E+00 0. -1.
         21   -1    0    0  501  502 -0.00000000000E+00 -0.00000000000E+00 -0.19240534183E+03  0.19240534183E+03  0.00000000000E+00 0. -1.
      99926    2    1    2    0    0  0.00000000000E+00 -0.35527136788E-14  0.69068100155E+02  0.45387878382E+03  0.44859285320E+03 0.  0.
      99925    2    3    3    0    0  0.85630656145E+02 -0.15035912940E+02 -0.19282116686E+02  0.27777666326E+03  0.26311477853E+03 0.  0.
         25    1    3    3    0    0 -0.85630656145E+02  0.15035912940E+02  0.88350216841E+02  0.17610212056E+03  0.12509000000E+03 0.  0.
         25    1    4    4    0    0  0.33681894531E+02  0.21417759331E+02  0.18270910116E+02  0.13256894316E+03  0.12509000000E+03 0.  0.
         25    1    4    4    0    0  0.51948761614E+02 -0.36453672271E+02 -0.37553026801E+02  0.14520772010E+03  0.12509000000E+03 0.  0.
<mgrwt>
<rscale>  2 0.44859285E+03</rscale>
<asrwt>0</asrwt>
<pdfrwt beam="1">  1       21 0.38451977E-01 0.44859285E+03</pdfrwt>
<pdfrwt beam="2">  1       21 0.28294903E-01 0.44859285E+03</pdfrwt>
<totfact> 0.72250605E+04</totfact>
</mgrwt>
</event>
<event>
 7    0  0.4707675E-002  0.4521862E+03  0.7546771E-02  0.1027072E+00
         21   -1    0    0  502  501  0.00000000000E+00  0.00000000000E+00  0.11973333400E+04  0.11973333400E+04  0.00000000000E+00 0. -1.
         21   -1    0    0  501  502 -0.00000000000E+00 -0.00000000000E+00 -0.42693274260E+02  0.42693274260E+02  0.00000000000E+00 0. -1.
      99926    2    1    2    0    0  0.00000000000E+00  0.00000000000E+00  0.11546400657E+04  0.12400266143E+04  0.45218615930E+03 0.  0.
      99925    2    3    3    0    0 -0.21383254565E+02  0.10741011763E+03  0.69006704822E+03  0.74660005067E+03  0.26310630490E+03 0.  0.
         25    1    4    4    0    0  0.29269393172E+02  0.43228225453E+02  0.32669145241E+03  0.35369505231E+03  0.12509000000E+03 0.  0.
         25    1    4    4    0    0 -0.50652647737E+02  0.64181892179E+02  0.36337559581E+03  0.39290499836E+03  0.12509000000E+03 0.  0.
         25    1    3    3    0    0  0.21383254565E+02 -0.10741011763E+03  0.46457301753E+03  0.49342656359E+03  0.12509000000E+03 0.  0.
<mgrwt>
<rscale>  2 0.45218616E+03</rscale>
<asrwt>0</asrwt>
<pdfrwt beam="1">  1       21 0.17607841E+00 0.45218616E+03</pdfrwt>
<pdfrwt beam="2">  1       21 0.62784235E-02 0.45218616E+03</pdfrwt>
<totfact> 0.31593839E+04</totfact>
</mgrwt>
</event>
<event>
 7    0  0.4707675E-002  0.4475956E+03  0.7546771E-02  0.1028441E+00
         21   -1    0    0  502  501  0.00000000000E+00  0.00000000000E+00  0.84945100285E+02  0.84945100285E+02  0.00000000000E+00 0. -1.
         21   -1    0    0  501  502 -0.00000000000E+00 -0.00000000000E+00 -0.58962139908E+03  0.58962139908E+03  0.00000000000E+00 0. -1.
      99926    2    1    2    0    0  0.00000000000E+00  0.00000000000E+00 -0.50467629879E+03  0.67456649936E+03  0.44759557136E+03 0.  0.
      99925    2    3    3    0    0 -0.43878890639E+02  0.23181766099E+02 -0.17868619433E+03  0.32189128386E+03  0.26310167475E+03 0.  0.
         25    1    4    4    0    0 -0.36187784576E+02 -0.21319652905E+02 -0.11219606193E+03  0.17320377526E+03  0.12509000000E+03 0.  0.
         25    1    3    3    0    0  0.43878890639E+02 -0.23181766099E+02 -0.32599010447E+03  0.35267521551E+03  0.12509000000E+03 0.  0.
         25    1    4    4    0    0 -0.76911060635E+01  0.44501419004E+02 -0.66490132402E+02  0.14868750860E+03  0.12509000000E+03 0.  0.
<mgrwt>
<rscale>  2 0.44759557E+03</rscale>
<asrwt>0</asrwt>
<pdfrwt beam="1">  1       21 0.12491926E-01 0.44759557E+03</pdfrwt>
<pdfrwt beam="2">  1       21 0.86709033E-01 0.44759557E+03</pdfrwt>
<totfact> 0.57591929E+04</totfact>
</mgrwt>
</event>
<event>
 7    0  0.4707675E-002  0.4539384E+03  0.7546771E-02  0.1026554E+00
         21   -1    0    0  502  501  0.00000000000E+00  0.00000000000E+00  0.62485623817E+03  0.62485623817E+03  0.00000000000E+00 0. -1.
         21   -1    0    0  501  502 -0.00000000000E+00 -0.00000000000E+00 -0.82442992139E+02  0.82442992139E+02  0.00000000000E+00 0. -1.
      99926    2    1    2    0    0  0.00000000000E+00  0.00000000000E+00  0.54241324603E+03  0.70729923030E+03  0.45393840080E+03 0.  0.
      99925    2    3    3    0    0 -0.51069972962E+02  0.42651532716E+02  0.48233018049E+03  0.55340063302E+03  0.26302578246E+03 0.  0.
         25    1    4    4    0    0 -0.17709655879E+02 -0.13450695456E+02  0.27090985930E+03  0.29922268143E+03  0.12509000000E+03 0.  0.
         25    1    4    4    0    0 -0.33360317082E+02  0.56102228171E+02  0.21142032119E+03  0.25417795159E+03  0.12509000000E+03 0.  0.
         25    1    3    3    0    0  0.51069972962E+02 -0.42651532716E+02  0.60083065540E+02  0.15389859728E+03  0.12509000000E+03 0.  0.
<mgrwt>
<rscale>  2 0.45393840E+03</rscale>
<asrwt>0</asrwt>
<pdfrwt beam="1">  1       21 0.91890621E-01 0.45393840E+03</pdfrwt>
<pdfrwt beam="2">  1       21 0.12123970E-01 0.45393840E+03</pdfrwt>
<totfact> 0.52949347E+04</totfact>
</mgrwt>
</event>
<event>
 7    0  0.4707675E-002  0.4540800E+03  0.7546771E-02  0.1026512E+00
         21   -1    0    0  502  501  0.00000000000E+00  0.00000000000E+00  0.37607849142E+03  0.37607849142E+03  0.00000000000E+00 0. -1.
         21   -1    0    0  501  502 -0.00000000000E+00 -0.00000000000E+00 -0.13706492107E+03  0.13706492107E+03  0.00000000000E+00 0. -1.
      99926    2    1    2    0    0  0.17763568394E-14  0.00000000000E+00  0.23901357035E+03  0.51314341250E+03  0.45408003147E+03 0.  0.
      99925    2    3    3    0    0 -0.65234824955E+01 -0.85897989235E+02  0.69120681865E+02  0.28525720836E+03  0.26300757761E+03 0.  0.
         25    1    4    4    0    0 -0.39822194648E+02 -0.27894498396E+02  0.43757650876E+02  0.14116001678E+03  0.12509000000E+03 0.  0.
         25    1    3    3    0    0  0.65234824955E+01  0.85897989235E+02  0.16989288848E+03  0.22788620414E+03  0.12509000000E+03 0.  0.
         25    1    4    4    0    0  0.33298712152E+02 -0.58003490839E+02  0.25363030988E+02  0.14409719158E+03  0.12509000000E+03 0.  0.
<mgrwt>
<rscale>  2 0.45408003E+03</rscale>
<asrwt>0</asrwt>
<pdfrwt beam="1">  1       21 0.55305660E-01 0.45408003E+03</pdfrwt>
<pdfrwt beam="2">  1       21 0.20156606E-01 0.45408003E+03</pdfrwt>
<totfact> 0.64828795E+04</totfact>
</mgrwt>
</event>
<event>
 7    0  0.4707675E-002  0.4540488E+03  0.7546771E-02  0.1026521E+00
         21   -1    0    0  502  501  0.00000000000E+00  0.00000000000E+00  0.38364091494E+03  0.38364091494E+03  0.00000000000E+00 0.  1.
         21   -1    0    0  501  502 -0.00000000000E+00 -0.00000000000E+00 -0.13434456883E+03  0.13434456883E+03  0.00000000000E+00 0.  1.
      99926    2    1    2    0    0  0.00000000000E+00  0.00000000000E+00  0.24929634611E+03  0.51798548377E+03  0.45404877845E+03 0.  0.
      99925    2    3    3    0    0 -0.71448867016E+02 -0.35151671807E+02  0.24745350205E+03  0.36969022153E+03  0.26286316514E+03 0.  0.
         25    1    3    3    0    0  0.71448867016E+02  0.35151671807E+02  0.18428440571E+01  0.14829526224E+03  0.12509000000E+03 0.  0.
         25    1    4    4    0    0 -0.19395907921E+02 -0.45450088541E+02  0.15563082527E+03  0.20569485572E+03  0.12509000000E+03 0.  0.
         25    1    4    4    0    0 -0.52052959096E+02  0.10298416735E+02  0.91822676779E+02  0.16399536581E+03  0.12509000000E+03 0.  0.
<mgrwt>
<rscale>  2 0.45404878E+03</rscale>
<asrwt>0</asrwt>
<pdfrwt beam="1">  1       21 0.56417781E-01 0.45404878E+03</pdfrwt>
<pdfrwt beam="2">  1       21 0.19756554E-01 0.45404878E+03</pdfrwt>
<totfact> 0.64510226E+04</totfact>
</mgrwt>
</event>
<event>
 7    0  0.4707675E-002  0.4344212E+03  0.7546771E-02  0.1032472E+00
         21   -1    0    0  502  501  0.00000000000E+00  0.00000000000E+00  0.26327691108E+02  0.26327691108E+02  0.00000000000E+00 0.  1.
         21   -1    0    0  501  502 -0.00000000000E+00 -0.00000000000E+00 -0.17920468035E+04  0.17920468035E+04  0.00000000000E+00 0.  1.
      99926    2    1    2    0    0  0.14210854715E-13  0.00000000000E+00 -0.17657191124E+04  0.18183744946E+04  0.43442124577E+03 0.  0.
      99925    2    3    3    0    0 -0.81476405248E+02  0.12441049347E+02 -0.95750431295E+03  0.99639404809E+03  0.26304639407E+03 0.  0.
         25    1    4    4    0    0 -0.10992156898E+02  0.15997158732E+02 -0.54808472930E+03  0.56251321335E+03  0.12509000000E+03 0.  0.
         25    1    3    3    0    0  0.81476405248E+02 -0.12441049347E+02 -0.80821479948E+03  0.82198044655E+03  0.12509000000E+03 0.  0.
         25    1    4    4    0    0 -0.70484248350E+02 -0.35561093847E+01 -0.40941958364E+03  0.43388083474E+03  0.12509000000E+03 0.  0.
<mgrwt>
<rscale>  2 0.43442125E+03</rscale>
<asrwt>0</asrwt>
<pdfrwt beam="1">  1       21 0.38717180E-02 0.43442125E+03</pdfrwt>
<pdfrwt beam="2">  1       21 0.26353638E+00 0.43442125E+03</pdfrwt>
<totfact> 0.19903012E+04</totfact>
</mgrwt>
</event>
<event>
 7    0  0.4707675E-002  0.4628861E+03  0.7546771E-02  0.1023947E+00
         21   -1    0    0  502  501  0.00000000000E+00  0.00000000000E+00  0.53522820819E+03  0.53522820819E+03  0.00000000000E+00 0. -1.
         21   -1    0    0  501  502 -0.00000000000E+00 -0.00000000000E+00 -0.10008043961E+03  0.10008043961E+03  0.00000000000E+00 0. -1.
      99926    2    1    2    0    0  0.00000000000E+00  0.35527136788E-14  0.43514776857E+03  0.63530864780E+03  0.46288605236E+03 0.  0.
      99925    2    3    3    0    0 -0.11875370360E+03 -0.18522607867E+02  0.28532967703E+03  0.40609586941E+03  0.26278375414E+03 0.  0.
         25    1    4    4    0    0 -0.67636390345E+02 -0.46039491387E+02  0.12709866949E+03  0.19620371034E+03  0.12509000000E+03 0.  0.
         25    1    4    4    0    0 -0.51117313255E+02  0.27516883520E+02  0.15823100753E+03  0.20989215907E+03  0.12509000000E+03 0.  0.
         25    1    3    3    0    0  0.11875370360E+03  0.18522607867E+02  0.14981809155E+03  0.22921277839E+03  0.12509000000E+03 0.  0.
<mgrwt>
<rscale>  2 0.46288605E+03</rscale>
<asrwt>0</asrwt>
<pdfrwt beam="1">  1       21 0.78710029E-01 0.46288605E+03</pdfrwt>
<pdfrwt beam="2">  1       21 0.14717712E-01 0.46288605E+03</pdfrwt>
<totfact> 0.53168275E+04</totfact>
</mgrwt>
</event>
<event>
 7    0  0.4707675E-002  0.4491418E+03  0.7546771E-02  0.1027978E+00
         21   -1    0    0  502  501  0.00000000000E+00  0.00000000000E+00  0.34513670581E+03  0.34513670581E+03  0.00000000000E+00 0. -1.
         21   -1    0    0  501  502 -0.00000000000E+00 -0.00000000000E+00 -0.14612203644E+03  0.14612203644E+03  0.00000000000E+00 0. -1.
      99926    2    1    2    0    0  0.17763568394E-14  0.00000000000E+00  0.19901466937E+03  0.49125874225E+03  0.44914175180E+03 0.  0.
      99925    2    3    3    0    0 -0.13640785612E+02  0.10364978832E+03  0.97971916419E+02  0.29946068263E+03  0.26296169755E+03 0.  0.
         25    1    4    4    0    0  0.28055920408E+02  0.46481119269E+02  0.26350130117E+02  0.13888652410E+03  0.12509000000E+03 0.  0.
         25    1    4    4    0    0 -0.41696706021E+02  0.57168669054E+02  0.71621786302E+02  0.16057415853E+03  0.12509000000E+03 0.  0.
         25    1    3    3    0    0  0.13640785612E+02 -0.10364978832E+03  0.10104275295E+03  0.19179805962E+03  0.12509000000E+03 0.  0.
<mgrwt>
<rscale>  2 0.44914175E+03</rscale>
<asrwt>0</asrwt>
<pdfrwt beam="1">  1       21 0.50755398E-01 0.44914175E+03</pdfrwt>
<pdfrwt beam="2">  1       21 0.21488535E-01 0.44914175E+03</pdfrwt>
<totfact> 0.69044787E+04</totfact>
</mgrwt>
</event>
<event>
 7    0  0.4707675E-002  0.4488705E+03  0.7546771E-02  0.1028059E+00
         21   -1    0    0  502  501  0.00000000000E+00  0.00000000000E+00  0.63401655024E+03  0.63401655024E+03  0.00000000000E+00 0.  1.
         21   -1    0    0  501  502 -0.00000000000E+00 -0.00000000000E+00 -0.79447729217E+02  0.79447729217E+02  0.00000000000E+00 0.  1.
      99926    2    1    2    0    0 -0.71054273576E-14  0.00000000000E+00  0.55456882103E+03  0.71346427946E+03  0.44887047220E+03 0.  0.
      99925    2    3    3    0    0  0.56170177463E+02 -0.82783414957E+02  0.28912681826E+03  0.40343984887E+03  0.26298519349E+03 0.  0.
         25    1    3    3    0    0 -0.56170177463E+02  0.82783414957E+02  0.26544200277E+03  0.31002443059E+03  0.12509000000E+03 0.  0.
         25    1    4    4    0    0  0.56840834447E+02 -0.72491865597E+02  0.14783278357E+03  0.21444810803E+03  0.12509000000E+03 0.  0.
         25    1    4    4    0    0 -0.67065698470E+00 -0.10291549360E+02  0.14129403469E+03  0.18899174084E+03  0.12509000000E+03 0.  0.
<mgrwt>
<rscale>  2 0.44887047E+03</rscale>
<asrwt>0</asrwt>
<pdfrwt beam="1">  1       21 0.93237725E-01 0.44887047E+03</pdfrwt>
<pdfrwt beam="2">  1       21 0.11683490E-01 0.44887047E+03</pdfrwt>
<totfact> 0.54771749E+04</totfact>
</mgrwt>
</event>
<event>
 7    0  0.4707675E-002  0.4531031E+03  0.7546771E-02  0.1026801E+00
         21   -1    0    0  502  501  0.00000000000E+00  0.00000000000E+00  0.48475099486E+03  0.48475099486E+03  0.00000000000E+00 0.  1.
         21   -1    0    0  501  502 -0.00000000000E+00 -0.00000000000E+00 -0.10588034736E+03  0.10588034736E+03  0.00000000000E+00 0.  1.
      99926    2    1    2    0    0  0.00000000000E+00  0.00000000000E+00  0.37887064750E+03  0.59063134222E+03  0.45310309520E+03 0.  0.
      99925    2    3    3    0    0  0.35906770750E+02 -0.18195686482E+02  0.37414225646E+03  0.45913896612E+03  0.26306992025E+03 0.  0.
         25    1    4    4    0    0 -0.14487813614E+02 -0.11068856678E+02  0.13830133404E+03  0.18736911012E+03  0.12509000000E+03 0.  0.
         25    1    4    4    0    0  0.50394584364E+02 -0.71268298036E+01  0.23584092242E+03  0.27176985599E+03  0.12509000000E+03 0.  0.
         25    1    3    3    0    0 -0.35906770750E+02  0.18195686482E+02  0.47283910338E+01  0.13149237611E+03  0.12509000000E+03 0.  0.
<mgrwt>
<rscale>  2 0.45310310E+03</rscale>
<asrwt>0</asrwt>
<pdfrwt beam="1">  1       21 0.71286910E-01 0.45310310E+03</pdfrwt>
<pdfrwt beam="2">  1       21 0.15570640E-01 0.45310310E+03</pdfrwt>
<totfact> 0.60155449E+04</totfact>
</mgrwt>
</event>
<event>
 7    0  0.4707675E-002  0.4522851E+03  0.7546771E-02  0.1027043E+00
         21   -1    0    0  502  501  0.00000000000E+00  0.00000000000E+00  0.35076040378E+03  0.35076040378E+03  0.00000000000E+00 0. -1.
         21   -1    0    0  501  502 -0.00000000000E+00 -0.00000000000E+00 -0.14579880763E+03  0.14579880763E+03  0.00000000000E+00 0. -1.
      99926    2    1    2    0    0 -0.14210854715E-13 -0.71054273576E-14  0.20496159614E+03  0.49655921141E+03  0.45228508105E+03 0.  0.
      99925    2    3    3    0    0 -0.86459063267E+02 -0.53867482112E+02  0.80652524070E+02  0.29289986655E+03  0.26250452745E+03 0.  0.
         25    1    3    3    0    0  0.86459063267E+02  0.53867482112E+02  0.12430907207E+03  0.20365934486E+03  0.12509000000E+03 0.  0.
         25    1    4    4    0    0 -0.21646376851E+02 -0.57330017329E+02  0.54452416684E+02  0.14955891916E+03  0.12509000000E+03 0.  0.
         25    1    4    4    0    0 -0.64812686416E+02  0.34625352169E+01  0.26200107386E+02  0.14334094739E+03  0.12509000000E+03 0.  0.
<mgrwt>
<rscale>  2 0.45228508E+03</rscale>
<asrwt>0</asrwt>
<pdfrwt beam="1">  1       21 0.51582412E-01 0.45228508E+03</pdfrwt>
<pdfrwt beam="2">  1       21 0.21441001E-01 0.45228508E+03</pdfrwt>
<totfact> 0.66944240E+04</totfact>
</mgrwt>
</event>
<event>
 7    0  0.4707675E-002  0.4546849E+03  0.7546771E-02  0.1026334E+00
         21   -1    0    0  502  501  0.00000000000E+00  0.00000000000E+00  0.84612824752E+02  0.84612824752E+02  0.00000000000E+00 0.  1.
         21   -1    0    0  501  502 -0.00000000000E+00 -0.00000000000E+00 -0.61083636240E+03  0.61083636240E+03  0.00000000000E+00 0.  1.
      99926    2    1    2    0    0  0.00000000000E+00  0.00000000000E+00 -0.52622353765E+03  0.69544918715E+03  0.45468490225E+03 0.  0.
      99925    2    3    3    0    0  0.10118551429E+03  0.32315939961E+02 -0.38987064555E+03  0.48208928566E+03  0.26292229045E+03 0.  0.
         25    1    4    4    0    0  0.28591039250E+02 -0.14378005242E+02 -0.14771572989E+03  0.19619281209E+03  0.12509000000E+03 0.  0.
         25    1    3    3    0    0 -0.10118551429E+03 -0.32315939961E+02 -0.13635289210E+03  0.21335990148E+03  0.12509000000E+03 0.  0.
         25    1    4    4    0    0  0.72594475038E+02  0.46693945203E+02 -0.24215491565E+03  0.28589647357E+03  0.12509000000E+03 0.  0.
<mgrwt>
<rscale>  2 0.45468490E+03</rscale>
<asrwt>0</asrwt>
<pdfrwt beam="1">  1       21 0.12443063E-01 0.45468490E+03</pdfrwt>
<pdfrwt beam="2">  1       21 0.89828875E-01 0.45468490E+03</pdfrwt>
<totfact> 0.53282783E+04</totfact>
</mgrwt>
</event>
<event>
 7    0  0.4707675E-002  0.4531332E+03  0.7546771E-02  0.1026792E+00
         21   -1    0    0  502  501  0.00000000000E+00  0.00000000000E+00  0.13955876546E+03  0.13955876546E+03  0.00000000000E+00 0. -1.
         21   -1    0    0  501  502 -0.00000000000E+00 -0.00000000000E+00 -0.36781937034E+03  0.36781937034E+03  0.00000000000E+00 0. -1.
      99926    2    1    2    0    0 -0.19984014443E-14  0.00000000000E+00 -0.22826060488E+03  0.50737813579E+03  0.45313316910E+03 0.  0.
      99925    2    3    3    0    0  0.87923451254E+00  0.10827221219E+03 -0.17274919112E+03  0.33287120142E+03  0.26312983243E+03 0.  0.
         25    1    4    4    0    0 -0.38077334343E+02  0.47786188041E+02 -0.70778870453E+02  0.15617477313E+03  0.12509000000E+03 0.  0.
         25    1    3    3    0    0 -0.87923451254E+00 -0.10827221219E+03 -0.55511413756E+02  0.17450693437E+03  0.12509000000E+03 0.  0.
         25    1    4    4    0    0  0.38956568855E+02  0.60486024154E+02 -0.10197032067E+03  0.17669642830E+03  0.12509000000E+03 0.  0.
<mgrwt>
<rscale>  2 0.45313317E+03</rscale>
<asrwt>0</asrwt>
<pdfrwt beam="1">  1       21 0.20523348E-01 0.45313317E+03</pdfrwt>
<pdfrwt beam="2">  1       21 0.54091085E-01 0.45313317E+03</pdfrwt>
<totfact> 0.65723771E+04</totfact>
</mgrwt>
</event>
<event>
 7    0  0.4707675E-002  0.4558012E+03  0.7546771E-02  0.1026006E+00
         21   -1    0    0  502  501  0.00000000000E+00  0.00000000000E+00  0.38324203817E+03  0.38324203817E+03  0.00000000000E+00 0.  1.
         21   -1    0    0  501  502 -0.00000000000E+00 -0.00000000000E+00 -0.13552448748E+03  0.13552448748E+03  0.00000000000E+00 0.  1.
      99926    2    1    2    0    0  0.00000000000E+00  0.00000000000E+00  0.24771755069E+03  0.51876652565E+03  0.45580118826E+03 0.  0.
      99925    2    3    3    0    0 -0.27739496188E+02  0.50186347709E+02  0.43738148428E+02  0.27271113800E+03  0.26300226238E+03 0.  0.
         25    1    4    4    0    0 -0.29366676807E+02  0.18527608827E+02 -0.15458488978E+02  0.13073693807E+03  0.12509000000E+03 0.  0.
         25    1    4    4    0    0  0.16271806191E+01  0.31658738882E+02  0.59196637406E+02  0.14197419993E+03  0.12509000000E+03 0.  0.
         25    1    3    3    0    0  0.27739496188E+02 -0.50186347709E+02  0.20397940226E+03  0.24605538765E+03  0.12509000000E+03 0.  0.
<mgrwt>
<rscale>  2 0.45580119E+03</rscale>
<asrwt>0</asrwt>
<pdfrwt beam="1">  1       21 0.56359123E-01 0.45580119E+03</pdfrwt>
<pdfrwt beam="2">  1       21 0.19930072E-01 0.45580119E+03</pdfrwt>
<totfact> 0.63566347E+04</totfact>
</mgrwt>
</event>
<event>
 7    0  0.4707675E-002  0.4560880E+03  0.7546771E-02  0.1025922E+00
         21   -1    0    0  502  501  0.00000000000E+00  0.00000000000E+00  0.50885200692E+03  0.50885200692E+03  0.00000000000E+00 0.  1.
         21   -1    0    0  501  502 -0.00000000000E+00 -0.00000000000E+00 -0.10219878720E+03  0.10219878720E+03  0.00000000000E+00 0.  1.
      99926    2    1    2    0    0  0.00000000000E+00  0.14210854715E-13  0.40665321972E+03  0.61105079412E+03  0.45608796507E+03 0.  0.
      99925    2    3    3    0    0 -0.59974827074E+02  0.97215916962E+02  0.26096737816E+03  0.38762343025E+03  0.26286885860E+03 0.  0.
         25    1    4    4    0    0 -0.38350734761E+02  0.38765185159E+02  0.77304851718E+02  0.15683451991E+03  0.12509000000E+03 0.  0.
         25    1    3    3    0    0  0.59974827074E+02 -0.97215916962E+02  0.14568584156E+03  0.22342736387E+03  0.12509000000E+03 0.  0.
         25    1    4    4    0    0 -0.21624092312E+02  0.58450731803E+02  0.18366252644E+03  0.23078891034E+03  0.12509000000E+03 0.  0.
<mgrwt>
<rscale>  2 0.45608797E+03</rscale>
<asrwt>0</asrwt>
<pdfrwt beam="1">  1       21 0.74831176E-01 0.45608797E+03</pdfrwt>
<pdfrwt beam="2">  1       21 0.15029234E-01 0.45608797E+03</pdfrwt>
<totfact> 0.57507382E+04</totfact>
</mgrwt>
</event>
<event>
 7    0  0.4707675E-002  0.4515472E+03  0.7546771E-02  0.1027262E+00
         21   -1    0    0  502  501  0.00000000000E+00  0.00000000000E+00  0.22911362122E+03  0.22911362122E+03  0.00000000000E+00 0.  1.
         21   -1    0    0  501  502 -0.00000000000E+00 -0.00000000000E+00 -0.22248231869E+03  0.22248231869E+03  0.00000000000E+00 0.  1.
      99926    2    1    2    0    0  0.00000000000E+00  0.14210854715E-13  0.66313025323E+01  0.45159593991E+03  0.45154724976E+03 0.  0.
      99925    2    3    3    0    0 -0.60009231831E+02  0.77275679522E+02 -0.45766542992E+02  0.28436651407E+03  0.26305341533E+03 0.  0.
         25    1    4    4    0    0 -0.63149975164E+02  0.40015432032E+02  0.86199562662E+00  0.14573059150E+03  0.12509000000E+03 0.  0.
         25    1    4    4    0    0  0.31407433328E+01  0.37260247491E+02 -0.46628538619E+02  0.13863592257E+03  0.12509000000E+03 0.  0.
         25    1    3    3    0    0  0.60009231831E+02 -0.77275679522E+02  0.52397845525E+02  0.16722942584E+03  0.12509000000E+03 0.  0.
<mgrwt>
<rscale>  2 0.45154725E+03</rscale>
<asrwt>0</asrwt>
<pdfrwt beam="1">  1       21 0.33693180E-01 0.45154725E+03</pdfrwt>
<pdfrwt beam="2">  1       21 0.32717988E-01 0.45154725E+03</pdfrwt>
<totfact> 0.70724311E+04</totfact>
</mgrwt>
</event>
<event>
 7    0  0.4707675E-002  0.4513499E+03  0.7546771E-02  0.1027320E+00
         21   -1    0    0  502  501  0.00000000000E+00  0.00000000000E+00  0.11610381075E+04  0.11610381075E+04  0.00000000000E+00 0. -1.
         21   -1    0    0  501  502 -0.00000000000E+00 -0.00000000000E+00 -0.43865217001E+02  0.43865217001E+02  0.00000000000E+00 0. -1.
      99926    2    1    2    0    0  0.00000000000E+00  0.00000000000E+00  0.11171728905E+04  0.12049033245E+04  0.45134992427E+03 0.  0.
      99925    2    3    3    0    0  0.12049215480E+02  0.57727660426E+02  0.45819922830E+03  0.53157468116E+03  0.26295901290E+03 0.  0.
         25    1    3    3    0    0 -0.12049215480E+02 -0.57727660426E+02  0.65897366225E+03  0.67332864339E+03  0.12509000000E+03 0.  0.
         25    1    4    4    0    0 -0.17368300723E+02  0.60477740492E+02  0.26093051509E+03  0.29612743333E+03  0.12509000000E+03 0.  0.
         25    1    4    4    0    0  0.29417516203E+02 -0.27500800659E+01  0.19726871321E+03  0.23544724783E+03  0.12509000000E+03 0.  0.
<mgrwt>
<rscale>  2 0.45134992E+03</rscale>
<asrwt>0</asrwt>
<pdfrwt beam="1">  1       21 0.17074088E+00 0.45134992E+03</pdfrwt>
<pdfrwt beam="2">  1       21 0.64507680E-02 0.45134992E+03</pdfrwt>
<totfact> 0.32927216E+04</totfact>
</mgrwt>
</event>
<event>
 7    0  0.4707675E-002  0.4836928E+03  0.7546771E-02  0.1018125E+00
         21   -1    0    0  502  501  0.00000000000E+00  0.00000000000E+00  0.47534084215E+02  0.47534084215E+02  0.00000000000E+00 0.  1.
         21   -1    0    0  501  502 -0.00000000000E+00 -0.00000000000E+00 -0.12304789028E+04  0.12304789028E+04  0.00000000000E+00 0.  1.
      99926    2    1    2    0    0  0.00000000000E+00  0.00000000000E+00 -0.11829448186E+04  0.12780129870E+04  0.48369282728E+03 0.  0.
      99925    2    3    3    0    0 -0.67857937402E+02  0.76209258478E+02 -0.47977096306E+03  0.55654675084E+03  0.26296683846E+03 0.  0.
         25    1    4    4    0    0 -0.44971249698E+02  0.71414735609E+02 -0.21365985935E+03  0.26157316636E+03  0.12509000000E+03 0.  0.
         25    1    3    3    0    0  0.67857937402E+02 -0.76209258478E+02 -0.70317385554E+03  0.72146623619E+03  0.12509000000E+03 0.  0.
         25    1    4    4    0    0 -0.22886687704E+02  0.47945228691E+01 -0.26611110371E+03  0.29497358448E+03  0.12509000000E+03 0.  0.
<mgrwt>
<rscale>  2 0.48369283E+03</rscale>
<asrwt>0</asrwt>
<pdfrwt beam="1">  1       21 0.69903076E-02 0.48369283E+03</pdfrwt>
<pdfrwt beam="2">  1       21 0.18095275E+00 0.48369283E+03</pdfrwt>
<totfact> 0.23948329E+04</totfact>
</mgrwt>
</event>
<event>
 7    0  0.4707675E-002  0.4369344E+03  0.7546771E-02  0.1031692E+00
         21   -1    0    0  502  501  0.00000000000E+00  0.00000000000E+00  0.15453732897E+03  0.15453732897E+03  0.00000000000E+00 0. -1.
         21   -1    0    0  501  502 -0.00000000000E+00 -0.00000000000E+00 -0.30884398567E+03  0.30884398567E+03  0.00000000000E+00 0. -1.
      99926    2    1    2    0    0 -0.88817841970E-15 -0.14210854715E-13 -0.15430665670E+03  0.46338131464E+03  0.43693443267E+03 0.  0.
      99925    2    3    3    0    0  0.43968014332E+01  0.77458549865E+02 -0.40110638341E+02  0.27708209961E+03  0.26295715964E+03 0.  0.
         25    1    4    4    0    0  0.78228503839E+01  0.59532685403E+02  0.14231397355E+02  0.13948253794E+03  0.12509000000E+03 0.  0.
         25    1    4    4    0    0 -0.34260489507E+01  0.17925864462E+02 -0.54342035696E+02  0.13759956167E+03  0.12509000000E+03 0.  0.
         25    1    3    3    0    0 -0.43968014332E+01 -0.77458549865E+02 -0.11419601836E+03  0.18629921503E+03  0.12509000000E+03 0.  0.
<mgrwt>
<rscale>  2 0.43693443E+03</rscale>
<asrwt>0</asrwt>
<pdfrwt beam="1">  1       21 0.22726078E-01 0.43693443E+03</pdfrwt>
<pdfrwt beam="2">  1       21 0.45418232E-01 0.43693443E+03</pdfrwt>
<totfact> 0.78610197E+04</totfact>
</mgrwt>
</event>
<event>
 7    0  0.4707675E-002  0.4654896E+03  0.7546771E-02  0.1023201E+00
         21   -1    0    0  502  501  0.00000000000E+00  0.00000000000E+00  0.40735782112E+03  0.40735782112E+03  0.00000000000E+00 0. -1.
         21   -1    0    0  501  502 -0.00000000000E+00 -0.00000000000E+00 -0.13297927717E+03  0.13297927717E+03  0.00000000000E+00 0. -1.
      99926    2    1    2    0    0  0.00000000000E+00  0.00000000000E+00  0.27437854395E+03  0.54033709830E+03  0.46548962869E+03 0.  0.
      99925    2    3    3    0    0  0.90767176001E+02  0.46808736925E+02  0.25009707105E+03  0.37703726328E+03  0.26301865877E+03 0.  0.
         25    1    3    3    0    0 -0.90767176001E+02 -0.46808736925E+02  0.24281472898E+02  0.16329983502E+03  0.12509000000E+03 0.  0.
         25    1    4    4    0    0  0.79959884782E+01  0.35845129342E+02  0.97610817875E+02  0.16286248492E+03  0.12509000000E+03 0.  0.
         25    1    4    4    0    0  0.82771187522E+02  0.10963607583E+02  0.15248625318E+03  0.21417477835E+03  0.12509000000E+03 0.  0.
<mgrwt>
<rscale>  2 0.46548963E+03</rscale>
<asrwt>0</asrwt>
<pdfrwt beam="1">  1       21 0.59905562E-01 0.46548963E+03</pdfrwt>
<pdfrwt beam="2">  1       21 0.19555776E-01 0.46548963E+03</pdfrwt>
<totfact> 0.57574849E+04</totfact>
</mgrwt>
</event>
<event>
 7    0  0.4707675E-002  0.4596083E+03  0.7546771E-02  0.1024895E+00
         21   -1    0    0  502  501  0.00000000000E+00  0.00000000000E+00  0.65595050349E+03  0.65595050349E+03  0.00000000000E+00 0. -1.
         21   -1    0    0  501  502 -0.00000000000E+00 -0.00000000000E+00 -0.80509055188E+02  0.80509055188E+02  0.00000000000E+00 0. -1.
      99926    2    1    2    0    0 -0.71054273576E-14  0.14210854715E-13  0.57544144830E+03  0.73645955868E+03  0.45960833450E+03 0.  0.
      99925    2    3    3    0    0 -0.63052493829E+02  0.98497108901E+02  0.34724241565E+03  0.45115340024E+03  0.26322005600E+03 0.  0.
         25    1    4    4    0    0 -0.21171809347E+02  0.90062864427E+02  0.19728566651E+03  0.25125426836E+03  0.12509000000E+03 0.  0.
         25    1    4    4    0    0 -0.41880684482E+02  0.84342444744E+01  0.14995674914E+03  0.19989913187E+03  0.12509000000E+03 0.  0.
         25    1    3    3    0    0  0.63052493829E+02 -0.98497108901E+02  0.22819903265E+03  0.28530615844E+03  0.12509000000E+03 0.  0.
<mgrwt>
<rscale>  2 0.45960833E+03</rscale>
<asrwt>0</asrwt>
<pdfrwt beam="1">  1       21 0.96463306E-01 0.45960833E+03</pdfrwt>
<pdfrwt beam="2">  1       21 0.11839567E-01 0.45960833E+03</pdfrwt>
<totfact> 0.49162153E+04</totfact>
</mgrwt>
</event>
<event>
 7    0  0.4707675E-002  0.4572639E+03  0.7546771E-02  0.1025578E+00
         21   -1    0    0  502  501  0.00000000000E+00  0.00000000000E+00  0.44803261106E+03  0.44803261106E+03  0.00000000000E+00 0.  1.
         21   -1    0    0  501  502 -0.00000000000E+00 -0.00000000000E+00 -0.11667133451E+03  0.11667133451E+03  0.00000000000E+00 0.  1.
      99926    2    1    2    0    0 -0.14210854715E-13  0.00000000000E+00  0.33136127655E+03  0.56470394557E+03  0.45726387409E+03 0.  0.
      99925    2    3    3    0    0  0.10987922529E+03  0.80575027086E+01  0.25009459634E+03  0.37925813432E+03  0.26296588720E+03 0.  0.
         25    1    3    3    0    0 -0.10987922529E+03 -0.80575027086E+01  0.81266680206E+02  0.18544581125E+03  0.12509000000E+03 0.  0.
         25    1    4    4    0    0  0.91853812037E+02  0.26333072667E+02  0.13929485663E+03  0.21019305099E+03  0.12509000000E+03 0.  0.
         25    1    4    4    0    0  0.18025413249E+02 -0.18275569959E+02  0.11079973971E+03  0.16906508332E+03  0.12509000000E+03 0.  0.
<mgrwt>
<rscale>  2 0.45726387E+03</rscale>
<asrwt>0</asrwt>
<pdfrwt beam="1">  1       21 0.65887148E-01 0.45726387E+03</pdfrwt>
<pdfrwt beam="2">  1       21 0.17157549E-01 0.45726387E+03</pdfrwt>
<totfact> 0.59826784E+04</totfact>
</mgrwt>
</event>
<event>
 7    0  0.4707675E-002  0.4428647E+03  0.7546771E-02  0.1029871E+00
         21   -1    0    0  502  501  0.00000000000E+00  0.00000000000E+00  0.12097811179E+03  0.12097811179E+03  0.00000000000E+00 0.  1.
         21   -1    0    0  501  502 -0.00000000000E+00 -0.00000000000E+00 -0.40529888399E+03  0.40529888399E+03  0.00000000000E+00 0.  1.
      99926    2    1    2    0    0  0.00000000000E+00  0.00000000000E+00 -0.28432077220E+03  0.52627699579E+03  0.44286473645E+03 0.  0.
      99925    2    3    3    0    0 -0.59559582647E+02  0.77159837321E+02 -0.14830763588E+03  0.31735580076E+03  0.26309421323E+03 0.  0.
         25    1    4    4    0    0 -0.49187883630E+02  0.76888856216E+02 -0.75951351880E+02  0.17247452003E+03  0.12509000000E+03 0.  0.
         25    1    3    3    0    0  0.59559582647E+02 -0.77159837321E+02 -0.13601313632E+03  0.20892119503E+03  0.12509000000E+03 0.  0.
         25    1    4    4    0    0 -0.10371699017E+02  0.27098110468E+00 -0.72356283998E+02  0.14488128073E+03  0.12509000000E+03 0.  0.
<mgrwt>
<rscale>  2 0.44286474E+03</rscale>
<asrwt>0</asrwt>
<pdfrwt beam="1">  1       21 0.17790898E-01 0.44286474E+03</pdfrwt>
<pdfrwt beam="2">  1       21 0.59602778E-01 0.44286474E+03</pdfrwt>
<totfact> 0.69942965E+04</totfact>
</mgrwt>
</event>
<event>
 7    0  0.4707675E-002  0.4527645E+03  0.7546771E-02  0.1026901E+00
         21   -1    0    0  502  501  0.00000000000E+00  0.00000000000E+00  0.12042067016E+03  0.12042067016E+03  0.00000000000E+00 0.  1.
         21   -1    0    0  501  502 -0.00000000000E+00 -0.00000000000E+00 -0.42558242648E+03  0.42558242648E+03  0.00000000000E+00 0.  1.
      99926    2    1    2    0    0  0.00000000000E+00  0.00000000000E+00 -0.30516175632E+03  0.54600309663E+03  0.45276449067E+03 0.  0.
      99925    2    3    3    0    0 -0.34684481664E+02 -0.10548842146E+03 -0.19034439902E+03  0.34312048533E+03  0.26300162906E+03 0.  0.
         25    1    4    4    0    0 -0.38182206305E+02 -0.91244884272E+02 -0.10270233533E+03  0.18968075170E+03  0.12509000000E+03 0.  0.
         25    1    4    4    0    0  0.34977246412E+01 -0.14243537189E+02 -0.87642063687E+02  0.15343973363E+03  0.12509000000E+03 0.  0.
         25    1    3    3    0    0  0.34684481664E+02  0.10548842146E+03 -0.11481735730E+03  0.20288261130E+03  0.12509000000E+03 0.  0.
<mgrwt>
<rscale>  2 0.45276449E+03</rscale>
<asrwt>0</asrwt>
<pdfrwt beam="1">  1       21 0.17708922E-01 0.45276449E+03</pdfrwt>
<pdfrwt beam="2">  1       21 0.62585650E-01 0.45276449E+03</pdfrwt>
<totfact> 0.63242695E+04</totfact>
</mgrwt>
</event>
<event>
 7    0  0.4707675E-002  0.4533605E+03  0.7546771E-02  0.1026725E+00
         21   -1    0    0  502  501  0.00000000000E+00  0.00000000000E+00  0.17433527762E+03  0.17433527762E+03  0.00000000000E+00 0.  1.
         21   -1    0    0  501  502 -0.00000000000E+00 -0.00000000000E+00 -0.29474199437E+03  0.29474199437E+03  0.00000000000E+00 0.  1.
      99926    2    1    2    0    0  0.00000000000E+00  0.00000000000E+00 -0.12040671675E+03  0.46907727200E+03  0.45336046328E+03 0.  0.
      99925    2    3    3    0    0  0.75263920981E+02 -0.27383264452E+02  0.50586323499E+01  0.27464588847E+03  0.26265999566E+03 0.  0.
         25    1    4    4    0    0  0.40724742751E+02 -0.49343242602E+02 -0.15800388940E+02  0.14138748408E+03  0.12509000000E+03 0.  0.
         25    1    4    4    0    0  0.34539178230E+02  0.21959978150E+02  0.20859021290E+02  0.13325840440E+03  0.12509000000E+03 0.  0.
         25    1    3    3    0    0 -0.75263920981E+02  0.27383264452E+02 -0.12546534910E+03  0.19443138352E+03  0.12509000000E+03 0.  0.
<mgrwt>
<rscale>  2 0.45336046E+03</rscale>
<asrwt>0</asrwt>
<pdfrwt beam="1">  1       21 0.25637541E-01 0.45336046E+03</pdfrwt>
<pdfrwt beam="2">  1       21 0.43344411E-01 0.45336046E+03</pdfrwt>
<totfact> 0.68389598E+04</totfact>
</mgrwt>
</event>
<event>
 7    0  0.4707675E-002  0.4546313E+03  0.7546771E-02  0.1026350E+00
         21   -1    0    0  502  501  0.00000000000E+00  0.00000000000E+00  0.23362265277E+03  0.23362265277E+03  0.00000000000E+00 0.  1.
         21   -1    0    0  501  502 -0.00000000000E+00 -0.00000000000E+00 -0.22117887336E+03  0.22117887336E+03  0.00000000000E+00 0.  1.
      99926    2    1    2    0    0 -0.14210854715E-13  0.00000000000E+00  0.12443779416E+02  0.45480152613E+03  0.45463125775E+03 0.  0.
      99925    2    3    3    0    0  0.84044222334E+02 -0.69525342736E+02 -0.20483569309E+02  0.28560068989E+03  0.26315579580E+03 0.  0.
         25    1    4    4    0    0  0.41166199825E+02 -0.62726957816E+02 -0.41218261073E+02  0.15157763816E+03  0.12509000000E+03 0.  0.
         25    1    4    4    0    0  0.42878022508E+02 -0.67983849202E+01  0.20734691764E+02  0.13402305173E+03  0.12509000000E+03 0.  0.
         25    1    3    3    0    0 -0.84044222334E+02  0.69525342736E+02  0.32927348725E+02  0.16920083624E+03  0.12509000000E+03 0.  0.
<mgrwt>
<rscale>  2 0.45463126E+03</rscale>
<asrwt>0</asrwt>
<pdfrwt beam="1">  1       21 0.34356273E-01 0.45463126E+03</pdfrwt>
<pdfrwt beam="2">  1       21 0.32526305E-01 0.45463126E+03</pdfrwt>
<totfact> 0.68762431E+04</totfact>
</mgrwt>
</event>
<event>
 7    0  0.4707675E-002  0.4515912E+03  0.7546771E-02  0.1027249E+00
         21   -1    0    0  502  501  0.00000000000E+00  0.00000000000E+00  0.30042382900E+03  0.30042382900E+03  0.00000000000E+00 0.  1.
         21   -1    0    0  501  502 -0.00000000000E+00 -0.00000000000E+00 -0.16970577612E+03  0.16970577612E+03  0.00000000000E+00 0.  1.
      99926    2    1    2    0    0  0.00000000000E+00  0.00000000000E+00  0.13071805288E+03  0.47012960512E+03  0.45159122695E+03 0.  0.
      99925    2    3    3    0    0 -0.92442864722E+02 -0.43799174675E+02  0.39957625233E+02  0.28479473450E+03  0.26276867782E+03 0.  0.
         25    1    4    4    0    0 -0.29902928403E+02  0.10604508119E+02 -0.16858947541E+01  0.12906196597E+03  0.12509000000E+03 0.  0.
         25    1    4    4    0    0 -0.62539936319E+02 -0.54403682794E+02  0.41643519988E+02  0.15573276853E+03  0.12509000000E+03 0.  0.
         25    1    3    3    0    0  0.92442864722E+02  0.43799174675E+02  0.90760427649E+02  0.18533487062E+03  0.12509000000E+03 0.  0.
<mgrwt>
<rscale>  2 0.45159123E+03</rscale>
<asrwt>0</asrwt>
<pdfrwt beam="1">  1       21 0.44179975E-01 0.45159123E+03</pdfrwt>
<pdfrwt beam="2">  1       21 0.24956732E-01 0.45159123E+03</pdfrwt>
<totfact> 0.69280950E+04</totfact>
</mgrwt>
</event>
<event>
 7    0  0.4707675E-002  0.4538343E+03  0.7546771E-02  0.1026585E+00
         21   -1    0    0  502  501  0.00000000000E+00  0.00000000000E+00  0.33817121253E+03  0.33817121253E+03  0.00000000000E+00 0. -1.
         21   -1    0    0  501  502 -0.00000000000E+00 -0.00000000000E+00 -0.15226428585E+03  0.15226428585E+03  0.00000000000E+00 0. -1.
      99926    2    1    2    0    0 -0.35527136788E-14  0.00000000000E+00  0.18590692668E+03  0.49043549839E+03  0.45383432295E+03 0.  0.
      99925    2    3    3    0    0  0.28507585518E+02  0.36269034654E+02  0.66868334356E+01  0.26706254741E+03  0.26296304908E+03 0.  0.
         25    1    3    3    0    0 -0.28507585518E+02 -0.36269034654E+02  0.17922009324E+03  0.22337295098E+03  0.12509000000E+03 0.  0.
         25    1    4    4    0    0  0.17224846635E+02 -0.19071140676E+02 -0.13188775105E+02  0.12838167952E+03  0.12509000000E+03 0.  0.
         25    1    4    4    0    0  0.11282738883E+02  0.55340175330E+02  0.19875608541E+02  0.13868086788E+03  0.12509000000E+03 0.  0.
<mgrwt>
<rscale>  2 0.45383432E+03</rscale>
<asrwt>0</asrwt>
<pdfrwt beam="1">  1       21 0.49731061E-01 0.45383432E+03</pdfrwt>
<pdfrwt beam="2">  1       21 0.22391807E-01 0.45383432E+03</pdfrwt>
<totfact> 0.66561787E+04</totfact>
</mgrwt>
</event>
<event>
 7    0  0.4707675E-002  0.4553297E+03  0.7546771E-02  0.1026144E+00
         21   -1    0    0  502  501  0.00000000000E+00  0.00000000000E+00  0.29346287142E+02  0.29346287142E+02  0.00000000000E+00 0.  1.
         21   -1    0    0  501  502 -0.00000000000E+00 -0.00000000000E+00 -0.17661956085E+04  0.17661956085E+04  0.00000000000E+00 0.  1.
      99926    2    1    2    0    0  0.00000000000E+00  0.00000000000E+00 -0.17368493213E+04  0.17955418956E+04  0.45532969802E+03 0.  0.
      99925    2    3    3    0    0 -0.64268534278E+02 -0.26643483763E+02 -0.73880907028E+03  0.78728985840E+03  0.26295657263E+03 0.  0.
         25    1    4    4    0    0 -0.70794000683E+02  0.97083924986E+00 -0.39045442235E+03  0.41607078375E+03  0.12509000000E+03 0.  0.
         25    1    3    3    0    0  0.64268534278E+02  0.26643483763E+02 -0.99804025104E+03  0.10082520372E+04  0.12509000000E+03 0.  0.
         25    1    4    4    0    0  0.65254664044E+01 -0.27614323013E+02 -0.34835464793E+03  0.37121907465E+03  0.12509000000E+03 0.  0.
<mgrwt>
<rscale>  2 0.45532970E+03</rscale>
<asrwt>0</asrwt>
<pdfrwt beam="1">  1       21 0.43156294E-02 0.45532970E+03</pdfrwt>
<pdfrwt beam="2">  1       21 0.25973471E+00 0.45532970E+03</pdfrwt>
<totfact> 0.17300928E+04</totfact>
</mgrwt>
</event>
<event>
 7    0  0.4707675E-002  0.4514044E+03  0.7546771E-02  0.1027304E+00
         21   -1    0    0  502  501  0.00000000000E+00  0.00000000000E+00  0.16154257902E+03  0.16154257902E+03  0.00000000000E+00 0.  1.
         21   -1    0    0  501  502 -0.00000000000E+00 -0.00000000000E+00 -0.31534399263E+03  0.31534399263E+03  0.00000000000E+00 0.  1.
      99926    2    1    2    0    0  0.00000000000E+00 -0.35527136788E-14 -0.15380141361E+03  0.47688657165E+03  0.45140439452E+03 0.  0.
      99925    2    3    3    0    0  0.92482843800E+02 -0.27301611940E+02 -0.15247675952E+03  0.31893810784E+03  0.26300931547E+03 0.  0.
         25    1    4    4    0    0  0.18802061802E+02 -0.40496649571E+02 -0.56081910491E+02  0.14417414796E+03  0.12509000000E+03 0.  0.
         25    1    3    3    0    0 -0.92482843800E+02  0.27301611940E+02 -0.13246540924E+01  0.15794846381E+03  0.12509000000E+03 0.  0.
         25    1    4    4    0    0  0.73680781998E+02  0.13195037631E+02 -0.96394849031E+02  0.17476395988E+03  0.12509000000E+03 0.  0.
<mgrwt>
<rscale>  2 0.45140439E+03</rscale>
<asrwt>0</asrwt>
<pdfrwt beam="1">  1       21 0.23756262E-01 0.45140439E+03</pdfrwt>
<pdfrwt beam="2">  1       21 0.46374116E-01 0.45140439E+03</pdfrwt>
<totfact> 0.68872083E+04</totfact>
</mgrwt>
</event>
<event>
 7    0  0.4707675E-002  0.4502250E+03  0.7546771E-02  0.1027655E+00
         21   -1    0    0  502  501  0.00000000000E+00  0.00000000000E+00  0.14586448469E+03  0.14586448469E+03  0.00000000000E+00 0.  1.
         21   -1    0    0  501  502 -0.00000000000E+00 -0.00000000000E+00 -0.34741581111E+03  0.34741581111E+03  0.00000000000E+00 0.  1.
      99926    2    1    2    0    0  0.00000000000E+00  0.00000000000E+00 -0.20155132642E+03  0.49328029581E+03  0.45022495827E+03 0.  0.
      99925    2    3    3    0    0  0.89217294237E+02  0.35091714481E+02 -0.18339495931E+03  0.33463504443E+03  0.26297480459E+03 0.  0.
         25    1    3    3    0    0 -0.89217294237E+02 -0.35091714481E+02 -0.18156367115E+02  0.15864525137E+03  0.12509000000E+03 0.  0.
         25    1    4    4    0    0  0.26075784576E+02 -0.19013142496E+02 -0.94929866109E+02  0.16031417189E+03  0.12509000000E+03 0.  0.
         25    1    4    4    0    0  0.63141509660E+02  0.54104856977E+02 -0.88465093199E+02  0.17432087255E+03  0.12509000000E+03 0.  0.
<mgrwt>
<rscale>  2 0.45022496E+03</rscale>
<asrwt>0</asrwt>
<pdfrwt beam="1">  1       21 0.21450660E-01 0.45022496E+03</pdfrwt>
<pdfrwt beam="2">  1       21 0.51090560E-01 0.45022496E+03</pdfrwt>
<totfact> 0.68297806E+04</totfact>
</mgrwt>
</event>
<event>
 7    0  0.4707675E-002  0.4543431E+03  0.7546771E-02  0.1026435E+00
         21   -1    0    0  502  501  0.00000000000E+00  0.00000000000E+00  0.91381668828E+03  0.91381668828E+03  0.00000000000E+00 0.  1.
         21   -1    0    0  501  502 -0.00000000000E+00 -0.00000000000E+00 -0.56474044657E+02  0.56474044657E+02  0.00000000000E+00 0.  1.
      99926    2    1    2    0    0  0.00000000000E+00  0.14210854715E-13  0.85734264362E+03  0.97029073294E+03  0.45434314989E+03 0.  0.
      99925    2    3    3    0    0  0.79061785929E+02 -0.79392973543E+02  0.56286672853E+03  0.63129577292E+03  0.26298552924E+03 0.  0.
         25    1    4    4    0    0  0.58442905631E+02 -0.12658126216E+02  0.22471840088E+03  0.26404861138E+03  0.12509000000E+03 0.  0.
         25    1    4    4    0    0  0.20618880298E+02 -0.66734847327E+02  0.33814832764E+03  0.36724716154E+03  0.12509000000E+03 0.  0.
         25    1    3    3    0    0 -0.79061785929E+02  0.79392973543E+02  0.29447591510E+03  0.33899496001E+03  0.12509000000E+03 0.  0.
<mgrwt>
<rscale>  2 0.45434315E+03</rscale>
<asrwt>0</asrwt>
<pdfrwt beam="1">  1       21 0.13438480E+00 0.45434315E+03</pdfrwt>
<pdfrwt beam="2">  1       21 0.83050072E-02 0.45434315E+03</pdfrwt>
<totfact> 0.40537698E+04</totfact>
</mgrwt>
</event>
<event>
 7    0  0.4707675E-002  0.4495364E+03  0.7546771E-02  0.1027860E+00
         21   -1    0    0  502  501  0.00000000000E+00  0.00000000000E+00  0.58647759161E+02  0.58647759161E+02  0.00000000000E+00 0. -1.
         21   -1    0    0  501  502 -0.00000000000E+00 -0.00000000000E+00 -0.86142671996E+03  0.86142671996E+03  0.00000000000E+00 0. -1.
      99926    2    1    2    0    0  0.00000000000E+00  0.00000000000E+00 -0.80277896080E+03  0.92007447912E+03  0.44953641368E+03 0.  0.
      99925    2    3    3    0    0  0.32655102934E+02 -0.75437014645E+02 -0.65083235226E+03  0.70678505399E+03  0.26306893178E+03 0.  0.
         25    1    4    4    0    0  0.47785150540E+02 -0.40476432557E+02 -0.40270975680E+03  0.42631492881E+03  0.12509000000E+03 0.  0.
         25    1    4    4    0    0 -0.15130047606E+02 -0.34960582089E+02 -0.24812259545E+03  0.28047012517E+03  0.12509000000E+03 0.  0.
         25    1    3    3    0    0 -0.32655102934E+02  0.75437014645E+02 -0.15194660854E+03  0.21328942513E+03  0.12509000000E+03 0.  0.
<mgrwt>
<rscale>  2 0.44953641E+03</rscale>
<asrwt>0</asrwt>
<pdfrwt beam="1">  1       21 0.86246701E-02 0.44953641E+03</pdfrwt>
<pdfrwt beam="2">  1       21 0.12668040E+00 0.44953641E+03</pdfrwt>
<totfact> 0.44237587E+04</totfact>
</mgrwt>
</event>
<event>
 7    0  0.4707675E-002  0.4611300E+03  0.7546771E-02  0.1024454E+00
         21   -1    0    0  502  501  0.00000000000E+00  0.00000000000E+00  0.12534670276E+03  0.12534670276E+03  0.00000000000E+00 0.  1.
         21   -1    0    0  501  502 -0.00000000000E+00 -0.00000000000E+00 -0.42410551919E+03  0.42410551919E+03  0.00000000000E+00 0.  1.
      99926    2    1    2    0    0  0.00000000000E+00  0.00000000000E+00 -0.29875881643E+03  0.54945222195E+03  0.46113004002E+03 0.  0.
      99925    2    3    3    0    0 -0.11441991148E+02  0.11511838956E+03 -0.21875959065E+03  0.36122218449E+03  0.26313978280E+03 0.  0.
         25    1    4    4    0    0  0.13731859909E+02  0.21083019466E+02 -0.80313624851E+02  0.15076751680E+03  0.12509000000E+03 0.  0.
         25    1    3    3    0    0  0.11441991148E+02 -0.11511838956E+03 -0.79999225781E+02  0.18823003746E+03  0.12509000000E+03 0.  0.
         25    1    4    4    0    0 -0.25173851057E+02  0.94035370092E+02 -0.13844596580E+03  0.21045466769E+03  0.12509000000E+03 0.  0.
<mgrwt>
<rscale>  2 0.46113004E+03</rscale>
<asrwt>0</asrwt>
<pdfrwt beam="1">  1       21 0.18433338E-01 0.46113004E+03</pdfrwt>
<pdfrwt beam="2">  1       21 0.62368460E-01 0.46113004E+03</pdfrwt>
<totfact> 0.58989159E+04</totfact>
</mgrwt>
</event>
<event>
 7    0  0.4707675E-002  0.4722903E+03  0.7546771E-02  0.1021276E+00
         21   -1    0    0  502  501  0.00000000000E+00  0.00000000000E+00  0.97564916887E+02  0.97564916887E+02  0.00000000000E+00 0.  1.
         21   -1    0    0  501  502 -0.00000000000E+00 -0.00000000000E+00 -0.57156332352E+03  0.57156332352E+03  0.00000000000E+00 0.  1.
      99926    2    1    2    0    0  0.00000000000E+00  0.71054273576E-14 -0.47399840663E+03  0.66912824040E+03  0.47229028427E+03 0.  0.
      99925    2    3    3    0    0 -0.96313907650E+02  0.39284118805E+02 -0.40123219542E+03  0.49090916064E+03  0.26303026169E+03 0.  0.
         25    1    4    4    0    0 -0.18856025341E+02  0.48163645672E+02 -0.19831310168E+03  0.24010597838E+03  0.12509000000E+03 0.  0.
         25    1    4    4    0    0 -0.77457882309E+02 -0.88795268671E+01 -0.20291909373E+03  0.25080318226E+03  0.12509000000E+03 0.  0.
         25    1    3    3    0    0  0.96313907650E+02 -0.39284118805E+02 -0.72766211213E+02  0.17821907976E+03  0.12509000000E+03 0.  0.
<mgrwt>
<rscale>  2 0.47229028E+03</rscale>
<asrwt>0</asrwt>
<pdfrwt beam="1">  1       21 0.14347782E-01 0.47229028E+03</pdfrwt>
<pdfrwt beam="2">  1       21 0.84053427E-01 0.47229028E+03</pdfrwt>
<totfact> 0.47759861E+04</totfact>
</mgrwt>
</event>
<event>
 7    0  0.4707675E-002  0.4569435E+03  0.7546771E-02  0.1025671E+00
         21   -1    0    0  502  501  0.00000000000E+00  0.00000000000E+00  0.13915392802E+03  0.13915392802E+03  0.00000000000E+00 0. -1.
         21   -1    0    0  501  502 -0.00000000000E+00 -0.00000000000E+00 -0.37511947278E+03  0.37511947278E+03  0.00000000000E+00 0. -1.
      99926    2    1    2    0    0  0.00000000000E+00  0.71054273576E-14 -0.23596554476E+03  0.51427340080E+03  0.45694353311E+03 0.  0.
      99925    2    3    3    0    0  0.10514658695E+03  0.44026119901E+02 -0.13124977287E+03  0.31525831353E+03  0.26299657296E+03 0.  0.
         25    1    4    4    0    0  0.29290222229E+02 -0.84555180164E+01 -0.39034890086E+02  0.13453863255E+03  0.12509000000E+03 0.  0.
         25    1    3    3    0    0 -0.10514658695E+03 -0.44026119901E+02 -0.10471577189E+03  0.19901508727E+03  0.12509000000E+03 0.  0.
         25    1    4    4    0    0  0.75856364717E+02  0.52481637918E+02 -0.92214882788E+02  0.18071968098E+03  0.12509000000E+03 0.  0.
<mgrwt>
<rscale>  2 0.45694353E+03</rscale>
<asrwt>0</asrwt>
<pdfrwt beam="1">  1       21 0.20463813E-01 0.45694353E+03</pdfrwt>
<pdfrwt beam="2">  1       21 0.55164627E-01 0.45694353E+03</pdfrwt>
<totfact> 0.63297221E+04</totfact>
</mgrwt>
</event>
<event>
 7    0  0.4707675E-002  0.4565898E+03  0.7546771E-02  0.1025775E+00
         21   -1    0    0  502  501  0.00000000000E+00  0.00000000000E+00  0.11760261242E+04  0.11760261242E+04  0.00000000000E+00 0.  1.
         21   -1    0    0  501  502 -0.00000000000E+00 -0.00000000000E+00 -0.44317520900E+02  0.44317520900E+02  0.00000000000E+00 0.  1.
      99926    2    1    2    0    0  0.00000000000E+00  0.35527136788E-14  0.11317086033E+04  0.12203436451E+04  0.45658980425E+03 0.  0.
      99925    2    3    3    0    0  0.36388089499E+02 -0.13268199426E+02  0.42221608256E+03  0.49886787748E+03  0.26287373516E+03 0.  0.
         25    1    4    4    0    0  0.14872297080E+02 -0.46234812751E+02  0.22696277739E+03  0.26366352336E+03  0.12509000000E+03 0.  0.
         25    1    4    4    0    0  0.21515792419E+02  0.32966613324E+02  0.19525330517E+03  0.23520435412E+03  0.12509000000E+03 0.  0.
         25    1    3    3    0    0 -0.36388089499E+02  0.13268199426E+02  0.70949252071E+03  0.72147576759E+03  0.12509000000E+03 0.  0.
<mgrwt>
<rscale>  2 0.45658980E+03</rscale>
<asrwt>0</asrwt>
<pdfrwt beam="1">  1       21 0.17294500E+00 0.45658980E+03</pdfrwt>
<pdfrwt beam="2">  1       21 0.65172833E-02 0.45658980E+03</pdfrwt>
<totfact> 0.31130471E+04</totfact>
</mgrwt>
</event>
<event>
 7    0  0.4707675E-002  0.4595546E+03  0.7546771E-02  0.1024910E+00
         21   -1    0    0  502  501  0.00000000000E+00  0.00000000000E+00  0.25943234316E+02  0.25943234316E+02  0.00000000000E+00 0. -1.
         21   -1    0    0  501  502 -0.00000000000E+00 -0.00000000000E+00 -0.20351203605E+04  0.20351203605E+04  0.00000000000E+00 0. -1.
      99926    2    1    2    0    0  0.00000000000E+00  0.35527136788E-14 -0.20091771262E+04  0.20610635948E+04  0.45955458598E+03 0.  0.
      99925    2    3    3    0    0 -0.11157892135E+03  0.30042243304E+02 -0.13515566757E+04  0.13817517687E+04  0.26302112210E+03 0.  0.
         25    1    4    4    0    0 -0.87351381680E+02 -0.93670035296E+01 -0.66238142159E+03  0.67979015910E+03  0.12509000000E+03 0.  0.
         25    1    4    4    0    0 -0.24227539667E+02  0.39409246833E+02 -0.68917525413E+03  0.70196160964E+03  0.12509000000E+03 0.  0.
         25    1    3    3    0    0  0.11157892135E+03 -0.30042243304E+02 -0.65762045048E+03  0.67931182608E+03  0.12509000000E+03 0.  0.
<mgrwt>
<rscale>  2 0.45955459E+03</rscale>
<asrwt>0</asrwt>
<pdfrwt beam="1">  1       21 0.38151815E-02 0.45955459E+03</pdfrwt>
<pdfrwt beam="2">  1       21 0.29928240E+00 0.45955459E+03</pdfrwt>
<totfact> 0.12297735E+04</totfact>
</mgrwt>
</event>
<event>
 7    0  0.4707675E-002  0.4633763E+03  0.7546771E-02  0.1023807E+00
         21   -1    0    0  502  501  0.00000000000E+00  0.00000000000E+00  0.29619435655E+02  0.29619435655E+02  0.00000000000E+00 0.  1.
         21   -1    0    0  501  502 -0.00000000000E+00 -0.00000000000E+00 -0.18123030839E+04  0.18123030839E+04  0.00000000000E+00 0.  1.
      99926    2    1    2    0    0  0.88817841970E-15  0.14210854715E-13 -0.17826836483E+04  0.18419225196E+04  0.46337628158E+03 0.  0.
      99925    2    3    3    0    0 -0.53795856250E+01 -0.10960807055E+03 -0.91226369123E+03  0.95573897269E+03  0.26300013784E+03 0.  0.
         25    1    4    4    0    0  0.68672645998E+00 -0.19090377687E+02 -0.49048852896E+03  0.50654853594E+03  0.12509000000E+03 0.  0.
         25    1    4    4    0    0 -0.60663120849E+01 -0.90517692867E+02 -0.42177516227E+03  0.44919043675E+03  0.12509000000E+03 0.  0.
         25    1    3    3    0    0  0.53795856250E+01  0.10960807055E+03 -0.87041995706E+03  0.88618354691E+03  0.12509000000E+03 0.  0.
<mgrwt>
<rscale>  2 0.46337628E+03</rscale>
<asrwt>0</asrwt>
<pdfrwt beam="1">  1       21 0.43557989E-02 0.46337628E+03</pdfrwt>
<pdfrwt beam="2">  1       21 0.26651519E+00 0.46337628E+03</pdfrwt>
<totfact> 0.15438723E+04</totfact>
</mgrwt>
</event>
<event>
 7    0  0.4707675E-002  0.4544820E+03  0.7546771E-02  0.1026394E+00
         21   -1    0    0  502  501  0.00000000000E+00  0.00000000000E+00  0.42550527323E+03  0.42550527323E+03  0.00000000000E+00 0. -1.
         21   -1    0    0  501  502 -0.00000000000E+00 -0.00000000000E+00 -0.12135803183E+03  0.12135803183E+03  0.00000000000E+00 0. -1.
      99926    2    1    2    0    0  0.00000000000E+00  0.00000000000E+00  0.30414724140E+03  0.54686330506E+03  0.45448204582E+03 0.  0.
      99925    2    3    3    0    0 -0.69234485962E+02  0.86471104482E+02  0.21195629100E+03  0.35603001291E+03  0.26374463946E+03 0.  0.
         25    1    3    3    0    0  0.69234485962E+02 -0.86471104482E+02  0.92190950401E+02  0.19083329215E+03  0.12509000000E+03 0.  0.
         25    1    4    4    0    0 -0.22123904005E+02  0.10562771243E+02  0.12900858697E+03  0.18136086369E+03  0.12509000000E+03 0.  0.
         25    1    4    4    0    0 -0.47110581956E+02  0.75908333239E+02  0.82947704029E+02  0.17466914922E+03  0.12509000000E+03 0.  0.
<mgrwt>
<rscale>  2 0.45448205E+03</rscale>
<asrwt>0</asrwt>
<pdfrwt beam="1">  1       21 0.62574305E-01 0.45448205E+03</pdfrwt>
<pdfrwt beam="2">  1       21 0.17846769E-01 0.45448205E+03</pdfrwt>
<totfact> 0.62329318E+04</totfact>
</mgrwt>
</event>
<event>
 7    0  0.4707675E-002  0.4537016E+03  0.7546771E-02  0.1026624E+00
         21   -1    0    0  502  501  0.00000000000E+00  0.00000000000E+00  0.40470331310E+03  0.40470331310E+03  0.00000000000E+00 0.  1.
         21   -1    0    0  501  502 -0.00000000000E+00 -0.00000000000E+00 -0.12715803716E+03  0.12715803716E+03  0.00000000000E+00 0.  1.
      99926    2    1    2    0    0  0.22204460493E-15  0.00000000000E+00  0.27754527594E+03  0.53186135026E+03  0.45370157119E+03 0.  0.
      99925    2    3    3    0    0 -0.11756239009E+01  0.96565269423E+01  0.30565918822E+03  0.40328246098E+03  0.26289650698E+03 0.  0.
         25    1    4    4    0    0  0.30844887595E+01 -0.22772646860E+02  0.19650715416E+03  0.23407408497E+03  0.12509000000E+03 0.  0.
         25    1    3    3    0    0  0.11756239009E+01 -0.96565269423E+01 -0.28113912280E+02  0.12857888928E+03  0.12509000000E+03 0.  0.
         25    1    4    4    0    0 -0.42601126604E+01  0.32429173803E+02  0.10915203406E+03  0.16920837601E+03  0.12509000000E+03 0.  0.
<mgrwt>
<rscale>  2 0.45370157E+03</rscale>
<asrwt>0</asrwt>
<pdfrwt beam="1">  1       21 0.59515193E-01 0.45370157E+03</pdfrwt>
<pdfrwt beam="2">  1       21 0.18699711E-01 0.45370157E+03</pdfrwt>
<totfact> 0.63733794E+04</totfact>
</mgrwt>
</event>
<event>
 7    0  0.4707675E-002  0.4385569E+03  0.7546771E-02  0.1031190E+00
         21   -1    0    0  502  501  0.00000000000E+00  0.00000000000E+00  0.85244125338E+02  0.85244125338E+02  0.00000000000E+00 0.  1.
         21   -1    0    0  501  502 -0.00000000000E+00 -0.00000000000E+00 -0.56406285922E+03  0.56406285922E+03  0.00000000000E+00 0.  1.
      99926    2    1    2    0    0  0.00000000000E+00 -0.53290705182E-14 -0.47881873388E+03  0.64930698456E+03  0.43855692935E+03 0.  0.
      99925    2    3    3    0    0  0.85016835676E+02 -0.41869482297E+01 -0.37534907633E+03  0.46600703633E+03  0.26273605754E+03 0.  0.
         25    1    3    3    0    0 -0.85016835676E+02  0.41869482297E+01 -0.10346965756E+03  0.18329994822E+03  0.12509000000E+03 0.  0.
         25    1    4    4    0    0  0.40399569721E+02 -0.41354238767E+02 -0.17408160555E+03  0.22202299833E+03  0.12509000000E+03 0.  0.
         25    1    4    4    0    0  0.44617265955E+02  0.37167290537E+02 -0.20126747078E+03  0.24398403800E+03  0.12509000000E+03 0.  0.
<mgrwt>
<rscale>  2 0.43855693E+03</rscale>
<asrwt>0</asrwt>
<pdfrwt beam="1">  1       21 0.12535901E-01 0.43855693E+03</pdfrwt>
<pdfrwt beam="2">  1       21 0.82950420E-01 0.43855693E+03</pdfrwt>
<totfact> 0.63595215E+04</totfact>
</mgrwt>
</event>
<event>
 7    0  0.4707675E-002  0.4298577E+03  0.7546771E-02  0.1033905E+00
         21   -1    0    0  502  501  0.00000000000E+00  0.00000000000E+00  0.17199524791E+03  0.17199524791E+03  0.00000000000E+00 0. -1.
         21   -1    0    0  501  502 -0.00000000000E+00 -0.00000000000E+00 -0.26857958275E+03  0.26857958275E+03  0.00000000000E+00 0. -1.
      99926    2    1    2    0    0  0.00000000000E+00  0.00000000000E+00 -0.96584334841E+02  0.44057483066E+03  0.42985770631E+03 0.  0.
      99925    2    3    3    0    0 -0.56164601489E+02  0.52514666735E+02 -0.10806589818E+03  0.29329419011E+03  0.26159317828E+03 0.  0.
         25    1    4    4    0    0 -0.23292649575E+02  0.16473635833E+01 -0.20136843158E+02  0.12883424189E+03  0.12509000000E+03 0.  0.
         25    1    4    4    0    0 -0.32871951914E+02  0.50867303151E+02 -0.87929055021E+02  0.16445994822E+03  0.12509000000E+03 0.  0.
         25    1    3    3    0    0  0.56164601489E+02 -0.52514666735E+02  0.11481563338E+02  0.14728064055E+03  0.12509000000E+03 0.  0.
<mgrwt>
<rscale>  2 0.42985771E+03</rscale>
<asrwt>0</asrwt>
<pdfrwt beam="1">  1       21 0.25293419E-01 0.42985771E+03</pdfrwt>
<pdfrwt beam="2">  1       21 0.39496997E-01 0.42985771E+03</pdfrwt>
<totfact> 0.85509613E+04</totfact>
</mgrwt>
</event>
<event>
 7    0  0.4707675E-002  0.4535842E+03  0.7546771E-02  0.1026659E+00
         21   -1    0    0  502  501  0.00000000000E+00  0.00000000000E+00  0.36295531119E+02  0.36295531119E+02  0.00000000000E+00 0. -1.
         21   -1    0    0  501  502 -0.00000000000E+00 -0.00000000000E+00 -0.14171073694E+04  0.14171073694E+04  0.00000000000E+00 0. -1.
      99926    2    1    2    0    0  0.17763568394E-14  0.00000000000E+00 -0.13808118382E+04  0.14534029005E+04  0.45358423528E+03 0.  0.
      99925    2    3    3    0    0 -0.95860604399E+01 -0.75451757337E+02 -0.60747932644E+03  0.66633521460E+03  0.26303350724E+03 0.  0.
         25    1    4    4    0    0 -0.67750628135E+01 -0.72345844165E+02 -0.38155898630E+03  0.40806199378E+03  0.12509000000E+03 0.  0.
         25    1    3    3    0    0  0.95860604399E+01  0.75451757337E+02 -0.77333251181E+03  0.78706768589E+03  0.12509000000E+03 0.  0.
         25    1    4    4    0    0 -0.28109976264E+01 -0.31059131724E+01 -0.22592034014E+03  0.25827322082E+03  0.12509000000E+03 0.  0.
<mgrwt>
<rscale>  2 0.45358424E+03</rscale>
<asrwt>0</asrwt>
<pdfrwt beam="1">  1       21 0.53375794E-02 0.45358424E+03</pdfrwt>
<pdfrwt beam="2">  1       21 0.20839809E+00 0.45358424E+03</pdfrwt>
<totfact> 0.25219236E+04</totfact>
</mgrwt>
</event>
<event>
 7    0  0.4707675E-002  0.4507990E+03  0.7546771E-02  0.1027484E+00
         21   -1    0    0  502  501  0.00000000000E+00  0.00000000000E+00  0.54044414061E+02  0.54044414061E+02  0.00000000000E+00 0.  1.
         21   -1    0    0  501  502 -0.00000000000E+00 -0.00000000000E+00 -0.94005889549E+03  0.94005889549E+03  0.00000000000E+00 0.  1.
      99926    2    1    2    0    0  0.00000000000E+00  0.00000000000E+00 -0.88601448143E+03  0.99410330955E+03  0.45079898931E+03 0.  0.
      99925    2    3    3    0    0 -0.69381788275E+02 -0.83824324954E+02 -0.53503857812E+03  0.60593846983E+03  0.26278279840E+03 0.  0.
         25    1    4    4    0    0 -0.36649470620E+01 -0.15901698669E+02 -0.20805308001E+03  0.24331027118E+03  0.12509000000E+03 0.  0.
         25    1    4    4    0    0 -0.65716841213E+02 -0.67922626284E+02 -0.32698549811E+03  0.36262819865E+03  0.12509000000E+03 0.  0.
         25    1    3    3    0    0  0.69381788275E+02  0.83824324954E+02 -0.35097590331E+03  0.38816483973E+03  0.12509000000E+03 0.  0.
<mgrwt>
<rscale>  2 0.45079899E+03</rscale>
<asrwt>0</asrwt>
<pdfrwt beam="1">  1       21 0.79477080E-02 0.45079899E+03</pdfrwt>
<pdfrwt beam="2">  1       21 0.13824395E+00 0.45079899E+03</pdfrwt>
<totfact> 0.40716570E+04</totfact>
</mgrwt>
</event>
<event>
 7    0  0.4707675E-002  0.4533999E+03  0.7546771E-02  0.1026713E+00
         21   -1    0    0  502  501  0.00000000000E+00  0.00000000000E+00  0.16466270460E+04  0.16466270460E+04  0.00000000000E+00 0.  1.
         21   -1    0    0  501  502 -0.00000000000E+00 -0.00000000000E+00 -0.31210989519E+02  0.31210989519E+02  0.00000000000E+00 0.  1.
      99926    2    1    2    0    0  0.00000000000E+00  0.00000000000E+00  0.16154160565E+04  0.16778380355E+04  0.45339986535E+03 0.  0.
      99925    2    3    3    0    0  0.37908672767E+02 -0.10367023611E+03  0.10794272265E+04  0.11164859898E+04  0.26304608468E+03 0.  0.
         25    1    4    4    0    0  0.59324984826E+02 -0.54499636969E+02  0.53491111378E+03  0.55521804006E+03  0.12509000000E+03 0.  0.
         25    1    4    4    0    0 -0.21416312059E+02 -0.49170599146E+02  0.54451611273E+03  0.56126794971E+03  0.12509000000E+03 0.  0.
         25    1    3    3    0    0 -0.37908672767E+02  0.10367023611E+03  0.53598882995E+03  0.56135204574E+03  0.12509000000E+03 0.  0.
<mgrwt>
<rscale>  2 0.45339987E+03</rscale>
<asrwt>0</asrwt>
<pdfrwt beam="1">  1       21 0.24215098E+00 0.45339987E+03</pdfrwt>
<pdfrwt beam="2">  1       21 0.45898525E-02 0.45339987E+03</pdfrwt>
<totfact> 0.19973711E+04</totfact>
</mgrwt>
</event>
<event>
 7    0  0.4707675E-002  0.4601730E+03  0.7546771E-02  0.1024731E+00
         21   -1    0    0  502  501  0.00000000000E+00  0.00000000000E+00  0.36624719201E+02  0.36624719201E+02  0.00000000000E+00 0.  1.
         21   -1    0    0  501  502 -0.00000000000E+00 -0.00000000000E+00 -0.14454664123E+04  0.14454664123E+04  0.00000000000E+00 0.  1.
      99926    2    1    2    0    0  0.14210854715E-13  0.14210854715E-13 -0.14088416931E+04  0.14820911315E+04  0.46017301731E+03 0.  0.
      99925    2    3    3    0    0 -0.78444299332E+02 -0.87607291034E+02 -0.85294217545E+03  0.90028332186E+03  0.26300410532E+03 0.  0.
         25    1    4    4    0    0 -0.55214233347E+02 -0.29599432826E+02 -0.31887666403E+03  0.34821627325E+03  0.12509000000E+03 0.  0.
         25    1    4    4    0    0 -0.23230065986E+02 -0.58007858207E+02 -0.53406551142E+03  0.55206704861E+03  0.12509000000E+03 0.  0.
         25    1    3    3    0    0  0.78444299332E+02  0.87607291034E+02 -0.55589951766E+03  0.58180780966E+03  0.12509000000E+03 0.  0.
<mgrwt>
<rscale>  2 0.46017302E+03</rscale>
<asrwt>0</asrwt>
<pdfrwt beam="1">  1       21 0.53859882E-02 0.46017302E+03</pdfrwt>
<pdfrwt beam="2">  1       21 0.21256859E+00 0.46017302E+03</pdfrwt>
<totfact> 0.23272201E+04</totfact>
</mgrwt>
</event>
<event>
 7    0  0.4707675E-002  0.4564609E+03  0.7546771E-02  0.1025813E+00
         21   -1    0    0  502  501  0.00000000000E+00  0.00000000000E+00  0.33559167646E+03  0.33559167646E+03  0.00000000000E+00 0. -1.
         21   -1    0    0  501  502 -0.00000000000E+00 -0.00000000000E+00 -0.15521584709E+03  0.15521584709E+03  0.00000000000E+00 0. -1.
      99926    2    1    2    0    0  0.00000000000E+00 -0.14210854715E-13  0.18037582937E+03  0.49080752356E+03  0.45646093520E+03 0.  0.
      99925    2    3    3    0    0 -0.75698208713E+02  0.84986344861E+02  0.99974004601E+02  0.30355139111E+03  0.26305084647E+03 0.  0.
         25    1    4    4    0    0 -0.27592252645E+02  0.80630985567E+02  0.39354142386E+02  0.15639355761E+03  0.12509000000E+03 0.  0.
         25    1    4    4    0    0 -0.48105956068E+02  0.43553592943E+01  0.60619862215E+02  0.14715783349E+03  0.12509000000E+03 0.  0.
         25    1    3    3    0    0  0.75698208713E+02 -0.84986344861E+02  0.80401824768E+02  0.18725613245E+03  0.12509000000E+03 0.  0.
<mgrwt>
<rscale>  2 0.45646094E+03</rscale>
<asrwt>0</asrwt>
<pdfrwt beam="1">  1       21 0.49351717E-01 0.45646094E+03</pdfrwt>
<pdfrwt beam="2">  1       21 0.22825860E-01 0.45646094E+03</pdfrwt>
<totfact> 0.65162375E+04</totfact>
</mgrwt>
</event>
<event>
 7    0  0.4707675E-002  0.4521310E+03  0.7546771E-02  0.1027088E+00
         21   -1    0    0  502  501  0.00000000000E+00  0.00000000000E+00  0.27712518724E+03  0.27712518724E+03  0.00000000000E+00 0. -1.
         21   -1    0    0  501  502 -0.00000000000E+00 -0.00000000000E+00 -0.18441347880E+03  0.18441347880E+03  0.00000000000E+00 0. -1.
      99926    2    1    2    0    0  0.00000000000E+00  0.71054273576E-14  0.92711708440E+02  0.46153866605E+03  0.45213104226E+03 0.  0.
      99925    2    3    3    0    0 -0.93973461357E+02  0.42737867394E+02  0.18110236475E+02  0.28301576985E+03  0.26289238971E+03 0.  0.
         25    1    3    3    0    0  0.93973461357E+02 -0.42737867394E+02  0.74601471965E+02  0.17852289620E+03  0.12509000000E+03 0.  0.
         25    1    4    4    0    0 -0.41656988557E+02  0.53323196254E+02 -0.15098418502E+02  0.14301796494E+03  0.12509000000E+03 0.  0.
         25    1    4    4    0    0 -0.52316472801E+02 -0.10585328859E+02  0.33208654977E+02  0.13999780491E+03  0.12509000000E+03 0.  0.
<mgrwt>
<rscale>  2 0.45213104E+03</rscale>
<asrwt>0</asrwt>
<pdfrwt beam="1">  1       21 0.40753704E-01 0.45213104E+03</pdfrwt>
<pdfrwt beam="2">  1       21 0.27119629E-01 0.45213104E+03</pdfrwt>
<totfact> 0.69642451E+04</totfact>
</mgrwt>
</event>
<event>
 7    0  0.4707675E-002  0.4538274E+03  0.7546771E-02  0.1026587E+00
         21   -1    0    0  502  501  0.00000000000E+00  0.00000000000E+00  0.21267297440E+03  0.21267297440E+03  0.00000000000E+00 0.  1.
         21   -1    0    0  501  502 -0.00000000000E+00 -0.00000000000E+00 -0.24210798301E+03  0.24210798301E+03  0.00000000000E+00 0.  1.
      99926    2    1    2    0    0  0.35527136788E-14  0.00000000000E+00 -0.29435008613E+02  0.45478095741E+03  0.45382738953E+03 0.  0.
      99925    2    3    3    0    0 -0.18254587587E+02 -0.23039319198E+02  0.89978370723E+02  0.27936401563E+03  0.26283855470E+03 0.  0.
         25    1    4    4    0    0  0.30871260440E+02 -0.12088937728E+02  0.49915670214E+02  0.13870205251E+03  0.12509000000E+03 0.  0.
         25    1    4    4    0    0 -0.49125848027E+02 -0.10950381470E+02  0.40062700509E+02  0.14066196313E+03  0.12509000000E+03 0.  0.
         25    1    3    3    0    0  0.18254587587E+02  0.23039319198E+02 -0.11941337934E+03  0.17541694177E+03  0.12509000000E+03 0.  0.
<mgrwt>
<rscale>  2 0.45382739E+03</rscale>
<asrwt>0</asrwt>
<pdfrwt beam="1">  1       21 0.31275438E-01 0.45382739E+03</pdfrwt>
<pdfrwt beam="2">  1       21 0.35604115E-01 0.45382739E+03</pdfrwt>
<totfact> 0.69207118E+04</totfact>
</mgrwt>
</event>
<event>
 7    0  0.4707675E-002  0.4573152E+03  0.7546771E-02  0.1025563E+00
         21   -1    0    0  502  501  0.00000000000E+00  0.00000000000E+00  0.86605273150E+03  0.86605273150E+03  0.00000000000E+00 0. -1.
         21   -1    0    0  501  502 -0.00000000000E+00 -0.00000000000E+00 -0.60370812648E+02  0.60370812648E+02  0.00000000000E+00 0. -1.
      99926    2    1    2    0    0  0.00000000000E+00 -0.35527136788E-14  0.80568191885E+03  0.92642354415E+03  0.45731524006E+03 0.  0.
      99925    2    3    3    0    0  0.10732134089E+03  0.26900342678E+02  0.43907993667E+03  0.52357615358E+03  0.26286745551E+03 0.  0.
         25    1    4    4    0    0  0.43068103077E+02 -0.24106590927E+02  0.18463596722E+03  0.22841615031E+03  0.12509000000E+03 0.  0.
         25    1    3    3    0    0 -0.10732134089E+03 -0.26900342678E+02  0.36660198218E+03  0.40284739057E+03  0.12509000000E+03 0.  0.
         25    1    4    4    0    0  0.64253237813E+02  0.51006933605E+02  0.25444396944E+03  0.29516000327E+03  0.12509000000E+03 0.  0.
<mgrwt>
<rscale>  2 0.45731524E+03</rscale>
<asrwt>0</asrwt>
<pdfrwt beam="1">  1       21 0.12736069E+00 0.45731524E+03</pdfrwt>
<pdfrwt beam="2">  1       21 0.88780612E-02 0.45731524E+03</pdfrwt>
<totfact> 0.41356532E+04</totfact>
</mgrwt>
</event>
<event>
 7    0  0.4707675E-002  0.4819509E+03  0.7546771E-02  0.1018600E+00
         21   -1    0    0  502  501  0.00000000000E+00  0.00000000000E+00  0.87385205000E+03  0.87385205000E+03  0.00000000000E+00 0. -1.
         21   -1    0    0  501  502 -0.00000000000E+00 -0.00000000000E+00 -0.66451937792E+02  0.66451937792E+02  0.00000000000E+00 0. -1.
      99926    2    1    2    0    0  0.00000000000E+00  0.00000000000E+00  0.80740011220E+03  0.94030398779E+03  0.48195087744E+03 0.  0.
      99925    2    3    3    0    0  0.46009454520E+02  0.12725902807E+03  0.53763947756E+03  0.61360835232E+03  0.26295868891E+03 0.  0.
         25    1    3    3    0    0 -0.46009454520E+02 -0.12725902807E+03  0.26976063464E+03  0.32669563547E+03  0.12509000000E+03 0.  0.
         25    1    4    4    0    0  0.31317328741E+02  0.73492802824E+02  0.19843177496E+03  0.24779960565E+03  0.12509000000E+03 0.  0.
         25    1    4    4    0    0  0.14692125779E+02  0.53766225247E+02  0.33920770260E+03  0.36580874667E+03  0.12509000000E+03 0.  0.
<mgrwt>
<rscale>  2 0.48195088E+03</rscale>
<asrwt>0</asrwt>
<pdfrwt beam="1">  1       21 0.12850765E+00 0.48195088E+03</pdfrwt>
<pdfrwt beam="2">  1       21 0.97723443E-02 0.48195088E+03</pdfrwt>
<totfact> 0.33819638E+04</totfact>
</mgrwt>
</event>
<event>
 7    0  0.4707675E-002  0.4701206E+03  0.7546771E-02  0.1021886E+00
         21   -1    0    0  502  501  0.00000000000E+00  0.00000000000E+00  0.61764516635E+03  0.61764516635E+03  0.00000000000E+00 0. -1.
         21   -1    0    0  501  502 -0.00000000000E+00 -0.00000000000E+00 -0.89458058333E+02  0.89458058333E+02  0.00000000000E+00 0. -1.
      99926    2    1    2    0    0  0.28421709430E-13  0.17763568394E-14  0.52818710801E+03  0.70710322468E+03  0.47012056888E+03 0.  0.
      99925    2    3    3    0    0  0.12552698039E+03  0.15235151453E+02  0.31129992161E+03  0.42660956633E+03  0.26286678802E+03 0.  0.
         25    1    4    4    0    0  0.34024415749E+02 -0.18412382546E+01  0.18524106907E+03  0.22610354442E+03  0.12509000000E+03 0.  0.
         25    1    3    3    0    0 -0.12552698039E+03 -0.15235151453E+02  0.21688718641E+03  0.28049365835E+03  0.12509000000E+03 0.  0.
         25    1    4    4    0    0  0.91502564646E+02  0.17076389707E+02  0.12605885253E+03  0.20050602191E+03  0.12509000000E+03 0.  0.
<mgrwt>
<rscale>  2 0.47012057E+03</rscale>
<asrwt>0</asrwt>
<pdfrwt beam="1">  1       21 0.90830170E-01 0.47012057E+03</pdfrwt>
<pdfrwt beam="2">  1       21 0.13155597E-01 0.47012057E+03</pdfrwt>
<totfact> 0.46707453E+04</totfact>
</mgrwt>
</event>
<event>
 7    0  0.4707675E-002  0.4565896E+03  0.7546771E-02  0.1025775E+00
         21   -1    0    0  502  501  0.00000000000E+00  0.00000000000E+00  0.24932556019E+03  0.24932556019E+03  0.00000000000E+00 0.  1.
         21   -1    0    0  501  502 -0.00000000000E+00 -0.00000000000E+00 -0.20903796144E+03  0.20903796144E+03  0.00000000000E+00 0.  1.
      99926    2    1    2    0    0  0.00000000000E+00  0.00000000000E+00  0.40287598750E+02  0.45836352163E+03  0.45658956115E+03 0.  0.
      99925    2    3    3    0    0  0.80512037231E+02 -0.25423111991E+02 -0.52980863126E+02  0.28095146781E+03  0.26267514660E+03 0.  0.
         25    1    4    4    0    0  0.44261798298E+02 -0.13752018848E+02  0.13825545536E+02  0.13411516924E+03  0.12509000000E+03 0.  0.
         25    1    3    3    0    0 -0.80512037231E+02  0.25423111991E+02  0.93268461876E+02  0.17741205383E+03  0.12509000000E+03 0.  0.
         25    1    4    4    0    0  0.36250238933E+02 -0.11671093143E+02 -0.66806408662E+02  0.14683629856E+03  0.12509000000E+03 0.  0.
<mgrwt>
<rscale>  2 0.45658956E+03</rscale>
<asrwt>0</asrwt>
<pdfrwt beam="1">  1       21 0.36665524E-01 0.45658956E+03</pdfrwt>
<pdfrwt beam="2">  1       21 0.30740877E-01 0.45658956E+03</pdfrwt>
<totfact> 0.67440717E+04</totfact>
</mgrwt>
</event>
<event>
 7    0  0.4707675E-002  0.4383344E+03  0.7546771E-02  0.1031259E+00
         21   -1    0    0  502  501  0.00000000000E+00  0.00000000000E+00  0.17524861860E+03  0.17524861860E+03  0.00000000000E+00 0.  1.
         21   -1    0    0  501  502 -0.00000000000E+00 -0.00000000000E+00 -0.27409212811E+03  0.27409212811E+03  0.00000000000E+00 0.  1.
      99926    2    1    2    0    0  0.00000000000E+00  0.16653345369E-15 -0.98843509517E+02  0.44934074671E+03  0.43833442402E+03 0.  0.
      99925    2    3    3    0    0  0.81722387408E+02  0.37994587617E+00 -0.11624310689E+03  0.29891153727E+03  0.26297709834E+03 0.  0.
         25    1    3    3    0    0 -0.81722387408E+02 -0.37994587617E+00  0.17399597374E+02  0.15042920944E+03  0.12509000000E+03 0.  0.
         25    1    4    4    0    0  0.33455003580E+02 -0.91490569383E+01 -0.15085748795E+02  0.13068293853E+03  0.12509000000E+03 0.  0.
         25    1    4    4    0    0  0.48267383828E+02  0.95290028145E+01 -0.10115735810E+03  0.16822859874E+03  0.12509000000E+03 0.  0.
<mgrwt>
<rscale>  2 0.43833442E+03</rscale>
<asrwt>0</asrwt>
<pdfrwt beam="1">  1       21 0.25771856E-01 0.43833442E+03</pdfrwt>
<pdfrwt beam="2">  1       21 0.40307665E-01 0.43833442E+03</pdfrwt>
<totfact> 0.78932792E+04</totfact>
</mgrwt>
</event>
<event>
 7    0  0.4707675E-002  0.4539975E+03  0.7546771E-02  0.1026537E+00
         21   -1    0    0  502  501  0.00000000000E+00  0.00000000000E+00  0.18434536289E+03  0.18434536289E+03  0.00000000000E+00 0. -1.
         21   -1    0    0  501  502 -0.00000000000E+00 -0.00000000000E+00 -0.27952119665E+03  0.27952119665E+03  0.00000000000E+00 0. -1.
      99926    2    1    2    0    0  0.00000000000E+00  0.71054273576E-14 -0.95175833759E+02  0.46386655955E+03  0.45399751732E+03 0.  0.
      99925    2    3    3    0    0 -0.85154080344E+02  0.63637983897E+02 -0.96757479380E+02  0.29969890105E+03  0.26297606560E+03 0.  0.
         25    1    3    3    0    0  0.85154080344E+02 -0.63637983897E+02  0.15816456212E+01  0.16416765850E+03  0.12509000000E+03 0.  0.
         25    1    4    4    0    0 -0.41581035240E+02 -0.68698343112E+01 -0.29488333724E+02  0.13525253063E+03  0.12509000000E+03 0.  0.
         25    1    4    4    0    0 -0.43573045105E+02  0.70507818208E+02 -0.67269145656E+02  0.16444637042E+03  0.12509000000E+03 0.  0.
<mgrwt>
<rscale>  2 0.45399752E+03</rscale>
<asrwt>0</asrwt>
<pdfrwt beam="1">  1       21 0.27109612E-01 0.45399752E+03</pdfrwt>
<pdfrwt beam="2">  1       21 0.41106058E-01 0.45399752E+03</pdfrwt>
<totfact> 0.68437937E+04</totfact>
</mgrwt>
</event>
<event>
 7    0  0.4707675E-002  0.4570681E+03  0.7546771E-02  0.1025635E+00
         21   -1    0    0  502  501  0.00000000000E+00  0.00000000000E+00  0.36300726788E+02  0.36300726788E+02  0.00000000000E+00 0.  1.
         21   -1    0    0  501  502 -0.00000000000E+00 -0.00000000000E+00 -0.14387541421E+04  0.14387541421E+04  0.00000000000E+00 0.  1.
      99926    2    1    2    0    0 -0.14210854715E-13  0.00000000000E+00 -0.14024534153E+04  0.14750548689E+04  0.45706813946E+03 0.  0.
      99925    2    3    3    0    0  0.79662885198E+02  0.34033227396E+02 -0.11253659958E+04  0.11589387795E+04  0.26303238236E+03 0.  0.
         25    1    4    4    0    0  0.50825864445E+02 -0.11985809479E+01 -0.42163792815E+03  0.44273101952E+03  0.12509000000E+03 0.  0.
         25    1    4    4    0    0  0.28837020753E+02  0.35231808344E+02 -0.70372806767E+03  0.71620775995E+03  0.12509000000E+03 0.  0.
         25    1    3    3    0    0 -0.79662885198E+02 -0.34033227396E+02 -0.27708741946E+03  0.31611608939E+03  0.12509000000E+03 0.  0.
<mgrwt>
<rscale>  2 0.45706814E+03</rscale>
<asrwt>0</asrwt>
<pdfrwt beam="1">  1       21 0.53383430E-02 0.45706814E+03</pdfrwt>
<pdfrwt beam="2">  1       21 0.21158146E+00 0.45706814E+03</pdfrwt>
<totfact> 0.24009129E+04</totfact>
</mgrwt>
</event>
<event>
 7    0  0.4707675E-002  0.4578860E+03  0.7546771E-02  0.1025396E+00
         21   -1    0    0  502  501  0.00000000000E+00  0.00000000000E+00  0.29784120016E+03  0.29784120016E+03  0.00000000000E+00 0. -1.
         21   -1    0    0  501  502 -0.00000000000E+00 -0.00000000000E+00 -0.17598267943E+03  0.17598267943E+03  0.00000000000E+00 0. -1.
      99926    2    1    2    0    0  0.00000000000E+00  0.35527136788E-14  0.12185852072E+03  0.47382387959E+03  0.45788597903E+03 0.  0.
      99925    2    3    3    0    0  0.22801972059E+02  0.21096355371E+02 -0.39073025361E+02  0.26764081344E+03  0.26294470439E+03 0.  0.
         25    1    4    4    0    0 -0.25759163174E+00  0.43513073643E+02 -0.40429983598E+02  0.13847579429E+03  0.12509000000E+03 0.  0.
         25    1    4    4    0    0  0.23059563691E+02 -0.22416718271E+02  0.13569582365E+01  0.12916501915E+03  0.12509000000E+03 0.  0.
         25    1    3    3    0    0 -0.22801972059E+02 -0.21096355371E+02  0.16093154609E+03  0.20618306615E+03  0.12509000000E+03 0.  0.
<mgrwt>
<rscale>  2 0.45788598E+03</rscale>
<asrwt>0</asrwt>
<pdfrwt beam="1">  1       21 0.43800176E-01 0.45788598E+03</pdfrwt>
<pdfrwt beam="2">  1       21 0.25879806E-01 0.45788598E+03</pdfrwt>
<totfact> 0.65636639E+04</totfact>
</mgrwt>
</event>
<event>
 7    0  0.4707675E-002  0.4593785E+03  0.7546771E-02  0.1024962E+00
         21   -1    0    0  502  501  0.00000000000E+00  0.00000000000E+00  0.26478736360E+04  0.26478736360E+04  0.00000000000E+00 0. -1.
         21   -1    0    0  501  502 -0.00000000000E+00 -0.00000000000E+00 -0.19924344210E+02  0.19924344210E+02  0.00000000000E+00 0. -1.
      99926    2    1    2    0    0  0.00000000000E+00  0.00000000000E+00  0.26279492918E+04  0.26677979802E+04  0.45937847468E+03 0.  0.
      99925    2    3    3    0    0  0.81012289421E+02  0.83961718406E+02  0.17625181451E+04  0.17856238823E+04  0.26147633961E+03 0.  0.
         25    1    3    3    0    0 -0.81012289421E+02 -0.83961718406E+02  0.86543114675E+03  0.88217409794E+03  0.12509000000E+03 0.  0.
         25    1    4    4    0    0  0.49855524811E+01  0.37864897676E+02  0.91871878528E+03  0.92798185367E+03  0.12509000000E+03 0.  0.
         25    1    4    4    0    0  0.76026736940E+02  0.46096820730E+02  0.84379935978E+03  0.85764202863E+03  0.12509000000E+03 0.  0.
<mgrwt>
<rscale>  2 0.45937847E+03</rscale>
<asrwt>0</asrwt>
<pdfrwt beam="1">  1       21 0.38939294E+00 0.45937847E+03</pdfrwt>
<pdfrwt beam="2">  1       21 0.29300524E-02 0.45937847E+03</pdfrwt>
<totfact> 0.53775130E+03</totfact>
</mgrwt>
</event>
<event>
 7    0  0.4707675E-002  0.4530398E+03  0.7546771E-02  0.1026819E+00
         21   -1    0    0  502  501  0.00000000000E+00  0.00000000000E+00  0.19703978995E+02  0.19703978995E+02  0.00000000000E+00 0. -1.
         21   -1    0    0  501  502 -0.00000000000E+00 -0.00000000000E+00 -0.26041062249E+04  0.26041062249E+04  0.00000000000E+00 0. -1.
      99926    2    1    2    0    0 -0.71054273576E-14  0.35527136788E-14 -0.25844022459E+04  0.26238102039E+04  0.45303975258E+03 0.  0.
      99925    2    3    3    0    0 -0.40591859954E+02 -0.22525273977E+02 -0.22151205356E+04  0.22311633183E+04  0.26301269712E+03 0.  0.
         25    1    4    4    0    0 -0.15593589952E+02  0.21942785706E+02 -0.88534800897E+03  0.89454639398E+03  0.12509000000E+03 0.  0.
         25    1    4    4    0    0 -0.24998270002E+02 -0.44468059684E+02 -0.13297725266E+04  0.13366169243E+04  0.12509000000E+03 0.  0.
         25    1    3    3    0    0  0.40591859954E+02  0.22525273977E+02 -0.36928171030E+03  0.39264688554E+03  0.12509000000E+03 0.  0.
<mgrwt>
<rscale>  2 0.45303975E+03</rscale>
<asrwt>0</asrwt>
<pdfrwt beam="1">  1       21 0.28976444E-02 0.45303975E+03</pdfrwt>
<pdfrwt beam="2">  1       21 0.38295675E+00 0.45303975E+03</pdfrwt>
<totfact> 0.60377170E+03</totfact>
</mgrwt>
</event>
<event>
 7    0  0.4707675E-002  0.4484850E+03  0.7546771E-02  0.1028175E+00
         21   -1    0    0  502  501  0.00000000000E+00  0.00000000000E+00  0.17461136522E+03  0.17461136522E+03  0.00000000000E+00 0. -1.
         21   -1    0    0  501  502 -0.00000000000E+00 -0.00000000000E+00 -0.28798066603E+03  0.28798066603E+03  0.00000000000E+00 0. -1.
      99926    2    1    2    0    0 -0.17763568394E-14  0.00000000000E+00 -0.11336930081E+03  0.46259203124E+03  0.44848499306E+03 0.  0.
      99925    2    3    3    0    0  0.51148394868E+01  0.38577537082E+02  0.31012792639E+02  0.26763540797E+03  0.26296868699E+03 0.  0.
         25    1    3    3    0    0 -0.51148394868E+01 -0.38577537082E+02 -0.14438209345E+03  0.19495662328E+03  0.12509000000E+03 0.  0.
         25    1    4    4    0    0  0.21388131199E+02  0.49321046022E+02  0.36352581318E+02  0.14092209197E+03  0.12509000000E+03 0.  0.
         25    1    4    4    0    0 -0.16273291712E+02 -0.10743508940E+02 -0.53397886787E+01  0.12671331600E+03  0.12509000000E+03 0.  0.
<mgrwt>
<rscale>  2 0.44848499E+03</rscale>
<asrwt>0</asrwt>
<pdfrwt beam="1">  1       21 0.25678142E-01 0.44848499E+03</pdfrwt>
<pdfrwt beam="2">  1       21 0.42350098E-01 0.44848499E+03</pdfrwt>
<totfact> 0.71621148E+04</totfact>
</mgrwt>
</event>
<event>
 7    0  0.4707675E-002  0.4405880E+03  0.7546771E-02  0.1030567E+00
         21   -1    0    0  502  501  0.00000000000E+00  0.00000000000E+00  0.18357561969E+03  0.18357561969E+03  0.00000000000E+00 0. -1.
         21   -1    0    0  501  502 -0.00000000000E+00 -0.00000000000E+00 -0.26435669111E+03  0.26435669111E+03  0.00000000000E+00 0. -1.
      99926    2    1    2    0    0  0.00000000000E+00  0.00000000000E+00 -0.80781071426E+02  0.44793231080E+03  0.44058798617E+03 0.  0.
      99925    2    3    3    0    0  0.37858379948E+02 -0.62651806608E+02 -0.11936958844E+03  0.29794868653E+03  0.26299394548E+03 0.  0.
         25    1    3    3    0    0 -0.37858379948E+02  0.62651806608E+02  0.38588517017E+02  0.14998362427E+03  0.12509000000E+03 0.  0.
         25    1    4    4    0    0  0.28242582327E+02  0.81671896332E+01 -0.64591739372E+02  0.14381914802E+03  0.12509000000E+03 0.  0.
         25    1    4    4    0    0  0.96157976208E+01 -0.70818996242E+02 -0.54777849071E+02  0.15412953851E+03  0.12509000000E+03 0.  0.
<mgrwt>
<rscale>  2 0.44058799E+03</rscale>
<asrwt>0</asrwt>
<pdfrwt beam="1">  1       21 0.26996415E-01 0.44058799E+03</pdfrwt>
<pdfrwt beam="2">  1       21 0.38875984E-01 0.44058799E+03</pdfrwt>
<totfact> 0.77611211E+04</totfact>
</mgrwt>
</event>
<event>
 7    0  0.4707675E-002  0.4463690E+03  0.7546771E-02  0.1028810E+00
         21   -1    0    0  502  501  0.00000000000E+00  0.00000000000E+00  0.92445743527E+03  0.92445743527E+03  0.00000000000E+00 0.  1.
         21   -1    0    0  501  502 -0.00000000000E+00 -0.00000000000E+00 -0.53881681667E+02  0.53881681667E+02  0.00000000000E+00 0.  1.
      99926    2    1    2    0    0  0.00000000000E+00  0.14210854715E-13  0.87057575361E+03  0.97833911694E+03  0.44636900090E+03 0.  0.
      99925    2    3    3    0    0  0.90535450155E+01 -0.99949931825E+02  0.48571437144E+03  0.56140057575E+03  0.26302129244E+03 0.  0.
         25    1    4    4    0    0  0.19508193330E+02 -0.20536397188E+02  0.27672669596E+03  0.30500407469E+03  0.12509000000E+03 0.  0.
         25    1    4    4    0    0 -0.10454648314E+02 -0.79413534637E+02  0.20898767548E+03  0.25639650106E+03  0.12509000000E+03 0.  0.
         25    1    3    3    0    0 -0.90535450155E+01  0.99949931825E+02  0.38486138217E+03  0.41693854119E+03  0.12509000000E+03 0.  0.
<mgrwt>
<rscale>  2 0.44636900E+03</rscale>
<asrwt>0</asrwt>
<pdfrwt beam="1">  1       21 0.13594961E+00 0.44636900E+03</pdfrwt>
<pdfrwt beam="2">  1       21 0.79237773E-02 0.44636900E+03</pdfrwt>
<totfact> 0.42831572E+04</totfact>
</mgrwt>
</event>
<event>
 7    0  0.4707675E-002  0.4568996E+03  0.7546771E-02  0.1025684E+00
         21   -1    0    0  502  501  0.00000000000E+00  0.00000000000E+00  0.97745104354E+03  0.97745104354E+03  0.00000000000E+00 0. -1.
         21   -1    0    0  501  502 -0.00000000000E+00 -0.00000000000E+00 -0.53393267283E+02  0.53393267283E+02  0.00000000000E+00 0. -1.
      99926    2    1    2    0    0  0.00000000000E+00  0.00000000000E+00  0.92405777626E+03  0.10308443108E+04  0.45689957244E+03 0.  0.
      99925    2    3    3    0    0  0.21197614809E+02  0.10340167534E+03  0.47752899799E+03  0.55526392512E+03  0.26295025631E+03 0.  0.
         25    1    4    4    0    0 -0.19761440202E+02  0.24781240223E+02  0.19535208963E+03  0.23412511913E+03  0.12509000000E+03 0.  0.
         25    1    3    3    0    0 -0.21197614809E+02 -0.10340167534E+03  0.44652877827E+03  0.47558038570E+03  0.12509000000E+03 0.  0.
         25    1    4    4    0    0  0.40959055010E+02  0.78620435116E+02  0.28217690835E+03  0.32113880599E+03  0.12509000000E+03 0.  0.
<mgrwt>
<rscale>  2 0.45689957E+03</rscale>
<asrwt>0</asrwt>
<pdfrwt beam="1">  1       21 0.14374279E+00 0.45689957E+03</pdfrwt>
<pdfrwt beam="2">  1       21 0.78519517E-02 0.45689957E+03</pdfrwt>
<totfact> 0.37430060E+04</totfact>
</mgrwt>
</event>
<event>
 7    0  0.4707675E-002  0.4113161E+03  0.7546771E-02  0.1039930E+00
         21   -1    0    0  502  501  0.00000000000E+00  0.00000000000E+00  0.64837681852E+03  0.64837681852E+03  0.00000000000E+00 0.  1.
         21   -1    0    0  501  502 -0.00000000000E+00 -0.00000000000E+00 -0.65232489846E+02  0.65232489846E+02  0.00000000000E+00 0.  1.
      99926    2    1    2    0    0  0.00000000000E+00  0.35527136788E-14  0.58314432867E+03  0.71360930837E+03  0.41131610341E+03 0.  0.
      99925    2    3    3    0    0  0.29641066840E+02  0.28528457866E+02  0.29899705166E+03  0.40043260284E+03  0.26316262417E+03 0.  0.
         25    1    4    4    0    0  0.30380244352E+01  0.16680602219E+02  0.89655901274E+02  0.15483268652E+03  0.12509000000E+03 0.  0.
         25    1    4    4    0    0  0.26603042405E+02  0.11847855646E+02  0.20934115039E+03  0.24559991632E+03  0.12509000000E+03 0.  0.
         25    1    3    3    0    0 -0.29641066840E+02 -0.28528457866E+02  0.28414727701E+03  0.31317670553E+03  0.12509000000E+03 0.  0.
<mgrwt>
<rscale>  2 0.41131610E+03</rscale>
<asrwt>0</asrwt>
<pdfrwt beam="1">  1       21 0.95349529E-01 0.41131610E+03</pdfrwt>
<pdfrwt beam="2">  1       21 0.95930136E-02 0.41131610E+03</pdfrwt>
<totfact> 0.74726596E+04</totfact>
</mgrwt>
</event>
<event>
 7    0  0.4707675E-002  0.4469485E+03  0.7546771E-02  0.1028636E+00
         21   -1    0    0  502  501  0.00000000000E+00  0.00000000000E+00  0.31393792221E+03  0.31393792221E+03  0.00000000000E+00 0.  1.
         21   -1    0    0  501  502 -0.00000000000E+00 -0.00000000000E+00 -0.15907835936E+03  0.15907835936E+03  0.00000000000E+00 0.  1.
      99926    2    1    2    0    0 -0.71054273576E-14  0.00000000000E+00  0.15485956285E+03  0.47301628158E+03  0.44694845165E+03 0.  0.
      99925    2    3    3    0    0 -0.37700514055E+02 -0.90600384112E+02  0.57291985425E+02  0.28647754934E+03  0.26297767266E+03 0.  0.
         25    1    3    3    0    0  0.37700514055E+02  0.90600384112E+02  0.97567577423E+02  0.18653873224E+03  0.12509000000E+03 0.  0.
         25    1    4    4    0    0 -0.49439999754E+02 -0.56361857333E+02  0.43395231516E+01  0.14590172069E+03  0.12509000000E+03 0.  0.
         25    1    4    4    0    0  0.11739485699E+02 -0.34238526779E+02  0.52952462273E+02  0.14057582865E+03  0.12509000000E+03 0.  0.
<mgrwt>
<rscale>  2 0.44694845E+03</rscale>
<asrwt>0</asrwt>
<pdfrwt beam="1">  1       21 0.46167341E-01 0.44694845E+03</pdfrwt>
<pdfrwt beam="2">  1       21 0.23393876E-01 0.44694845E+03</pdfrwt>
<totfact> 0.71684586E+04</totfact>
</mgrwt>
</event>
<event>
 7    0  0.4707675E-002  0.4564320E+03  0.7546771E-02  0.1025821E+00
         21   -1    0    0  502  501  0.00000000000E+00  0.00000000000E+00  0.10392024978E+04  0.10392024978E+04  0.00000000000E+00 0. -1.
         21   -1    0    0  501  502 -0.00000000000E+00 -0.00000000000E+00 -0.50117805426E+02  0.50117805426E+02  0.00000000000E+00 0. -1.
      99926    2    1    2    0    0 -0.14210854715E-13 -0.17763568394E-14  0.98908469234E+03  0.10893203032E+04  0.45643202596E+03 0.  0.
      99925    2    3    3    0    0 -0.11051816227E+03 -0.90582604529E+01  0.55294513682E+03  0.62224264769E+03  0.26294727989E+03 0.  0.
         25    1    3    3    0    0  0.11051816227E+03  0.90582604529E+01  0.43613955553E+03  0.46707765550E+03  0.12509000000E+03 0.  0.
         25    1    4    4    0    0 -0.84101783950E+02  0.24918661545E+02  0.31068578557E+03  0.34621845013E+03  0.12509000000E+03 0.  0.
         25    1    4    4    0    0 -0.26416378322E+02 -0.33976921998E+02  0.24225935125E+03  0.27602419756E+03  0.12509000000E+03 0.  0.
<mgrwt>
<rscale>  2 0.45643203E+03</rscale>
<asrwt>0</asrwt>
<pdfrwt beam="1">  1       21 0.15282388E+00 0.45643203E+03</pdfrwt>
<pdfrwt beam="2">  1       21 0.73702662E-02 0.45643203E+03</pdfrwt>
<totfact> 0.35468847E+04</totfact>
</mgrwt>
</event>
<event>
 7    0  0.4707675E-002  0.4527966E+03  0.7546771E-02  0.1026891E+00
         21   -1    0    0  502  501  0.00000000000E+00  0.00000000000E+00  0.70815891812E+02  0.70815891812E+02  0.00000000000E+00 0.  1.
         21   -1    0    0  501  502 -0.00000000000E+00 -0.00000000000E+00 -0.72379514161E+03  0.72379514161E+03  0.00000000000E+00 0.  1.
      99926    2    1    2    0    0 -0.17763568394E-14  0.71054273576E-14 -0.65297924980E+03  0.79461103342E+03  0.45279663622E+03 0.  0.
      99925    2    3    3    0    0 -0.99548441353E+01  0.59520085231E+02 -0.57560993815E+03  0.63562909120E+03  0.26278470506E+03 0.  0.
         25    1    4    4    0    0  0.30511731696E+02  0.26106979921E+02 -0.23930210167E+03  0.27299367051E+03  0.12509000000E+03 0.  0.
         25    1    4    4    0    0 -0.40466575831E+02  0.33413105311E+02 -0.33630783647E+03  0.36263542069E+03  0.12509000000E+03 0.  0.
         25    1    3    3    0    0  0.99548441353E+01 -0.59520085231E+02 -0.77369311650E+02  0.15898194222E+03  0.12509000000E+03 0.  0.
<mgrwt>
<rscale>  2 0.45279664E+03</rscale>
<asrwt>0</asrwt>
<pdfrwt beam="1">  1       21 0.10414102E-01 0.45279664E+03</pdfrwt>
<pdfrwt beam="2">  1       21 0.10644046E+00 0.45279664E+03</pdfrwt>
<totfact> 0.48866124E+04</totfact>
</mgrwt>
</event>
<event>
 7    0  0.4707675E-002  0.4423576E+03  0.7546771E-02  0.1030026E+00
         21   -1    0    0  502  501  0.00000000000E+00  0.00000000000E+00  0.33473649940E+02  0.33473649940E+02  0.00000000000E+00 0.  1.
         21   -1    0    0  501  502 -0.00000000000E+00 -0.00000000000E+00 -0.14614501976E+04  0.14614501976E+04  0.00000000000E+00 0.  1.
      99926    2    1    2    0    0  0.00000000000E+00  0.14210854715E-13 -0.14279765477E+04  0.14949238475E+04  0.44235764860E+03 0.  0.
      99925    2    3    3    0    0  0.20124452502E+02 -0.98290895600E+02 -0.94270254336E+03  0.98384218958E+03  0.26304234452E+03 0.  0.
         25    1    3    3    0    0 -0.20124452502E+02  0.98290895600E+02 -0.48527400430E+03  0.51108165795E+03  0.12509000000E+03 0.  0.
         25    1    4    4    0    0 -0.22276790971E+02 -0.68434033128E+02 -0.54163763448E+03  0.56053394857E+03  0.12509000000E+03 0.  0.
         25    1    4    4    0    0  0.42401243473E+02 -0.29856862472E+02 -0.40106490887E+03  0.42330824102E+03  0.12509000000E+03 0.  0.
<mgrwt>
<rscale>  2 0.44235765E+03</rscale>
<asrwt>0</asrwt>
<pdfrwt beam="1">  1       21 0.49225955E-02 0.44235765E+03</pdfrwt>
<pdfrwt beam="2">  1       21 0.21491915E+00 0.44235765E+03</pdfrwt>
<totfact> 0.26403000E+04</totfact>
</mgrwt>
</event>
<event>
 7    0  0.4707675E-002  0.4353425E+03  0.7546771E-02  0.1032185E+00
         21   -1    0    0  502  501  0.00000000000E+00  0.00000000000E+00  0.11711355784E+03  0.11711355784E+03  0.00000000000E+00 0. -1.
         21   -1    0    0  501  502 -0.00000000000E+00 -0.00000000000E+00 -0.40457125888E+03  0.40457125888E+03  0.00000000000E+00 0. -1.
      99926    2    1    2    0    0 -0.14210854715E-13 -0.71054273576E-14 -0.28745770104E+03  0.52168481672E+03  0.43534252963E+03 0.  0.
      99925    2    3    3    0    0 -0.78955836980E+02 -0.43336032338E+02 -0.21449947036E+03  0.35114905092E+03  0.26302775003E+03 0.  0.
         25    1    4    4    0    0 -0.47915781088E+02 -0.20009130087E+02 -0.15908781435E+03  0.20893235302E+03  0.12509000000E+03 0.  0.
         25    1    4    4    0    0 -0.31040055892E+02 -0.23326902251E+02 -0.55411656006E+02  0.14221669789E+03  0.12509000000E+03 0.  0.
         25    1    3    3    0    0  0.78955836980E+02  0.43336032338E+02 -0.72958230684E+02  0.17053576580E+03  0.12509000000E+03 0.  0.
<mgrwt>
<rscale>  2 0.43534253E+03</rscale>
<asrwt>0</asrwt>
<pdfrwt beam="1">  1       21 0.17222582E-01 0.43534253E+03</pdfrwt>
<pdfrwt beam="2">  1       21 0.59495775E-01 0.43534253E+03</pdfrwt>
<totfact> 0.74749318E+04</totfact>
</mgrwt>
</event>
<event>
 7    0  0.4707675E-002  0.4577023E+03  0.7546771E-02  0.1025450E+00
         21   -1    0    0  502  501  0.00000000000E+00  0.00000000000E+00  0.96658788756E+02  0.96658788756E+02  0.00000000000E+00 0. -1.
         21   -1    0    0  501  502 -0.00000000000E+00 -0.00000000000E+00 -0.54183213978E+03  0.54183213978E+03  0.00000000000E+00 0. -1.
      99926    2    1    2    0    0  0.00000000000E+00  0.00000000000E+00 -0.44517335102E+03  0.63849092854E+03  0.45770225405E+03 0.  0.
      99925    2    3    3    0    0  0.48426109548E+02 -0.81822335845E+02 -0.18755100220E+03  0.33673479282E+03  0.26301132968E+03 0.  0.
         25    1    4    4    0    0  0.17664844580E+02 -0.52528741793E+02 -0.49075510504E+02  0.14535208729E+03  0.12509000000E+03 0.  0.
         25    1    4    4    0    0  0.30761264968E+02 -0.29293594052E+02 -0.13847549169E+03  0.19138270553E+03  0.12509000000E+03 0.  0.
         25    1    3    3    0    0 -0.48426109548E+02  0.81822335845E+02 -0.25762234883E+03  0.30175613572E+03  0.12509000000E+03 0.  0.
<mgrwt>
<rscale>  2 0.45770225E+03</rscale>
<asrwt>0</asrwt>
<pdfrwt beam="1">  1       21 0.14214528E-01 0.45770225E+03</pdfrwt>
<pdfrwt beam="2">  1       21 0.79681197E-01 0.45770225E+03</pdfrwt>
<totfact> 0.55183134E+04</totfact>
</mgrwt>
</event>
<event>
 7    0  0.4707675E-002  0.4497222E+03  0.7546771E-02  0.1027805E+00
         21   -1    0    0  502  501  0.00000000000E+00  0.00000000000E+00  0.12824972963E+03  0.12824972963E+03  0.00000000000E+00 0.  1.
         21   -1    0    0  501  502 -0.00000000000E+00 -0.00000000000E+00 -0.39425047975E+03  0.39425047975E+03  0.00000000000E+00 0.  1.
      99926    2    1    2    0    0 -0.14210854715E-13  0.00000000000E+00 -0.26600075012E+03  0.52250020937E+03  0.44972221396E+03 0.  0.
      99925    2    3    3    0    0  0.79736124053E+02  0.72545288259E+02 -0.15854760478E+03  0.32548661880E+03  0.26302761777E+03 0.  0.
         25    1    4    4    0    0  0.37902001592E+02  0.76511262956E+02 -0.72161424197E+02  0.16776565300E+03  0.12509000000E+03 0.  0.
         25    1    3    3    0    0 -0.79736124053E+02 -0.72545288259E+02 -0.10745314534E+03  0.19701359057E+03  0.12509000000E+03 0.  0.
         25    1    4    4    0    0  0.41834122461E+02 -0.39659746973E+01 -0.86386180585E+02  0.15772096580E+03  0.12509000000E+03 0.  0.
<mgrwt>
<rscale>  2 0.44972221E+03</rscale>
<asrwt>0</asrwt>
<pdfrwt beam="1">  1       21 0.18860254E-01 0.44972221E+03</pdfrwt>
<pdfrwt beam="2">  1       21 0.57978012E-01 0.44972221E+03</pdfrwt>
<totfact> 0.66454123E+04</totfact>
</mgrwt>
</event>
<event>
 7    0  0.4707675E-002  0.4542015E+03  0.7546771E-02  0.1026476E+00
         21   -1    0    0  502  501  0.00000000000E+00  0.00000000000E+00  0.12336273970E+03  0.12336273970E+03  0.00000000000E+00 0. -1.
         21   -1    0    0  501  502 -0.00000000000E+00 -0.00000000000E+00 -0.41807400736E+03  0.41807400736E+03  0.00000000000E+00 0. -1.
      99926    2    1    2    0    0  0.35527136788E-14  0.00000000000E+00 -0.29471126766E+03  0.54143674706E+03  0.45420151892E+03 0.  0.
      99925    2    3    3    0    0 -0.31742010147E+02 -0.84593601771E+02 -0.26547997422E+03  0.38438386016E+03  0.26288343913E+03 0.  0.
         25    1    4    4    0    0  0.23490099865E+02 -0.30594808822E+02 -0.12897688944E+03  0.18376717124E+03  0.12509000000E+03 0.  0.
         25    1    4    4    0    0 -0.55232110011E+02 -0.53998792949E+02 -0.13650308478E+03  0.20061668891E+03  0.12509000000E+03 0.  0.
         25    1    3    3    0    0  0.31742010147E+02  0.84593601771E+02 -0.29231293442E+02  0.15705288690E+03  0.12509000000E+03 0.  0.
<mgrwt>
<rscale>  2 0.45420152E+03</rscale>
<asrwt>0</asrwt>
<pdfrwt beam="1">  1       21 0.18141580E-01 0.45420152E+03</pdfrwt>
<pdfrwt beam="2">  1       21 0.61481471E-01 0.45420152E+03</pdfrwt>
<totfact> 0.62832038E+04</totfact>
</mgrwt>
</event>
<event>
 7    0  0.4707675E-002  0.4519806E+03  0.7546771E-02  0.1027133E+00
         21   -1    0    0  502  501  0.00000000000E+00  0.00000000000E+00  0.20585983205E+02  0.20585983205E+02  0.00000000000E+00 0. -1.
         21   -1    0    0  501  502 -0.00000000000E+00 -0.00000000000E+00 -0.24808930100E+04  0.24808930100E+04  0.00000000000E+00 0. -1.
      99926    2    1    2    0    0  0.35527136788E-14  0.00000000000E+00 -0.24603070268E+04  0.25014789932E+04  0.45198062719E+03 0.  0.
      99925    2    3    3    0    0  0.19631047578E+02 -0.99900738034E+02 -0.17868444715E+04  0.18089727788E+04  0.26306617735E+03 0.  0.
         25    1    4    4    0    0  0.36672754750E+02 -0.83400569772E+02 -0.98772682989E+03  0.99977614723E+03  0.12509000000E+03 0.  0.
         25    1    4    4    0    0 -0.17041707172E+02 -0.16500168262E+02 -0.79911764164E+03  0.80919663161E+03  0.12509000000E+03 0.  0.
         25    1    3    3    0    0 -0.19631047578E+02  0.99900738034E+02 -0.67346255525E+03  0.69250621435E+03  0.12509000000E+03 0.  0.
<mgrwt>
<rscale>  2 0.45198063E+03</rscale>
<asrwt>0</asrwt>
<pdfrwt beam="1">  1       21 0.30273508E-02 0.45198063E+03</pdfrwt>
<pdfrwt beam="2">  1       21 0.36483716E+00 0.45198063E+03</pdfrwt>
<totfact> 0.72861968E+03</totfact>
</mgrwt>
</event>
<event>
 7    0  0.4707675E-002  0.4567170E+03  0.7546771E-02  0.1025738E+00
         21   -1    0    0  502  501  0.00000000000E+00  0.00000000000E+00  0.14612031154E+04  0.14612031154E+04  0.00000000000E+00 0.  1.
         21   -1    0    0  501  502 -0.00000000000E+00 -0.00000000000E+00 -0.35688132336E+02  0.35688132336E+02  0.00000000000E+00 0.  1.
      99926    2    1    2    0    0  0.88817841970E-15  0.00000000000E+00  0.14255149831E+04  0.14968912477E+04  0.45671702465E+03 0.  0.
      99925    2    3    3    0    0  0.21492913585E+01  0.29468774212E+02  0.12590260988E+04  0.12865603542E+04  0.26309275802E+03 0.  0.
         25    1    4    4    0    0  0.37263605791E+02  0.32032724028E+01  0.69611386916E+03  0.70825197791E+03  0.12509000000E+03 0.  0.
         25    1    3    3    0    0 -0.21492913585E+01 -0.29468774212E+02  0.16648888422E+03  0.21033089354E+03  0.12509000000E+03 0.  0.
         25    1    4    4    0    0 -0.35114314432E+02  0.26265501809E+02  0.56291222969E+03  0.57830837630E+03  0.12509000000E+03 0.  0.
<mgrwt>
<rscale>  2 0.45671702E+03</rscale>
<asrwt>0</asrwt>
<pdfrwt beam="1">  1       21 0.21488277E+00 0.45671702E+03</pdfrwt>
<pdfrwt beam="2">  1       21 0.52482557E-02 0.45671702E+03</pdfrwt>
<totfact> 0.23539906E+04</totfact>
</mgrwt>
</event>
<event>
 7    0  0.4707675E-002  0.4563975E+03  0.7546771E-02  0.1025831E+00
         21   -1    0    0  502  501  0.00000000000E+00  0.00000000000E+00  0.29645984029E+03  0.29645984029E+03  0.00000000000E+00 0.  1.
         21   -1    0    0  501  502 -0.00000000000E+00 -0.00000000000E+00 -0.17565508521E+03  0.17565508521E+03  0.00000000000E+00 0.  1.
      99926    2    1    2    0    0  0.00000000000E+00  0.00000000000E+00  0.12080475508E+03  0.47211492550E+03  0.45639753947E+03 0.  0.
      99925    2    3    3    0    0 -0.60688308253E+02 -0.80318796131E+02  0.19518282655E+02  0.28227120724E+03  0.26298648502E+03 0.  0.
         25    1    4    4    0    0 -0.58928936666E+02 -0.13104385444E+02  0.19489265364E+02  0.14025578084E+03  0.12509000000E+03 0.  0.
         25    1    4    4    0    0 -0.17593715866E+01 -0.67214410687E+02  0.29017291068E-01  0.14201542640E+03  0.12509000000E+03 0.  0.
         25    1    3    3    0    0  0.60688308253E+02  0.80318796131E+02  0.10128647242E+03  0.18984371827E+03  0.12509000000E+03 0.  0.
<mgrwt>
<rscale>  2 0.45639754E+03</rscale>
<asrwt>0</asrwt>
<pdfrwt beam="1">  1       21 0.43597035E-01 0.45639754E+03</pdfrwt>
<pdfrwt beam="2">  1       21 0.25831630E-01 0.45639754E+03</pdfrwt>
<totfact> 0.66537956E+04</totfact>
</mgrwt>
</event>
<event>
 7    0  0.4707675E-002  0.4720275E+03  0.7546771E-02  0.1021350E+00
         21   -1    0    0  502  501  0.00000000000E+00  0.00000000000E+00  0.23255798496E+03  0.23255798496E+03  0.00000000000E+00 0. -1.
         21   -1    0    0  501  502 -0.00000000000E+00 -0.00000000000E+00 -0.23952090156E+03  0.23952090156E+03  0.00000000000E+00 0. -1.
      99926    2    1    2    0    0  0.00000000000E+00  0.88817841970E-15 -0.69629166026E+01  0.47207888652E+03  0.47202753404E+03 0.  0.
      99925    2    3    3    0    0 -0.33126732387E+02  0.67271366300E+01 -0.12805087442E+03  0.29473053893E+03  0.26329912528E+03 0.  0.
         25    1    4    4    0    0 -0.53340197221E+02 -0.14571587934E+02 -0.71788155900E+02  0.15446214825E+03  0.12509000000E+03 0.  0.
         25    1    4    4    0    0  0.20213464833E+02  0.21298724564E+02 -0.56262718521E+02  0.14026839068E+03  0.12509000000E+03 0.  0.
         25    1    3    3    0    0  0.33126732387E+02 -0.67271366300E+01  0.12108795782E+03  0.17734834759E+03  0.12509000000E+03 0.  0.
<mgrwt>
<rscale>  2 0.47202753E+03</rscale>
<asrwt>0</asrwt>
<pdfrwt beam="1">  1       21 0.34199704E-01 0.47202753E+03</pdfrwt>
<pdfrwt beam="2">  1       21 0.35223662E-01 0.47202753E+03</pdfrwt>
<totfact> 0.58894731E+04</totfact>
</mgrwt>
</event>
<event>
 7    0  0.4707675E-002  0.4547806E+03  0.7546771E-02  0.1026306E+00
         21   -1    0    0  502  501  0.00000000000E+00  0.00000000000E+00  0.10488305007E+03  0.10488305007E+03  0.00000000000E+00 0.  1.
         21   -1    0    0  501  502 -0.00000000000E+00 -0.00000000000E+00 -0.49299044042E+03  0.49299044042E+03  0.00000000000E+00 0.  1.
      99926    2    1    2    0    0 -0.14210854715E-13 -0.88817841970E-15 -0.38810739036E+03  0.59787349049E+03  0.45478056706E+03 0.  0.
      99925    2    3    3    0    0 -0.11154755082E+03  0.67586314960E+01 -0.26678130569E+03  0.39085643295E+03  0.26288391149E+03 0.  0.
         25    1    4    4    0    0 -0.62501118331E+02  0.20456863005E+02 -0.18558984040E+03  0.23327230868E+03  0.12509000000E+03 0.  0.
         25    1    3    3    0    0  0.11154755082E+03 -0.67586314960E+01 -0.12132608467E+03  0.20701705754E+03  0.12509000000E+03 0.  0.
         25    1    4    4    0    0 -0.49046432484E+02 -0.13698231509E+02 -0.81191465295E+02  0.15758412427E+03  0.12509000000E+03 0.  0.
<mgrwt>
<rscale>  2 0.45478057E+03</rscale>
<asrwt>0</asrwt>
<pdfrwt beam="1">  1       21 0.15423978E-01 0.45478057E+03</pdfrwt>
<pdfrwt beam="2">  1       21 0.72498594E-01 0.45478057E+03</pdfrwt>
<totfact> 0.58911430E+04</totfact>
</mgrwt>
</event>
<event>
 7    0  0.4707675E-002  0.4505195E+03  0.7546771E-02  0.1027567E+00
         21   -1    0    0  502  501  0.00000000000E+00  0.00000000000E+00  0.19734678029E+04  0.19734678029E+04  0.00000000000E+00 0.  1.
         21   -1    0    0  501  502 -0.00000000000E+00 -0.00000000000E+00 -0.25712072748E+02  0.25712072748E+02  0.00000000000E+00 0.  1.
      99926    2    1    2    0    0  0.71054273576E-14 -0.14210854715E-13  0.19477557301E+04  0.19991798756E+04  0.45051946779E+03 0.  0.
      99925    2    3    3    0    0  0.63992154739E+02 -0.87815456463E+02  0.12623243913E+04  0.12940060115E+04  0.26302497738E+03 0.  0.
         25    1    4    4    0    0 -0.40949708431E+01 -0.19813997094E+02  0.57401132375E+03  0.58783149895E+03  0.12509000000E+03 0.  0.
         25    1    4    4    0    0  0.68087125582E+02 -0.68001459369E+02  0.68831306755E+03  0.70617451257E+03  0.12509000000E+03 0.  0.
         25    1    3    3    0    0 -0.63992154739E+02  0.87815456463E+02  0.68543133882E+03  0.70517386409E+03  0.12509000000E+03 0.  0.
<mgrwt>
<rscale>  2 0.45051947E+03</rscale>
<asrwt>0</asrwt>
<pdfrwt beam="1">  1       21 0.29021575E+00 0.45051947E+03</pdfrwt>
<pdfrwt beam="2">  1       21 0.37811885E-02 0.45051947E+03</pdfrwt>
<totfact> 0.14210915E+04</totfact>
</mgrwt>
</event>
<event>
 7    0  0.4707675E-002  0.4644723E+03  0.7546771E-02  0.1023492E+00
         21   -1    0    0  502  501  0.00000000000E+00  0.00000000000E+00  0.20213200517E+03  0.20213200517E+03  0.00000000000E+00 0. -1.
         21   -1    0    0  501  502 -0.00000000000E+00 -0.00000000000E+00 -0.26682379046E+03  0.26682379046E+03  0.00000000000E+00 0. -1.
      99926    2    1    2    0    0  0.14210854715E-13  0.00000000000E+00 -0.64691785290E+02  0.46895579563E+03  0.46447229323E+03 0.  0.
      99925    2    3    3    0    0  0.91203859973E+02  0.43436759286E+02  0.28303884861E+02  0.28321242725E+03  0.26306514957E+03 0.  0.
         25    1    3    3    0    0 -0.91203859973E+02 -0.43436759286E+02 -0.92995670151E+02  0.18574336838E+03  0.12509000000E+03 0.  0.
         25    1    4    4    0    0  0.77174029897E+02  0.32049081054E+02 -0.11048099404E+02  0.15083946131E+03  0.12509000000E+03 0.  0.
         25    1    4    4    0    0  0.14029830076E+02  0.11387678232E+02  0.39351984265E+02  0.13237296594E+03  0.12509000000E+03 0.  0.
<mgrwt>
<rscale>  2 0.46447229E+03</rscale>
<asrwt>0</asrwt>
<pdfrwt beam="1">  1       21 0.29725295E-01 0.46447229E+03</pdfrwt>
<pdfrwt beam="2">  1       21 0.39238793E-01 0.46447229E+03</pdfrwt>
<totfact> 0.62663704E+04</totfact>
</mgrwt>
</event>
<event>
 7    0  0.4707675E-002  0.4316682E+03  0.7546771E-02  0.1033334E+00
         21   -1    0    0  502  501  0.00000000000E+00  0.00000000000E+00  0.15952859934E+03  0.15952859934E+03  0.00000000000E+00 0.  1.
         21   -1    0    0  501  502 -0.00000000000E+00 -0.00000000000E+00 -0.29201262137E+03  0.29201262137E+03  0.00000000000E+00 0.  1.
      99926    2    1    2    0    0  0.00000000000E+00 -0.71054273576E-14 -0.13248402203E+03  0.45154122072E+03  0.43166822666E+03 0.  0.
      99925    2    3    3    0    0 -0.62405558415E+02  0.39183802298E+02 -0.31631575115E+02  0.27476863168E+03  0.26280681180E+03 0.  0.
         25    1    4    4    0    0 -0.41723198432E+02  0.43067723063E+02 -0.48174558625E+02  0.14684668963E+03  0.12509000000E+03 0.  0.
         25    1    3    3    0    0  0.62405558415E+02 -0.39183802298E+02 -0.10085244692E+03  0.17677258903E+03  0.12509000000E+03 0.  0.
         25    1    4    4    0    0 -0.20682359983E+02 -0.38839207647E+01  0.16542983510E+02  0.12792194205E+03  0.12509000000E+03 0.  0.
<mgrwt>
<rscale>  2 0.43166823E+03</rscale>
<asrwt>0</asrwt>
<pdfrwt beam="1">  1       21 0.23460088E-01 0.43166823E+03</pdfrwt>
<pdfrwt beam="2">  1       21 0.42943032E-01 0.43166823E+03</pdfrwt>
<totfact> 0.83199286E+04</totfact>
</mgrwt>
</event>
<event>
 7    0  0.4707675E-002  0.4568180E+03  0.7546771E-02  0.1025708E+00
         21   -1    0    0  502  501  0.00000000000E+00  0.00000000000E+00  0.47453174417E+03  0.47453174417E+03  0.00000000000E+00 0. -1.
         21   -1    0    0  501  502 -0.00000000000E+00 -0.00000000000E+00 -0.10994139297E+03  0.10994139297E+03  0.00000000000E+00 0. -1.
      99926    2    1    2    0    0 -0.14210854715E-13  0.00000000000E+00  0.36459035120E+03  0.58447313715E+03  0.45681804240E+03 0.  0.
      99925    2    3    3    0    0  0.85365472347E+02  0.33434309353E+02  0.31763684060E+03  0.42243222513E+03  0.26296521710E+03 0.  0.
         25    1    4    4    0    0  0.20876848577E+02 -0.99040440767E+01  0.18323946097E+03  0.22306532911E+03  0.12509000000E+03 0.  0.
         25    1    3    3    0    0 -0.85365472347E+02 -0.33434309353E+02  0.46953510594E+02  0.16204091202E+03  0.12509000000E+03 0.  0.
         25    1    4    4    0    0  0.64488623770E+02  0.43338353430E+02  0.13439737964E+03  0.19936689602E+03  0.12509000000E+03 0.  0.
<mgrwt>
<rscale>  2 0.45681804E+03</rscale>
<asrwt>0</asrwt>
<pdfrwt beam="1">  1       21 0.69784079E-01 0.45681804E+03</pdfrwt>
<pdfrwt beam="2">  1       21 0.16167852E-01 0.45681804E+03</pdfrwt>
<totfact> 0.58794789E+04</totfact>
</mgrwt>
</event>
<event>
 7    0  0.4707675E-002  0.4503196E+03  0.7546771E-02  0.1027627E+00
         21   -1    0    0  502  501  0.00000000000E+00  0.00000000000E+00  0.13439622416E+03  0.13439622416E+03  0.00000000000E+00 0.  1.
         21   -1    0    0  501  502 -0.00000000000E+00 -0.00000000000E+00 -0.37721999181E+03  0.37721999181E+03  0.00000000000E+00 0.  1.
      99926    2    1    2    0    0 -0.14210854715E-13  0.00000000000E+00 -0.24282376765E+03  0.51161621598E+03  0.45031963128E+03 0.  0.
      99925    2    3    3    0    0  0.94315493478E+02 -0.45608346799E+02 -0.12054031414E+03  0.30771358061E+03  0.26302499263E+03 0.  0.
         25    1    4    4    0    0  0.11270942605E+02 -0.13712870154E+01 -0.66486803721E+02  0.14211586028E+03  0.12509000000E+03 0.  0.
         25    1    4    4    0    0  0.83044550873E+02 -0.44237059784E+02 -0.54053510419E+02  0.16559772032E+03  0.12509000000E+03 0.  0.
         25    1    3    3    0    0 -0.94315493478E+02  0.45608346799E+02 -0.12228345351E+03  0.20390263537E+03  0.12509000000E+03 0.  0.
<mgrwt>
<rscale>  2 0.45031963E+03</rscale>
<asrwt>0</asrwt>
<pdfrwt beam="1">  1       21 0.19764151E-01 0.45031963E+03</pdfrwt>
<pdfrwt beam="2">  1       21 0.55473527E-01 0.45031963E+03</pdfrwt>
<totfact> 0.66912869E+04</totfact>
</mgrwt>
</event>
<event>
 7    0  0.4707675E-002  0.4529448E+03  0.7546771E-02  0.1026848E+00
         21   -1    0    0  502  501  0.00000000000E+00  0.00000000000E+00  0.25380938539E+03  0.25380938539E+03  0.00000000000E+00 0.  1.
         21   -1    0    0  501  502 -0.00000000000E+00 -0.00000000000E+00 -0.20207976995E+03  0.20207976995E+03  0.00000000000E+00 0.  1.
      99926    2    1    2    0    0  0.00000000000E+00  0.00000000000E+00  0.51729615436E+02  0.45588915534E+03  0.45294477460E+03 0.  0.
      99925    2    3    3    0    0  0.10465260429E+02  0.73974545039E+02 -0.50471342565E+02  0.27791640769E+03  0.26288480035E+03 0.  0.
         25    1    4    4    0    0  0.31497751128E+02  0.63537980064E+02 -0.90790853834E+01  0.14408025933E+03  0.12509000000E+03 0.  0.
         25    1    4    4    0    0 -0.21032490699E+02  0.10436564976E+02 -0.41392257181E+02  0.13383614836E+03  0.12509000000E+03 0.  0.
         25    1    3    3    0    0 -0.10465260429E+02 -0.73974545039E+02  0.10220095800E+03  0.17797274765E+03  0.12509000000E+03 0.  0.
<mgrwt>
<rscale>  2 0.45294477E+03</rscale>
<asrwt>0</asrwt>
<pdfrwt beam="1">  1       21 0.37324909E-01 0.45294477E+03</pdfrwt>
<pdfrwt beam="2">  1       21 0.29717613E-01 0.45294477E+03</pdfrwt>
<totfact> 0.69615155E+04</totfact>
</mgrwt>
</event>
<event>
 7    0  0.4707675E-002  0.4395917E+03  0.7546771E-02  0.1030872E+00
         21   -1    0    0  502  501  0.00000000000E+00  0.00000000000E+00  0.19761565425E+03  0.19761565425E+03  0.00000000000E+00 0.  1.
         21   -1    0    0  501  502 -0.00000000000E+00 -0.00000000000E+00 -0.24446554138E+03  0.24446554138E+03  0.00000000000E+00 0.  1.
      99926    2    1    2    0    0  0.00000000000E+00  0.00000000000E+00 -0.46849887125E+02  0.44208119563E+03  0.43959171012E+03 0.  0.
      99925    2    3    3    0    0  0.35662373709E+02  0.49706922900E+02 -0.10706916459E+03  0.29036945396E+03  0.26288406324E+03 0.  0.
         25    1    4    4    0    0  0.47881600032E+02  0.50111817128E+01 -0.73287446731E+02  0.15276229087E+03  0.12509000000E+03 0.  0.
         25    1    4    4    0    0 -0.12219226324E+02  0.44695741188E+02 -0.33781717861E+02  0.13760716309E+03  0.12509000000E+03 0.  0.
         25    1    3    3    0    0 -0.35662373709E+02 -0.49706922900E+02  0.60219277467E+02  0.15171174167E+03  0.12509000000E+03 0.  0.
<mgrwt>
<rscale>  2 0.43959171E+03</rscale>
<asrwt>0</asrwt>
<pdfrwt beam="1">  1       21 0.29061126E-01 0.43959171E+03</pdfrwt>
<pdfrwt beam="2">  1       21 0.35950815E-01 0.43959171E+03</pdfrwt>
<totfact> 0.78747313E+04</totfact>
</mgrwt>
</event>
<event>
 7    0  0.4707675E-002  0.4665894E+03  0.7546771E-02  0.1022887E+00
         21   -1    0    0  502  501  0.00000000000E+00  0.00000000000E+00  0.53810151186E+02  0.53810151186E+02  0.00000000000E+00 0.  1.
         21   -1    0    0  501  502 -0.00000000000E+00 -0.00000000000E+00 -0.10114526534E+04  0.10114526534E+04  0.00000000000E+00 0.  1.
      99926    2    1    2    0    0  0.71054273576E-14  0.00000000000E+00 -0.95764250226E+03  0.10652628046E+04  0.46658941351E+03 0.  0.
      99925    2    3    3    0    0 -0.48031483999E+02 -0.80636364911E+02 -0.41388810170E+03  0.49946637213E+03  0.26335156988E+03 0.  0.
         25    1    3    3    0    0  0.48031483999E+02  0.80636364911E+02 -0.54375440056E+03  0.56579643250E+03  0.12509000000E+03 0.  0.
         25    1    4    4    0    0 -0.45981520845E+02 -0.18119912508E+02 -0.15502706499E+03  0.20524017752E+03  0.12509000000E+03 0.  0.
         25    1    4    4    0    0 -0.20499631544E+01 -0.62516452402E+02 -0.25886103671E+03  0.29422619461E+03  0.12509000000E+03 0.  0.
<mgrwt>
<rscale>  2 0.46658941E+03</rscale>
<asrwt>0</asrwt>
<pdfrwt beam="1">  1       21 0.79132586E-02 0.46658941E+03</pdfrwt>
<pdfrwt beam="2">  1       21 0.14874302E+00 0.46658941E+03</pdfrwt>
<totfact> 0.33580701E+04</totfact>
</mgrwt>
</event>
<event>
 7    0  0.4707675E-002  0.4071140E+03  0.7546771E-02  0.1041344E+00
         21   -1    0    0  502  501  0.00000000000E+00  0.00000000000E+00  0.26055001008E+03  0.26055001008E+03  0.00000000000E+00 0.  1.
         21   -1    0    0  501  502 -0.00000000000E+00 -0.00000000000E+00 -0.15903069384E+03  0.15903069384E+03  0.00000000000E+00 0.  1.
      99926    2    1    2    0    0  0.00000000000E+00  0.53290705182E-14  0.10151931624E+03  0.41958070392E+03  0.40711398347E+03 0.  0.
      99925    2    3    3    0    0  0.51154754465E+02 -0.99440653006E+01  0.42021385996E+02  0.27158338927E+03  0.26320343294E+03 0.  0.
         25    1    3    3    0    0 -0.51154754465E+02  0.99440653006E+01  0.59497930246E+02  0.14799731465E+03  0.12509000000E+03 0.  0.
         25    1    4    4    0    0  0.43708694495E+02 -0.41931895960E+02  0.21611637243E+02  0.14065313661E+03  0.12509000000E+03 0.  0.
         25    1    4    4    0    0  0.74460599702E+01  0.31987830659E+02  0.20409748752E+02  0.13093025267E+03  0.12509000000E+03 0.  0.
<mgrwt>
<rscale>  2 0.40711398E+03</rscale>
<asrwt>0</asrwt>
<pdfrwt beam="1">  1       21 0.38316178E-01 0.40711398E+03</pdfrwt>
<pdfrwt beam="2">  1       21 0.23386867E-01 0.40711398E+03</pdfrwt>
<totfact> 0.10639605E+05</totfact>
</mgrwt>
</event>
<event>
 7    0  0.4707675E-002  0.4495885E+03  0.7546771E-02  0.1027845E+00
         21   -1    0    0  502  501  0.00000000000E+00  0.00000000000E+00  0.27542139704E+03  0.27542139704E+03  0.00000000000E+00 0.  1.
         21   -1    0    0  501  502 -0.00000000000E+00 -0.00000000000E+00 -0.18347322196E+03  0.18347322196E+03  0.00000000000E+00 0.  1.
      99926    2    1    2    0    0  0.00000000000E+00  0.00000000000E+00  0.91948175076E+02  0.45889461899E+03  0.44958848344E+03 0.  0.
      99925    2    3    3    0    0 -0.39883452902E+02  0.99342195031E+02  0.42674427127E+02  0.28703720174E+03  0.26288721331E+03 0.  0.
         25    1    4    4    0    0  0.19957793242E+02  0.39626292439E+02  0.24516549702E+02  0.13497083342E+03  0.12509000000E+03 0.  0.
         25    1    3    3    0    0  0.39883452902E+02 -0.99342195031E+02  0.49273747949E+02  0.17185741726E+03  0.12509000000E+03 0.  0.
         25    1    4    4    0    0 -0.59841246144E+02  0.59715902592E+02  0.18157877425E+02  0.15206636832E+03  0.12509000000E+03 0.  0.
<mgrwt>
<rscale>  2 0.44958848E+03</rscale>
<asrwt>0</asrwt>
<pdfrwt beam="1">  1       21 0.40503147E-01 0.44958848E+03</pdfrwt>
<pdfrwt beam="2">  1       21 0.26981356E-01 0.44958848E+03</pdfrwt>
<totfact> 0.71282373E+04</totfact>
</mgrwt>
</event>
<event>
 7    0  0.4707675E-002  0.4558325E+03  0.7546771E-02  0.1025997E+00
         21   -1    0    0  502  501  0.00000000000E+00  0.00000000000E+00  0.46028887509E+03  0.46028887509E+03  0.00000000000E+00 0. -1.
         21   -1    0    0  501  502 -0.00000000000E+00 -0.00000000000E+00 -0.11285480637E+03  0.11285480637E+03  0.00000000000E+00 0. -1.
      99926    2    1    2    0    0 -0.71054273576E-14  0.00000000000E+00  0.34743406872E+03  0.57314368146E+03  0.45583247744E+03 0.  0.
      99925    2    3    3    0    0  0.38062686889E+02  0.45868079778E+02  0.96558908837E+02  0.28654552580E+03  0.26311987117E+03 0.  0.
         25    1    4    4    0    0 -0.77372709701E+01  0.31783776245E+02  0.16123941477E+02  0.13029797920E+03  0.12509000000E+03 0.  0.
         25    1    4    4    0    0  0.45799957859E+02  0.14084303533E+02  0.80434967360E+02  0.15624754661E+03  0.12509000000E+03 0.  0.
         25    1    3    3    0    0 -0.38062686889E+02 -0.45868079778E+02  0.25087515989E+03  0.28659815565E+03  0.12509000000E+03 0.  0.
<mgrwt>
<rscale>  2 0.45583248E+03</rscale>
<asrwt>0</asrwt>
<pdfrwt beam="1">  1       21 0.67689540E-01 0.45583248E+03</pdfrwt>
<pdfrwt beam="2">  1       21 0.16596295E-01 0.45583248E+03</pdfrwt>
<totfact> 0.59966855E+04</totfact>
</mgrwt>
</event>
<event>
 7    0  0.4707675E-002  0.4576642E+03  0.7546771E-02  0.1025461E+00
         21   -1    0    0  502  501  0.00000000000E+00  0.00000000000E+00  0.13444329627E+03  0.13444329627E+03  0.00000000000E+00 0. -1.
         21   -1    0    0  501  502 -0.00000000000E+00 -0.00000000000E+00 -0.38948857988E+03  0.38948857988E+03  0.00000000000E+00 0. -1.
      99926    2    1    2    0    0  0.00000000000E+00  0.14210854715E-13 -0.25504528361E+03  0.52393187615E+03  0.45766419366E+03 0.  0.
      99925    2    3    3    0    0  0.27953833938E+01  0.98588893324E+02 -0.90976207457E+02  0.29525360017E+03  0.26300272629E+03 0.  0.
         25    1    3    3    0    0 -0.27953833938E+01 -0.98588893324E+02 -0.16406907615E+03  0.22867827598E+03  0.12509000000E+03 0.  0.
         25    1    4    4    0    0  0.69583152193E+01  0.67300090175E+01 -0.45815987033E+02  0.13356767551E+03  0.12509000000E+03 0.  0.
         25    1    4    4    0    0 -0.41629318256E+01  0.91858884306E+02 -0.45160220424E+02  0.16168592467E+03  0.12509000000E+03 0.  0.
<mgrwt>
<rscale>  2 0.45766419E+03</rscale>
<asrwt>0</asrwt>
<pdfrwt beam="1">  1       21 0.19771073E-01 0.45766419E+03</pdfrwt>
<pdfrwt beam="2">  1       21 0.57277733E-01 0.45766419E+03</pdfrwt>
<totfact> 0.62292963E+04</totfact>
</mgrwt>
</event>
<event>
 7    0  0.4707675E-002  0.4342772E+03  0.7546771E-02  0.1032517E+00
         21   -1    0    0  502  501  0.00000000000E+00  0.00000000000E+00  0.56609071767E+03  0.56609071767E+03  0.00000000000E+00 0.  1.
         21   -1    0    0  501  502 -0.00000000000E+00 -0.00000000000E+00 -0.83289088505E+02  0.83289088505E+02  0.00000000000E+00 0.  1.
      99926    2    1    2    0    0  0.00000000000E+00  0.00000000000E+00  0.48280162917E+03  0.64937980618E+03  0.43427723811E+03 0.  0.
      99925    2    3    3    0    0  0.46204458905E+02 -0.64837006412E+02  0.38030104621E+03  0.46912285893E+03  0.26288530123E+03 0.  0.
         25    1    4    4    0    0  0.48929301382E+02 -0.12937913763E+02  0.23104404337E+03  0.26756368256E+03  0.12509000000E+03 0.  0.
         25    1    4    4    0    0 -0.27248424771E+01 -0.51899092649E+02  0.14925700284E+03  0.20155917638E+03  0.12509000000E+03 0.  0.
         25    1    3    3    0    0 -0.46204458905E+02  0.64837006412E+02  0.10250058295E+03  0.18025694724E+03  0.12509000000E+03 0.  0.
<mgrwt>
<rscale>  2 0.43427724E+03</rscale>
<asrwt>0</asrwt>
<pdfrwt beam="1">  1       21 0.83248633E-01 0.43427724E+03</pdfrwt>
<pdfrwt beam="2">  1       21 0.12248396E-01 0.43427724E+03</pdfrwt>
<totfact> 0.65855919E+04</totfact>
</mgrwt>
</event>
<event>
 7    0  0.4707675E-002  0.4566770E+03  0.7546771E-02  0.1025749E+00
         21   -1    0    0  502  501  0.00000000000E+00  0.00000000000E+00  0.16451231114E+03  0.16451231114E+03  0.00000000000E+00 0.  1.
         21   -1    0    0  501  502 -0.00000000000E+00 -0.00000000000E+00 -0.31692749986E+03  0.31692749986E+03  0.00000000000E+00 0.  1.
      99926    2    1    2    0    0  0.00000000000E+00 -0.71054273576E-14 -0.15241518872E+03  0.48143981101E+03  0.45667702139E+03 0.  0.
      99925    2    3    3    0    0  0.59803179975E+02 -0.45656347210E+02 -0.44934278946E+01  0.27361950930E+03  0.26303331082E+03 0.  0.
         25    1    3    3    0    0 -0.59803179975E+02  0.45656347210E+02 -0.14792176083E+03  0.20782030171E+03  0.12509000000E+03 0.  0.
         25    1    4    4    0    0  0.30087387053E+02 -0.38320037049E+02 -0.39924505271E+02  0.14005409783E+03  0.12509000000E+03 0.  0.
         25    1    4    4    0    0  0.29715792922E+02 -0.73363101613E+01  0.35431077376E+02  0.13356541146E+03  0.12509000000E+03 0.  0.
<mgrwt>
<rscale>  2 0.45667702E+03</rscale>
<asrwt>0</asrwt>
<pdfrwt beam="1">  1       21 0.24192987E-01 0.45667702E+03</pdfrwt>
<pdfrwt beam="2">  1       21 0.46606984E-01 0.45667702E+03</pdfrwt>
<totfact> 0.65716294E+04</totfact>
</mgrwt>
</event>
<event>
 7    0  0.4707675E-002  0.4559279E+03  0.7546771E-02  0.1025969E+00
         21   -1    0    0  502  501  0.00000000000E+00  0.00000000000E+00  0.92331351344E+02  0.92331351344E+02  0.00000000000E+00 0. -1.
         21   -1    0    0  501  502 -0.00000000000E+00 -0.00000000000E+00 -0.56283760304E+03  0.56283760304E+03  0.00000000000E+00 0. -1.
      99926    2    1    2    0    0  0.00000000000E+00  0.33306690739E-15 -0.47050625170E+03  0.65516895439E+03  0.45592787358E+03 0.  0.
      99925    2    3    3    0    0  0.76511535652E+02 -0.73268534820E+00 -0.41735033102E+03  0.49919584158E+03  0.26298410129E+03 0.  0.
         25    1    4    4    0    0  0.68975002954E+01  0.13807946531E+02 -0.23745792869E+03  0.26883454186E+03  0.12509000000E+03 0.  0.
         25    1    3    3    0    0 -0.76511535652E+02  0.73268534820E+00 -0.53155920679E+02  0.15597311281E+03  0.12509000000E+03 0.  0.
         25    1    4    4    0    0  0.69614035357E+02 -0.14540631879E+02 -0.17989240233E+03  0.23036129973E+03  0.12509000000E+03 0.  0.
<mgrwt>
<rscale>  2 0.45592787E+03</rscale>
<asrwt>0</asrwt>
<pdfrwt beam="1">  1       21 0.13578140E-01 0.45592787E+03</pdfrwt>
<pdfrwt beam="2">  1       21 0.82770238E-01 0.45592787E+03</pdfrwt>
<totfact> 0.55001043E+04</totfact>
</mgrwt>
</event>
<event>
 7    0  0.4707675E-002  0.4560808E+03  0.7546771E-02  0.1025924E+00
         21   -1    0    0  502  501  0.00000000000E+00  0.00000000000E+00  0.23185938414E+03  0.23185938414E+03  0.00000000000E+00 0. -1.
         21   -1    0    0  501  502 -0.00000000000E+00 -0.00000000000E+00 -0.22428432953E+03  0.22428432953E+03  0.00000000000E+00 0. -1.
      99926    2    1    2    0    0  0.00000000000E+00  0.00000000000E+00  0.75750546067E+01  0.45614371367E+03  0.45608081090E+03 0.  0.
      99925    2    3    3    0    0  0.10022261514E+03  0.48923951757E+02  0.29191795320E+02  0.28716762891E+03  0.26301133158E+03 0.  0.
         25    1    3    3    0    0 -0.10022261514E+03 -0.48923951757E+02 -0.21616740713E+02  0.16897608476E+03  0.12509000000E+03 0.  0.
         25    1    4    4    0    0  0.42384772641E+02 -0.12709006158E+02  0.30704572183E+02  0.13619202121E+03  0.12509000000E+03 0.  0.
         25    1    4    4    0    0  0.57837842499E+02  0.61632957915E+02 -0.15127768632E+01  0.15097560770E+03  0.12509000000E+03 0.  0.
<mgrwt>
<rscale>  2 0.45608081E+03</rscale>
<asrwt>0</asrwt>
<pdfrwt beam="1">  1       21 0.34096968E-01 0.45608081E+03</pdfrwt>
<pdfrwt beam="2">  1       21 0.32982990E-01 0.45608081E+03</pdfrwt>
<totfact> 0.67874861E+04</totfact>
</mgrwt>
</event>
<event>
 7    0  0.4707675E-002  0.4206637E+03  0.7546771E-02  0.1036851E+00
         21   -1    0    0  502  501  0.00000000000E+00  0.00000000000E+00  0.39256710329E+02  0.39256710329E+02  0.00000000000E+00 0. -1.
         21   -1    0    0  501  502 -0.00000000000E+00 -0.00000000000E+00 -0.11269281735E+04  0.11269281735E+04  0.00000000000E+00 0. -1.
      99926    2    1    2    0    0  0.35527136788E-14  0.00000000000E+00 -0.10876714632E+04  0.11661848839E+04  0.42066372732E+03 0.  0.
      99925    2    3    3    0    0  0.20487140398E+02 -0.44395454901E+02 -0.86989678656E+03  0.91032555293E+03  0.26378308080E+03 0.  0.
         25    1    4    4    0    0 -0.27651563320E+01  0.18737499558E+01 -0.52739308408E+03  0.54203517438E+03  0.12509000000E+03 0.  0.
         25    1    4    4    0    0  0.23252296730E+02 -0.46269204857E+02 -0.34250370247E+03  0.36829037855E+03  0.12509000000E+03 0.  0.
         25    1    3    3    0    0 -0.20487140398E+02  0.44395454901E+02 -0.21777467664E+03  0.25585933093E+03  0.12509000000E+03 0.  0.
<mgrwt>
<rscale>  2 0.42066373E+03</rscale>
<asrwt>0</asrwt>
<pdfrwt beam="1">  1       21 0.57730462E-02 0.42066373E+03</pdfrwt>
<pdfrwt beam="2">  1       21 0.16572472E+00 0.42066373E+03</pdfrwt>
<totfact> 0.43855692E+04</totfact>
</mgrwt>
</event>
<event>
 7    0  0.4707675E-002  0.4560298E+03  0.7546771E-02  0.1025939E+00
         21   -1    0    0  502  501  0.00000000000E+00  0.00000000000E+00  0.87352520316E+03  0.87352520316E+03  0.00000000000E+00 0. -1.
         21   -1    0    0  501  502 -0.00000000000E+00 -0.00000000000E+00 -0.59518369362E+02  0.59518369362E+02  0.00000000000E+00 0. -1.
      99926    2    1    2    0    0  0.00000000000E+00  0.17763568394E-14  0.81400683380E+03  0.93304357252E+03  0.45602980468E+03 0.  0.
      99925    2    3    3    0    0 -0.34554867187E+02  0.41190535850E+01  0.28938084941E+03  0.39258919236E+03  0.26300949127E+03 0.  0.
         25    1    3    3    0    0  0.34554867187E+02 -0.41190535850E+01  0.52462598439E+03  0.54045438017E+03  0.12509000000E+03 0.  0.
         25    1    4    4    0    0 -0.80510739309E+00 -0.89903759359E+01  0.19464684890E+03  0.23155210848E+03  0.12509000000E+03 0.  0.
         25    1    4    4    0    0 -0.33749759793E+02  0.13109429521E+02  0.94734000514E+02  0.16103708387E+03  0.12509000000E+03 0.  0.
<mgrwt>
<rscale>  2 0.45602980E+03</rscale>
<asrwt>0</asrwt>
<pdfrwt beam="1">  1       21 0.12845958E+00 0.45602980E+03</pdfrwt>
<pdfrwt beam="2">  1       21 0.87527019E-02 0.45602980E+03</pdfrwt>
<totfact> 0.41499907E+04</totfact>
</mgrwt>
</event>
<event>
 7    0  0.4707675E-002  0.4554247E+03  0.7546771E-02  0.1026117E+00
         21   -1    0    0  502  501  0.00000000000E+00  0.00000000000E+00  0.17594101281E+02  0.17594101281E+02  0.00000000000E+00 0. -1.
         21   -1    0    0  501  502 -0.00000000000E+00 -0.00000000000E+00 -0.29471759151E+04  0.29471759151E+04  0.00000000000E+00 0. -1.
      99926    2    1    2    0    0 -0.21094237468E-14 -0.17763568394E-14 -0.29295818138E+04  0.29647700164E+04  0.45542468771E+03 0.  0.
      99925    2    3    3    0    0  0.50114271370E+00  0.37766462753E+01 -0.25816902154E+04  0.25950531159E+04  0.26298629524E+03 0.  0.
         25    1    4    4    0    0 -0.16895891935E+02  0.18123350557E+02 -0.16178722892E+04  0.16228900700E+04  0.12509000000E+03 0.  0.
         25    1    3    3    0    0 -0.50114271370E+00 -0.37766462753E+01 -0.34789159837E+03  0.36971690050E+03  0.12509000000E+03 0.  0.
         25    1    4    4    0    0  0.17397034648E+02 -0.14346704282E+02 -0.96381792624E+03  0.97216304588E+03  0.12509000000E+03 0.  0.
<mgrwt>
<rscale>  2 0.45542469E+03</rscale>
<asrwt>0</asrwt>
<pdfrwt beam="1">  1       21 0.25873687E-02 0.45542469E+03</pdfrwt>
<pdfrwt beam="2">  1       21 0.43340808E+00 0.45542469E+03</pdfrwt>
<totfact> 0.34369197E+03</totfact>
</mgrwt>
</event>
<event>
 7    0  0.4707675E-002  0.4509267E+03  0.7546771E-02  0.1027446E+00
         21   -1    0    0  502  501  0.00000000000E+00  0.00000000000E+00  0.13158209299E+02  0.13158209299E+02  0.00000000000E+00 0.  1.
         21   -1    0    0  501  502 -0.00000000000E+00 -0.00000000000E+00 -0.38632703323E+04  0.38632703323E+04  0.00000000000E+00 0.  1.
      99926    2    1    2    0    0  0.00000000000E+00  0.14210854715E-13 -0.38501121230E+04  0.38764285416E+04  0.45092668854E+03 0.  0.
      99925    2    3    3    0    0 -0.20715870715E+01  0.89969379831E+02 -0.29648387671E+04  0.29778434295E+04  0.26302812661E+03 0.  0.
         25    1    3    3    0    0  0.20715870715E+01 -0.89969379831E+02 -0.88527335590E+03  0.89858511203E+03  0.12509000000E+03 0.  0.
         25    1    4    4    0    0  0.23728781723E+02  0.67483314100E+02 -0.13002813575E+04  0.13082416327E+04  0.12509000000E+03 0.  0.
         25    1    4    4    0    0 -0.25800368795E+02  0.22486065731E+02 -0.16645574096E+04  0.16696017969E+04  0.12509000000E+03 0.  0.
<mgrwt>
<rscale>  2 0.45092669E+03</rscale>
<asrwt>0</asrwt>
<pdfrwt beam="1">  1       21 0.19350317E-02 0.45092669E+03</pdfrwt>
<pdfrwt beam="2">  1       21 0.56812771E+00 0.45092669E+03</pdfrwt>
<totfact> 0.60993336E+02</totfact>
</mgrwt>
</event>
<event>
 7    0  0.4707675E-002  0.4530334E+03  0.7546771E-02  0.1026821E+00
         21   -1    0    0  502  501  0.00000000000E+00  0.00000000000E+00  0.16242418397E+03  0.16242418397E+03  0.00000000000E+00 0.  1.
         21   -1    0    0  501  502 -0.00000000000E+00 -0.00000000000E+00 -0.31590014843E+03  0.31590014843E+03  0.00000000000E+00 0.  1.
      99926    2    1    2    0    0  0.14210854715E-13  0.44408920985E-14 -0.15347596446E+03  0.47832433240E+03  0.45303343729E+03 0.  0.
      99925    2    3    3    0    0 -0.92402807135E+02  0.44593788416E+01 -0.31439554128E+02  0.28059077841E+03  0.26302960773E+03 0.  0.
         25    1    3    3    0    0  0.92402807135E+02 -0.44593788416E+01 -0.12203641033E+03  0.19773355399E+03  0.12509000000E+03 0.  0.
         25    1    4    4    0    0 -0.26802930775E+02  0.34720529809E+02  0.90884018136E+00  0.13256034995E+03  0.12509000000E+03 0.  0.
         25    1    4    4    0    0 -0.65599876360E+02 -0.30261150968E+02 -0.32348394309E+02  0.14803042846E+03  0.12509000000E+03 0.  0.
<mgrwt>
<rscale>  2 0.45303344E+03</rscale>
<asrwt>0</asrwt>
<pdfrwt beam="1">  1       21 0.23885910E-01 0.45303344E+03</pdfrwt>
<pdfrwt beam="2">  1       21 0.46455904E-01 0.45303344E+03</pdfrwt>
<totfact> 0.67875588E+04</totfact>
</mgrwt>
</event>
<event>
 7    0  0.4707675E-002  0.4609807E+03  0.7546771E-02  0.1024497E+00
         21   -1    0    0  502  501  0.00000000000E+00  0.00000000000E+00  0.22188567972E+03  0.22188567972E+03  0.00000000000E+00 0.  1.
         21   -1    0    0  501  502 -0.00000000000E+00 -0.00000000000E+00 -0.23942873785E+03  0.23942873785E+03  0.00000000000E+00 0.  1.
      99926    2    1    2    0    0  0.00000000000E+00 -0.26645352591E-14 -0.17543058127E+02  0.46131441757E+03  0.46098072950E+03 0.  0.
      99925    2    3    3    0    0 -0.11511585670E+03  0.13915950299E+01 -0.39565994767E+02  0.28989063031E+03  0.26309221310E+03 0.  0.
         25    1    4    4    0    0 -0.57941524911E+02  0.36081147648E+02  0.47952715471E+00  0.14250195638E+03  0.12509000000E+03 0.  0.
         25    1    4    4    0    0 -0.57174331794E+02 -0.34689552618E+02 -0.40045521922E+02  0.14738867393E+03  0.12509000000E+03 0.  0.
         25    1    3    3    0    0  0.11511585670E+03 -0.13915950299E+01  0.22022936641E+02  0.17142378726E+03  0.12509000000E+03 0.  0.
<mgrwt>
<rscale>  2 0.46098073E+03</rscale>
<asrwt>0</asrwt>
<pdfrwt beam="1">  1       21 0.32630247E-01 0.46098073E+03</pdfrwt>
<pdfrwt beam="2">  1       21 0.35210108E-01 0.46098073E+03</pdfrwt>
<totfact> 0.64931410E+04</totfact>
</mgrwt>
</event>
<event>
 7    0  0.4707675E-002  0.4427446E+03  0.7546771E-02  0.1029908E+00
         21   -1    0    0  502  501  0.00000000000E+00  0.00000000000E+00  0.21765286638E+03  0.21765286638E+03  0.00000000000E+00 0.  1.
         21   -1    0    0  501  502 -0.00000000000E+00 -0.00000000000E+00 -0.22515525813E+03  0.22515525813E+03  0.00000000000E+00 0.  1.
      99926    2    1    2    0    0  0.00000000000E+00 -0.71054273576E-14 -0.75023917460E+01  0.44280812451E+03  0.44274456434E+03 0.  0.
      99925    2    3    3    0    0  0.75837423529E+02 -0.58066386075E+02  0.28615003059E+02  0.28133058952E+03  0.26306855039E+03 0.  0.
         25    1    4    4    0    0  0.12368083244E+02 -0.17093363625E+02 -0.17583159646E+02  0.12806962234E+03  0.12509000000E+03 0.  0.
         25    1    3    3    0    0 -0.75837423529E+02  0.58066386075E+02 -0.36117394805E+02  0.16147753499E+03  0.12509000000E+03 0.  0.
         25    1    4    4    0    0  0.63469340285E+02 -0.40973022449E+02  0.46198162705E+02  0.15326096718E+03  0.12509000000E+03 0.  0.
<mgrwt>
<rscale>  2 0.44274456E+03</rscale>
<asrwt>0</asrwt>
<pdfrwt beam="1">  1       21 0.32007775E-01 0.44274456E+03</pdfrwt>
<pdfrwt beam="2">  1       21 0.33111067E-01 0.44274456E+03</pdfrwt>
<totfact> 0.76676327E+04</totfact>
</mgrwt>
</event>
<event>
 7    0  0.4707675E-002  0.4502378E+03  0.7546771E-02  0.1027651E+00
         21   -1    0    0  502  501  0.00000000000E+00  0.00000000000E+00  0.15554913721E+03  0.15554913721E+03  0.00000000000E+00 0. -1.
         21   -1    0    0  501  502 -0.00000000000E+00 -0.00000000000E+00 -0.32580389784E+03  0.32580389784E+03  0.00000000000E+00 0. -1.
      99926    2    1    2    0    0  0.00000000000E+00  0.00000000000E+00 -0.17025476062E+03  0.48135303505E+03  0.45023778255E+03 0.  0.
      99925    2    3    3    0    0 -0.78112384676E+02 -0.28041748178E+02 -0.32728821634E+02  0.27776330968E+03  0.26304637644E+03 0.  0.
         25    1    4    4    0    0 -0.35082706987E+02  0.73720059774E+01  0.18740545608E+02  0.13146809100E+03  0.12509000000E+03 0.  0.
         25    1    3    3    0    0  0.78112384676E+02  0.28041748178E+02 -0.13752593899E+03  0.20358972537E+03  0.12509000000E+03 0.  0.
         25    1    4    4    0    0 -0.43029677689E+02 -0.35413754155E+02 -0.51469367242E+02  0.14629521868E+03  0.12509000000E+03 0.  0.
<mgrwt>
<rscale>  2 0.45023778E+03</rscale>
<asrwt>0</asrwt>
<pdfrwt beam="1">  1       21 0.22874873E-01 0.45023778E+03</pdfrwt>
<pdfrwt beam="2">  1       21 0.47912338E-01 0.45023778E+03</pdfrwt>
<totfact> 0.69180246E+04</totfact>
</mgrwt>
</event>
<event>
 6    0  0.4707675E-002  0.4404730E+03  0.7546771E-02  0.1030602E+00
         21   -1    0    0  502  501  0.00000000000E+00  0.00000000000E+00  0.30663132426E+02  0.30663132426E+02  0.00000000000E+00 0.  1.
         21   -1    0    0  501  502 -0.00000000000E+00 -0.00000000000E+00 -0.15818382758E+04  0.15818382758E+04  0.00000000000E+00 0.  1.
      99926    2    1    2    0    0 -0.14210854715E-13 -0.35527136788E-14 -0.15511751434E+04  0.16125014082E+04  0.44047300270E+03 0.  0.
         25    1    3    3    0    0 -0.63707508537E+02 -0.21189485237E+00 -0.58984970076E+03  0.60632406280E+03  0.12509000000E+03 0.  0.
         25    1    3    3    0    0 -0.20774215834E+02 -0.31483333295E+02 -0.30198183377E+03  0.32903389544E+03  0.12509000000E+03 0.  0.
         25    1    3    3    0    0  0.84481724372E+02  0.31695228148E+02 -0.65934360882E+03  0.67714344996E+03  0.12509000000E+03 0.  0.
<mgrwt>
<rscale>  2 0.44047300E+03</rscale>
<asrwt>0</asrwt>
<pdfrwt beam="1">  1       21 0.45092839E-02 0.44047300E+03</pdfrwt>
<pdfrwt beam="2">  1       21 0.23262329E+00 0.44047300E+03</pdfrwt>
<totfact> 0.23712958E+04</totfact>
</mgrwt>
</event>
<event>
 7    0  0.4707675E-002  0.4565711E+03  0.7546771E-02  0.1025780E+00
         21   -1    0    0  502  501  0.00000000000E+00  0.00000000000E+00  0.60472916122E+03  0.60472916122E+03  0.00000000000E+00 0.  1.
         21   -1    0    0  501  502 -0.00000000000E+00 -0.00000000000E+00 -0.86177902480E+02  0.86177902480E+02  0.00000000000E+00 0.  1.
      99926    2    1    2    0    0 -0.14210854715E-13  0.00000000000E+00  0.51855125874E+03  0.69090706370E+03  0.45657109274E+03 0.  0.
      99925    2    3    3    0    0  0.76345747534E+02 -0.82053225529E+02  0.28970816067E+03  0.40704428590E+03  0.26304529522E+03 0.  0.
         25    1    4    4    0    0  0.63170002300E+00 -0.56312672107E+02  0.14808648936E+03  0.20186290525E+03  0.12509000000E+03 0.  0.
         25    1    3    3    0    0 -0.76345747534E+02  0.82053225529E+02  0.22884309807E+03  0.28386277780E+03  0.12509000000E+03 0.  0.
         25    1    4    4    0    0  0.75714047511E+02 -0.25740553421E+02  0.14162167131E+03  0.20518138065E+03  0.12509000000E+03 0.  0.
<mgrwt>
<rscale>  2 0.45657109E+03</rscale>
<asrwt>0</asrwt>
<pdfrwt beam="1">  1       21 0.88930757E-01 0.45657109E+03</pdfrwt>
<pdfrwt beam="2">  1       21 0.12673221E-01 0.45657109E+03</pdfrwt>
<totfact> 0.52744180E+04</totfact>
</mgrwt>
</event>
<event>
 7    0  0.4707675E-002  0.4392808E+03  0.7546771E-02  0.1030968E+00
         21   -1    0    0  502  501  0.00000000000E+00  0.00000000000E+00  0.23434968057E+03  0.23434968057E+03  0.00000000000E+00 0.  1.
         21   -1    0    0  501  502 -0.00000000000E+00 -0.00000000000E+00 -0.20585436253E+03  0.20585436253E+03  0.00000000000E+00 0.  1.
      99926    2    1    2    0    0  0.00000000000E+00  0.71054273576E-14  0.28495318040E+02  0.44020404310E+03  0.43928079449E+03 0.  0.
      99925    2    3    3    0    0  0.84353303107E+02  0.38002433511E+02  0.49448498209E+02  0.28321293330E+03  0.26306795114E+03 0.  0.
         25    1    4    4    0    0  0.32002159105E+02  0.41186619081E+02  0.57748460670E+02  0.14731893493E+03  0.12509000000E+03 0.  0.
         25    1    4    4    0    0  0.52351144002E+02 -0.31841855695E+01 -0.82999624614E+01  0.13589399837E+03  0.12509000000E+03 0.  0.
         25    1    3    3    0    0 -0.84353303107E+02 -0.38002433511E+02 -0.20953180168E+02  0.15699110980E+03  0.12509000000E+03 0.  0.
<mgrwt>
<rscale>  2 0.43928079E+03</rscale>
<asrwt>0</asrwt>
<pdfrwt beam="1">  1       21 0.34463189E-01 0.43928079E+03</pdfrwt>
<pdfrwt beam="2">  1       21 0.30272700E-01 0.43928079E+03</pdfrwt>
<totfact> 0.79109684E+04</totfact>
</mgrwt>
</event>
<event>
 7    0  0.4707675E-002  0.4553596E+03  0.7546771E-02  0.1026136E+00
         21   -1    0    0  502  501  0.00000000000E+00  0.00000000000E+00  0.65982027633E+03  0.65982027633E+03  0.00000000000E+00 0.  1.
         21   -1    0    0  501  502 -0.00000000000E+00 -0.00000000000E+00 -0.78563951235E+02  0.78563951235E+02  0.00000000000E+00 0.  1.
      99926    2    1    2    0    0 -0.35527136788E-14  0.14210854715E-13  0.58125632509E+03  0.73838422756E+03  0.45535958544E+03 0.  0.
      99925    2    3    3    0    0  0.16544531152E+02 -0.10158492547E+03  0.28833644230E+03  0.40365630159E+03  0.26307277939E+03 0.  0.
         25    1    4    4    0    0  0.20015156646E+02 -0.11506233377E+02  0.11273859633E+03  0.16997205390E+03  0.12509000000E+03 0.  0.
         25    1    4    4    0    0 -0.34706254937E+01 -0.90078692092E+02  0.17559784597E+03  0.23368424769E+03  0.12509000000E+03 0.  0.
         25    1    3    3    0    0 -0.16544531152E+02  0.10158492547E+03  0.29291988279E+03  0.33472792597E+03  0.12509000000E+03 0.  0.
<mgrwt>
<rscale>  2 0.45535959E+03</rscale>
<asrwt>0</asrwt>
<pdfrwt beam="1">  1       21 0.97032391E-01 0.45535959E+03</pdfrwt>
<pdfrwt beam="2">  1       21 0.11553523E-01 0.45535959E+03</pdfrwt>
<totfact> 0.50724455E+04</totfact>
</mgrwt>
</event>
<event>
 7    0  0.4707675E-002  0.4563336E+03  0.7546771E-02  0.1025850E+00
         21   -1    0    0  502  501  0.00000000000E+00  0.00000000000E+00  0.47044326288E+02  0.47044326288E+02  0.00000000000E+00 0. -1.
         21   -1    0    0  501  502 -0.00000000000E+00 -0.00000000000E+00 -0.11066176953E+04  0.11066176953E+04  0.00000000000E+00 0. -1.
      99926    2    1    2    0    0 -0.88817841970E-15  0.00000000000E+00 -0.10595733691E+04  0.11536620216E+04  0.45633357946E+03 0.  0.
      99925    2    3    3    0    0 -0.79300247845E+01 -0.75093780674E+02 -0.88301404681E+03  0.92448378628E+03  0.26316250309E+03 0.  0.
         25    1    4    4    0    0 -0.30928752448E+02 -0.36671980647E+02 -0.54670313282E+03  0.56287942353E+03  0.12509000000E+03 0.  0.
         25    1    4    4    0    0  0.22998727663E+02 -0.38421800027E+02 -0.33631091399E+03  0.36160436275E+03  0.12509000000E+03 0.  0.
         25    1    3    3    0    0  0.79300247845E+01  0.75093780674E+02 -0.17655932224E+03  0.22917823536E+03  0.12509000000E+03 0.  0.
<mgrwt>
<rscale>  2 0.45633358E+03</rscale>
<asrwt>0</asrwt>
<pdfrwt beam="1">  1       21 0.69182826E-02 0.45633358E+03</pdfrwt>
<pdfrwt beam="2">  1       21 0.16273791E+00 0.45633358E+03</pdfrwt>
<totfact> 0.33312757E+04</totfact>
</mgrwt>
</event>
<event>
 7    0  0.4707675E-002  0.4577546E+03  0.7546771E-02  0.1025434E+00
         21   -1    0    0  502  501  0.00000000000E+00  0.00000000000E+00  0.35903466802E+03  0.35903466802E+03  0.00000000000E+00 0.  1.
         21   -1    0    0  501  502 -0.00000000000E+00 -0.00000000000E+00 -0.14590461232E+03  0.14590461232E+03  0.00000000000E+00 0.  1.
      99926    2    1    2    0    0 -0.35527136788E-14  0.26645352591E-14  0.21313005570E+03  0.50493928034E+03  0.45775458074E+03 0.  0.
      99925    2    3    3    0    0 -0.85692724465E+01  0.59386590196E+01  0.65196970338E+01  0.26318724103E+03  0.26289982368E+03 0.  0.
         25    1    3    3    0    0  0.85692724465E+01 -0.59386590196E+01  0.20661035867E+03  0.24175203931E+03  0.12509000000E+03 0.  0.
         25    1    4    4    0    0 -0.36682308685E+02  0.23293379975E+02  0.16385223089E+02  0.13343221859E+03  0.12509000000E+03 0.  0.
         25    1    4    4    0    0  0.28113036239E+02 -0.17354720955E+02 -0.98655260550E+01  0.12975502245E+03  0.12509000000E+03 0.  0.
<mgrwt>
<rscale>  2 0.45775458E+03</rscale>
<asrwt>0</asrwt>
<pdfrwt beam="1">  1       21 0.52799216E-01 0.45775458E+03</pdfrwt>
<pdfrwt beam="2">  1       21 0.21456561E-01 0.45775458E+03</pdfrwt>
<totfact> 0.63524688E+04</totfact>
</mgrwt>
</event>
<event>
 7    0  0.4707675E-002  0.4561244E+03  0.7546771E-02  0.1025911E+00
         21   -1    0    0  502  501  0.00000000000E+00  0.00000000000E+00  0.18936688962E+03  0.18936688962E+03  0.00000000000E+00 0.  1.
         21   -1    0    0  501  502 -0.00000000000E+00 -0.00000000000E+00 -0.27466451443E+03  0.27466451443E+03  0.00000000000E+00 0.  1.
      99926    2    1    2    0    0  0.00000000000E+00  0.00000000000E+00 -0.85297624814E+02  0.46403140405E+03  0.45612438999E+03 0.  0.
      99925    2    3    3    0    0  0.82239085844E+01 -0.40271085403E+02  0.54776485092E+02  0.27178765940E+03  0.26301839383E+03 0.  0.
         25    1    4    4    0    0 -0.11491807837E+02  0.12319043039E+02  0.46166485662E+02  0.13439744405E+03  0.12509000000E+03 0.  0.
         25    1    3    3    0    0 -0.82239085844E+01  0.40271085403E+02 -0.14007410991E+03  0.19224374465E+03  0.12509000000E+03 0.  0.
         25    1    4    4    0    0  0.19715716421E+02 -0.52590128442E+02  0.86099994298E+01  0.13739021535E+03  0.12509000000E+03 0.  0.
<mgrwt>
<rscale>  2 0.45612439E+03</rscale>
<asrwt>0</asrwt>
<pdfrwt beam="1">  1       21 0.27848072E-01 0.45612439E+03</pdfrwt>
<pdfrwt beam="2">  1       21 0.40391840E-01 0.45612439E+03</pdfrwt>
<totfact> 0.67278760E+04</totfact>
</mgrwt>
</event>
<event>
 7    0  0.4707675E-002  0.4369385E+03  0.7546771E-02  0.1031690E+00
         21   -1    0    0  502  501  0.00000000000E+00  0.00000000000E+00  0.58186588650E+03  0.58186588650E+03  0.00000000000E+00 0.  1.
         21   -1    0    0  501  502 -0.00000000000E+00 -0.00000000000E+00 -0.82027187397E+02  0.82027187397E+02  0.00000000000E+00 0.  1.
      99926    2    1    2    0    0  0.00000000000E+00  0.17763568394E-14  0.49983869910E+03  0.66389307390E+03  0.43693854081E+03 0.  0.
      99925    2    3    3    0    0  0.79767728461E+02 -0.76481971060E+01  0.39812219836E+03  0.48385102313E+03  0.26303829061E+03 0.  0.
         25    1    3    3    0    0 -0.79767728461E+02  0.76481971060E+01  0.10171650074E+03  0.18004205077E+03  0.12509000000E+03 0.  0.
         25    1    4    4    0    0  0.52919986990E+02  0.18265117196E+02  0.14794877051E+03  0.20166924982E+03  0.12509000000E+03 0.  0.
         25    1    4    4    0    0  0.26847741471E+02 -0.25913314302E+02  0.25017342785E+03  0.28218177330E+03  0.12509000000E+03 0.  0.
<mgrwt>
<rscale>  2 0.43693854E+03</rscale>
<asrwt>0</asrwt>
<pdfrwt beam="1">  1       21 0.85568511E-01 0.43693854E+03</pdfrwt>
<pdfrwt beam="2">  1       21 0.12062822E-01 0.43693854E+03</pdfrwt>
<totfact> 0.63468652E+04</totfact>
</mgrwt>
</event>
<event>
 7    0  0.4707675E-002  0.4482535E+03  0.7546771E-02  0.1028244E+00
         21   -1    0    0  502  501  0.00000000000E+00  0.00000000000E+00  0.19730920901E+03  0.19730920901E+03  0.00000000000E+00 0. -1.
         21   -1    0    0  501  502 -0.00000000000E+00 -0.00000000000E+00 -0.25458927448E+03  0.25458927448E+03  0.00000000000E+00 0. -1.
      99926    2    1    2    0    0  0.00000000000E+00  0.00000000000E+00 -0.57280065464E+02  0.45189848349E+03  0.44825353705E+03 0.  0.
      99925    2    3    3    0    0 -0.17436138116E+02 -0.23203856764E+02 -0.13981898404E+03  0.29924652949E+03  0.26297661347E+03 0.  0.
         25    1    4    4    0    0  0.15499425520E+02 -0.18049232024E+02 -0.10539336424E+03  0.16529148887E+03  0.12509000000E+03 0.  0.
         25    1    3    3    0    0  0.17436138116E+02  0.23203856764E+02  0.82538918573E+02  0.15265195400E+03  0.12509000000E+03 0.  0.
         25    1    4    4    0    0 -0.32935563636E+02 -0.51546247401E+01 -0.34425619802E+02  0.13395504062E+03  0.12509000000E+03 0.  0.
<mgrwt>
<rscale>  2 0.44825354E+03</rscale>
<asrwt>0</asrwt>
<pdfrwt beam="1">  1       21 0.29016060E-01 0.44825354E+03</pdfrwt>
<pdfrwt beam="2">  1       21 0.37439599E-01 0.44825354E+03</pdfrwt>
<totfact> 0.72603323E+04</totfact>
</mgrwt>
</event>
<event>
 7    0  0.4707675E-002  0.4430328E+03  0.7546771E-02  0.1029820E+00
         21   -1    0    0  502  501  0.00000000000E+00  0.00000000000E+00  0.30084158776E+03  0.30084158776E+03  0.00000000000E+00 0.  1.
         21   -1    0    0  501  502 -0.00000000000E+00 -0.00000000000E+00 -0.16310752004E+03  0.16310752004E+03  0.00000000000E+00 0.  1.
      99926    2    1    2    0    0  0.00000000000E+00 -0.71054273576E-14  0.13773406772E+03  0.46394910779E+03  0.44303284440E+03 0.  0.
      99925    2    3    3    0    0  0.91094673260E+02  0.44544801104E+02  0.92174257986E+02  0.29660012165E+03  0.26304573656E+03 0.  0.
         25    1    3    3    0    0 -0.91094673260E+02 -0.44544801104E+02  0.45559809731E+02  0.16734898615E+03  0.12509000000E+03 0.  0.
         25    1    4    4    0    0  0.46790283481E+02  0.46872448534E+02  0.13196203723E+02  0.14215486257E+03  0.12509000000E+03 0.  0.
         25    1    4    4    0    0  0.44304389779E+02 -0.23276474301E+01  0.78978054263E+02  0.15444525908E+03  0.12509000000E+03 0.  0.
<mgrwt>
<rscale>  2 0.44303284E+03</rscale>
<asrwt>0</asrwt>
<pdfrwt beam="1">  1       21 0.44241410E-01 0.44303284E+03</pdfrwt>
<pdfrwt beam="2">  1       21 0.23986400E-01 0.44303284E+03</pdfrwt>
<totfact> 0.74736342E+04</totfact>
</mgrwt>
</event>
<event>
 7    0  0.4707675E-002  0.4541586E+03  0.7546771E-02  0.1026489E+00
         21   -1    0    0  502  501  0.00000000000E+00  0.00000000000E+00  0.47822294841E+03  0.47822294841E+03  0.00000000000E+00 0.  1.
         21   -1    0    0  501  502 -0.00000000000E+00 -0.00000000000E+00 -0.10782628304E+03  0.10782628304E+03  0.00000000000E+00 0.  1.
      99926    2    1    2    0    0  0.00000000000E+00  0.00000000000E+00  0.37039666536E+03  0.58604923145E+03  0.45415857580E+03 0.  0.
      99925    2    3    3    0    0 -0.85355664981E+02 -0.59543468638E+02  0.17853808979E+03  0.33447770022E+03  0.26299898905E+03 0.  0.
         25    1    4    4    0    0 -0.47168268892E+02 -0.42778188471E+02  0.13722420138E+03  0.19629775481E+03  0.12509000000E+03 0.  0.
         25    1    4    4    0    0 -0.38187396090E+02 -0.16765280167E+02  0.41313888405E+02  0.13817994541E+03  0.12509000000E+03 0.  0.
         25    1    3    3    0    0  0.85355664981E+02  0.59543468638E+02  0.19185857558E+03  0.25157153123E+03  0.12509000000E+03 0.  0.
<mgrwt>
<rscale>  2 0.45415858E+03</rscale>
<asrwt>0</asrwt>
<pdfrwt beam="1">  1       21 0.70326903E-01 0.45415858E+03</pdfrwt>
<pdfrwt beam="2">  1       21 0.15856807E-01 0.45415858E+03</pdfrwt>
<totfact> 0.59942977E+04</totfact>
</mgrwt>
</event>
<event>
 7    0  0.4707675E-002  0.4602716E+03  0.7546771E-02  0.1024702E+00
         21   -1    0    0  502  501  0.00000000000E+00  0.00000000000E+00  0.15513583529E+04  0.15513583529E+04  0.00000000000E+00 0.  1.
         21   -1    0    0  501  502 -0.00000000000E+00 -0.00000000000E+00 -0.34139421617E+02  0.34139421617E+02  0.00000000000E+00 0.  1.
      99926    2    1    2    0    0  0.00000000000E+00  0.00000000000E+00  0.15172189313E+04  0.15854977745E+04  0.46027155849E+03 0.  0.
      99925    2    3    3    0    0 -0.80499431641E+02  0.61385342231E+02  0.11593528383E+04  0.11931153497E+04  0.26301504742E+03 0.  0.
         25    1    4    4    0    0 -0.27597295127E+02  0.25625708830E+02  0.72331364592E+03  0.73501593596E+03  0.12509000000E+03 0.  0.
         25    1    4    4    0    0 -0.52902136514E+02  0.35759633401E+02  0.43603919240E+03  0.45809941371E+03  0.12509000000E+03 0.  0.
         25    1    3    3    0    0  0.80499431641E+02 -0.61385342231E+02  0.35786609298E+03  0.39238242487E+03  0.12509000000E+03 0.  0.
<mgrwt>
<rscale>  2 0.46027156E+03</rscale>
<asrwt>0</asrwt>
<pdfrwt beam="1">  1       21 0.22814089E+00 0.46027156E+03</pdfrwt>
<pdfrwt beam="2">  1       21 0.50205042E-02 0.46027156E+03</pdfrwt>
<totfact> 0.20890873E+04</totfact>
</mgrwt>
</event>
<event>
 7    0  0.4707675E-002  0.4558212E+03  0.7546771E-02  0.1026000E+00
         21   -1    0    0  502  501  0.00000000000E+00  0.00000000000E+00  0.11661864124E+03  0.11661864124E+03  0.00000000000E+00 0.  1.
         21   -1    0    0  501  502 -0.00000000000E+00 -0.00000000000E+00 -0.44541109023E+03  0.44541109023E+03  0.00000000000E+00 0.  1.
      99926    2    1    2    0    0  0.00000000000E+00  0.00000000000E+00 -0.32879244899E+03  0.56202973147E+03  0.45582117606E+03 0.  0.
      99925    2    3    3    0    0 -0.12162080018E+02 -0.11257094721E+03 -0.19009981595E+03  0.34361890549E+03  0.26289898790E+03 0.  0.
         25    1    4    4    0    0 -0.30438277460E+02 -0.51101242213E+02 -0.13257746523E+03  0.19173449893E+03  0.12509000000E+03 0.  0.
         25    1    3    3    0    0  0.12162080018E+02  0.11257094721E+03 -0.13869263304E+03  0.21841082598E+03  0.12509000000E+03 0.  0.
         25    1    4    4    0    0  0.18276197442E+02 -0.61469704996E+02 -0.57522350717E+02  0.15188440656E+03  0.12509000000E+03 0.  0.
<mgrwt>
<rscale>  2 0.45582118E+03</rscale>
<asrwt>0</asrwt>
<pdfrwt beam="1">  1       21 0.17149800E-01 0.45582118E+03</pdfrwt>
<pdfrwt beam="2">  1       21 0.65501632E-01 0.45582118E+03</pdfrwt>
<totfact> 0.60683403E+04</totfact>
</mgrwt>
</event>
<event>
 7    0  0.4707675E-002  0.4658499E+03  0.7546771E-02  0.1023098E+00
         21   -1    0    0  502  501  0.00000000000E+00  0.00000000000E+00  0.21646365204E+03  0.21646365204E+03  0.00000000000E+00 0.  1.
         21   -1    0    0  501  502 -0.00000000000E+00 -0.00000000000E+00 -0.25063806873E+03  0.25063806873E+03  0.00000000000E+00 0.  1.
      99926    2    1    2    0    0  0.00000000000E+00  0.14210854715E-13 -0.34174416692E+02  0.46710172077E+03  0.46584989728E+03 0.  0.
      99925    2    3    3    0    0  0.10515920209E+02 -0.12243192800E+03 -0.28294621351E+02  0.29165303407E+03  0.26298430583E+03 0.  0.
         25    1    3    3    0    0 -0.10515920209E+02  0.12243192800E+03 -0.58797953411E+01  0.17544868670E+03  0.12509000000E+03 0.  0.
         25    1    4    4    0    0 -0.41324594032E+00 -0.80996924365E+02 -0.50963636074E+02  0.15749753278E+03  0.12509000000E+03 0.  0.
         25    1    4    4    0    0  0.10929166149E+02 -0.41435003637E+02  0.22669014722E+02  0.13415550129E+03  0.12509000000E+03 0.  0.
<mgrwt>
<rscale>  2 0.46584990E+03</rscale>
<asrwt>0</asrwt>
<pdfrwt beam="1">  1       21 0.31832890E-01 0.46584990E+03</pdfrwt>
<pdfrwt beam="2">  1       21 0.36858540E-01 0.46584990E+03</pdfrwt>
<totfact> 0.62114365E+04</totfact>
</mgrwt>
</event>
<event>
 7    0  0.4707675E-002  0.4670340E+03  0.7546771E-02  0.1022761E+00
         21   -1    0    0  502  501  0.00000000000E+00  0.00000000000E+00  0.16318771993E+03  0.16318771993E+03  0.00000000000E+00 0. -1.
         21   -1    0    0  501  502 -0.00000000000E+00 -0.00000000000E+00 -0.33415618668E+03  0.33415618668E+03  0.00000000000E+00 0. -1.
      99926    2    1    2    0    0  0.00000000000E+00  0.00000000000E+00 -0.17096846675E+03  0.49734390662E+03  0.46703398680E+03 0.  0.
      99925    2    3    3    0    0 -0.67685821999E+02  0.75281409697E+02 -0.18221947862E+03  0.33602820833E+03  0.26355712334E+03 0.  0.
         25    1    4    4    0    0  0.74756632202E+01  0.42333812807E+02 -0.95025454413E+02  0.16286614852E+03  0.12509000000E+03 0.  0.
         25    1    3    3    0    0  0.67685821999E+02 -0.75281409697E+02  0.11251011866E+02  0.16131569829E+03  0.12509000000E+03 0.  0.
         25    1    4    4    0    0 -0.75161485219E+02  0.32947596890E+02 -0.87194024204E+02  0.17316205981E+03  0.12509000000E+03 0.  0.
<mgrwt>
<rscale>  2 0.46703399E+03</rscale>
<asrwt>0</asrwt>
<pdfrwt beam="1">  1       21 0.23998194E-01 0.46703399E+03</pdfrwt>
<pdfrwt beam="2">  1       21 0.49140616E-01 0.46703399E+03</pdfrwt>
<totfact> 0.59561014E+04</totfact>
</mgrwt>
</event>
<event>
 7    0  0.4707675E-002  0.4338129E+03  0.7546771E-02  0.1032662E+00
         21   -1    0    0  502  501  0.00000000000E+00  0.00000000000E+00  0.48167091844E+03  0.48167091844E+03  0.00000000000E+00 0.  1.
         21   -1    0    0  501  502 -0.00000000000E+00 -0.00000000000E+00 -0.97677488092E+02  0.97677488092E+02  0.00000000000E+00 0.  1.
      99926    2    1    2    0    0  0.00000000000E+00  0.00000000000E+00  0.38399343034E+03  0.57934840653E+03  0.43381288777E+03 0.  0.
      99925    2    3    3    0    0  0.49364280482E+02 -0.38359300591E+02  0.15584397148E+03  0.31175178508E+03  0.26266625959E+03 0.  0.
         25    1    4    4    0    0  0.47639746584E+02 -0.32989611862E+02  0.11651852125E+03  0.18050466431E+03  0.12509000000E+03 0.  0.
         25    1    4    4    0    0  0.17245338978E+01 -0.53696887291E+01  0.39325450235E+02  0.13124712077E+03  0.12509000000E+03 0.  0.
         25    1    3    3    0    0 -0.49364280482E+02  0.38359300591E+02  0.22814945886E+03  0.26759662144E+03  0.12509000000E+03 0.  0.
<mgrwt>
<rscale>  2 0.43381289E+03</rscale>
<asrwt>0</asrwt>
<pdfrwt beam="1">  1       21 0.70833958E-01 0.43381289E+03</pdfrwt>
<pdfrwt beam="2">  1       21 0.14364337E-01 0.43381289E+03</pdfrwt>
<totfact> 0.71157977E+04</totfact>
</mgrwt>
</event>
<event>
 7    0  0.4707675E-002  0.4530210E+03  0.7546771E-02  0.1026825E+00
         21   -1    0    0  502  501  0.00000000000E+00  0.00000000000E+00  0.35081734273E+03  0.35081734273E+03  0.00000000000E+00 0.  1.
         21   -1    0    0  501  502 -0.00000000000E+00 -0.00000000000E+00 -0.14624992024E+03  0.14624992024E+03  0.00000000000E+00 0.  1.
      99926    2    1    2    0    0  0.00000000000E+00  0.00000000000E+00  0.20456742249E+03  0.49706726297E+03  0.45302100788E+03 0.  0.
      99925    2    3    3    0    0 -0.77687665741E+02  0.33642601973E+02  0.49645630648E+02  0.28069843952E+03  0.26298237057E+03 0.  0.
         25    1    3    3    0    0  0.77687665741E+02 -0.33642601973E+02  0.15492179184E+03  0.21636882345E+03  0.12509000000E+03 0.  0.
         25    1    4    4    0    0 -0.41689445001E+02  0.29191323828E+02 -0.13937111635E+02  0.13576411305E+03  0.12509000000E+03 0.  0.
         25    1    4    4    0    0 -0.35998220741E+02  0.44512781450E+01  0.63582742283E+02  0.14493432647E+03  0.12509000000E+03 0.  0.
<mgrwt>
<rscale>  2 0.45302101E+03</rscale>
<asrwt>0</asrwt>
<pdfrwt beam="1">  1       21 0.51590786E-01 0.45302101E+03</pdfrwt>
<pdfrwt beam="2">  1       21 0.21507341E-01 0.45302101E+03</pdfrwt>
<totfact> 0.66516011E+04</totfact>
</mgrwt>
</event>
<event>
 7    0  0.4707675E-002  0.4518696E+03  0.7546771E-02  0.1027166E+00
         21   -1    0    0  502  501  0.00000000000E+00  0.00000000000E+00  0.20684162696E+03  0.20684162696E+03  0.00000000000E+00 0. -1.
         21   -1    0    0  501  502 -0.00000000000E+00 -0.00000000000E+00 -0.24679039994E+03  0.24679039994E+03  0.00000000000E+00 0. -1.
      99926    2    1    2    0    0  0.14210854715E-13 -0.35527136788E-14 -0.39948772986E+02  0.45363202690E+03  0.45186957340E+03 0.  0.
      99925    2    3    3    0    0 -0.10492904891E+03  0.30070107022E+02 -0.98455872045E+01  0.28490732054E+03  0.26298465558E+03 0.  0.
         25    1    4    4    0    0 -0.70275519355E+02  0.32088197615E+02  0.28044082640E+02  0.14967391128E+03  0.12509000000E+03 0.  0.
         25    1    3    3    0    0  0.10492904891E+03 -0.30070107022E+02 -0.30103185782E+02  0.16872470636E+03  0.12509000000E+03 0.  0.
         25    1    4    4    0    0 -0.34653529556E+02 -0.20180905931E+01 -0.37889669844E+02  0.13523340926E+03  0.12509000000E+03 0.  0.
<mgrwt>
<rscale>  2 0.45186957E+03</rscale>
<asrwt>0</asrwt>
<pdfrwt beam="1">  1       21 0.30417886E-01 0.45186957E+03</pdfrwt>
<pdfrwt beam="2">  1       21 0.36292706E-01 0.45186957E+03</pdfrwt>
<totfact> 0.70387832E+04</totfact>
</mgrwt>
</event>
<event>
 7    0  0.4707675E-002  0.4532675E+03  0.7546771E-02  0.1026752E+00
         21   -1    0    0  502  501  0.00000000000E+00  0.00000000000E+00  0.17953065620E+03  0.17953065620E+03  0.00000000000E+00 0.  1.
         21   -1    0    0  501  502 -0.00000000000E+00 -0.00000000000E+00 -0.28609520675E+03  0.28609520675E+03  0.00000000000E+00 0.  1.
      99926    2    1    2    0    0  0.00000000000E+00  0.00000000000E+00 -0.10656455054E+03  0.46562586295E+03  0.45326751572E+03 0.  0.
      99925    2    3    3    0    0  0.56569173096E+02 -0.69899179494E+02 -0.13496200580E+03  0.30897373177E+03  0.26299060301E+03 0.  0.
         25    1    4    4    0    0  0.92437736136E+01 -0.60697663348E+02 -0.40957555335E+02  0.14524008787E+03  0.12509000000E+03 0.  0.
         25    1    4    4    0    0  0.47325399483E+02 -0.92015161462E+01 -0.94004450460E+02  0.16373364389E+03  0.12509000000E+03 0.  0.
         25    1    3    3    0    0 -0.56569173096E+02  0.69899179494E+02  0.28397455251E+02  0.15665213118E+03  0.12509000000E+03 0.  0.
<mgrwt>
<rscale>  2 0.45326752E+03</rscale>
<asrwt>0</asrwt>
<pdfrwt beam="1">  1       21 0.26401567E-01 0.45326752E+03</pdfrwt>
<pdfrwt beam="2">  1       21 0.42072825E-01 0.45326752E+03</pdfrwt>
<totfact> 0.68701939E+04</totfact>
</mgrwt>
</event>
<event>
 7    0  0.4707675E-002  0.4426220E+03  0.7546771E-02  0.1029945E+00
         21   -1    0    0  502  501  0.00000000000E+00  0.00000000000E+00  0.23919005278E+03  0.23919005278E+03  0.00000000000E+00 0.  1.
         21   -1    0    0  501  502 -0.00000000000E+00 -0.00000000000E+00 -0.20476837410E+03  0.20476837410E+03  0.00000000000E+00 0.  1.
      99926    2    1    2    0    0 -0.71054273576E-14  0.00000000000E+00  0.34421678682E+02  0.44395842687E+03  0.44262199768E+03 0.  0.
      99925    2    3    3    0    0 -0.60612563227E+02  0.60741835268E+02  0.76026365209E+02  0.28666280896E+03  0.26273961342E+03 0.  0.
         25    1    3    3    0    0  0.60612563227E+02 -0.60741835268E+02 -0.41604686527E+02  0.15729561791E+03  0.12509000000E+03 0.  0.
         25    1    4    4    0    0 -0.47808600973E+02 -0.13530993389E+01  0.55340950908E+02  0.14490556288E+03  0.12509000000E+03 0.  0.
         25    1    4    4    0    0 -0.12803962254E+02  0.62094934607E+02  0.20685414301E+02  0.14175724609E+03  0.12509000000E+03 0.  0.
<mgrwt>
<rscale>  2 0.44262200E+03</rscale>
<asrwt>0</asrwt>
<pdfrwt beam="1">  1       21 0.35175008E-01 0.44262200E+03</pdfrwt>
<pdfrwt beam="2">  1       21 0.30112996E-01 0.44262200E+03</pdfrwt>
<totfact> 0.76658036E+04</totfact>
</mgrwt>
</event>
<event>
 7    0  0.4707675E-002  0.4584845E+03  0.7546771E-02  0.1025222E+00
         21   -1    0    0  502  501  0.00000000000E+00  0.00000000000E+00  0.57014036165E+03  0.57014036165E+03  0.00000000000E+00 0. -1.
         21   -1    0    0  501  502 -0.00000000000E+00 -0.00000000000E+00 -0.92173824433E+02  0.92173824433E+02  0.00000000000E+00 0. -1.
      99926    2    1    2    0    0  0.00000000000E+00  0.00000000000E+00  0.47796653722E+03  0.66231418609E+03  0.45848453670E+03 0.  0.
      99925    2    3    3    0    0 -0.37776532974E+02 -0.25696312365E+02  0.45448964990E+03  0.52708830376E+03  0.26300926064E+03 0.  0.
         25    1    4    4    0    0 -0.57921312862E+02 -0.43652065114E+01  0.21843764493E+03  0.25833398215E+03  0.12509000000E+03 0.  0.
         25    1    3    3    0    0  0.37776532974E+02  0.25696312365E+02  0.23476887322E+02  0.13522588233E+03  0.12509000000E+03 0.  0.
         25    1    4    4    0    0  0.20144779888E+02 -0.21331105854E+02  0.23605200496E+03  0.26875432161E+03  0.12509000000E+03 0.  0.
<mgrwt>
<rscale>  2 0.45848454E+03</rscale>
<asrwt>0</asrwt>
<pdfrwt beam="1">  1       21 0.83844169E-01 0.45848454E+03</pdfrwt>
<pdfrwt beam="2">  1       21 0.13554974E-01 0.45848454E+03</pdfrwt>
<totfact> 0.53511398E+04</totfact>
</mgrwt>
</event>
<event>
 7    0  0.4707675E-002  0.4510903E+03  0.7546771E-02  0.1027397E+00
         21   -1    0    0  502  501  0.00000000000E+00  0.00000000000E+00  0.79350075583E+02  0.79350075583E+02  0.00000000000E+00 0. -1.
         21   -1    0    0  501  502 -0.00000000000E+00 -0.00000000000E+00 -0.64109106231E+03  0.64109106231E+03  0.00000000000E+00 0. -1.
      99926    2    1    2    0    0  0.00000000000E+00  0.44408920985E-15 -0.56174098673E+03  0.72044113790E+03  0.45109034239E+03 0.  0.
      99925    2    3    3    0    0 -0.10375112287E+03 -0.29147642981E+01 -0.30016921338E+03  0.41247995193E+03  0.26318313536E+03 0.  0.
         25    1    4    4    0    0 -0.28723568073E+02  0.14008423494E+02 -0.95534658608E+02  0.16061026862E+03  0.12509000000E+03 0.  0.
         25    1    3    3    0    0  0.10375112287E+03  0.29147642981E+01 -0.26157177335E+03  0.30796118596E+03  0.12509000000E+03 0.  0.
         25    1    4    4    0    0 -0.75027554795E+02 -0.16923187792E+02 -0.20463455477E+03  0.25186968331E+03  0.12509000000E+03 0.  0.
<mgrwt>
<rscale>  2 0.45109034E+03</rscale>
<asrwt>0</asrwt>
<pdfrwt beam="1">  1       21 0.11669129E-01 0.45109034E+03</pdfrwt>
<pdfrwt beam="2">  1       21 0.94278094E-01 0.45109034E+03</pdfrwt>
<totfact> 0.53431408E+04</totfact>
</mgrwt>
</event>
<event>
 7    0  0.4707675E-002  0.4519015E+03  0.7546771E-02  0.1027157E+00
         21   -1    0    0  502  501  0.00000000000E+00  0.00000000000E+00  0.48088336470E+03  0.48088336470E+03  0.00000000000E+00 0.  1.
         21   -1    0    0  501  502 -0.00000000000E+00 -0.00000000000E+00 -0.10616657450E+03  0.10616657450E+03  0.00000000000E+00 0.  1.
      99926    2    1    2    0    0  0.00000000000E+00  0.00000000000E+00  0.37471679020E+03  0.58704993920E+03  0.45190149176E+03 0.  0.
      99925    2    3    3    0    0  0.65273157853E+02 -0.92206324058E+01  0.12182250108E+03  0.29731103126E+03  0.26307322620E+03 0.  0.
         25    1    4    4    0    0  0.63095234580E+02 -0.14551650393E+02  0.35630321166E+02  0.14529207495E+03  0.12509000000E+03 0.  0.
         25    1    4    4    0    0  0.21779232730E+01  0.53310179867E+01  0.86192179910E+02  0.15201895632E+03  0.12509000000E+03 0.  0.
         25    1    3    3    0    0 -0.65273157853E+02  0.92206324058E+01  0.25289428913E+03  0.28973890793E+03  0.12509000000E+03 0.  0.
<mgrwt>
<rscale>  2 0.45190149E+03</rscale>
<asrwt>0</asrwt>
<pdfrwt beam="1">  1       21 0.70718141E-01 0.45190149E+03</pdfrwt>
<pdfrwt beam="2">  1       21 0.15612732E-01 0.45190149E+03</pdfrwt>
<totfact> 0.60961887E+04</totfact>
</mgrwt>
</event>
<event>
 7    0  0.4707675E-002  0.4526826E+03  0.7546771E-02  0.1026925E+00
         21   -1    0    0  502  501  0.00000000000E+00  0.00000000000E+00  0.35992983445E+03  0.35992983445E+03  0.00000000000E+00 0.  1.
         21   -1    0    0  501  502 -0.00000000000E+00 -0.00000000000E+00 -0.14233437253E+03  0.14233437253E+03  0.00000000000E+00 0.  1.
      99926    2    1    2    0    0  0.00000000000E+00  0.71054273576E-14  0.21759546192E+03  0.50226420698E+03  0.45268261350E+03 0.  0.
      99925    2    3    3    0    0 -0.89450445932E+02 -0.63202004343E+02  0.15636580142E+03  0.32508504609E+03  0.26312382580E+03 0.  0.
         25    1    3    3    0    0  0.89450445932E+02  0.63202004343E+02  0.61229660499E+02  0.17717916089E+03  0.12509000000E+03 0.  0.
         25    1    4    4    0    0 -0.44331348943E+02 -0.68683362363E+02  0.61245790091E+02  0.16149683486E+03  0.12509000000E+03 0.  0.
         25    1    4    4    0    0 -0.45119096989E+02  0.54813580198E+01  0.95120011328E+02  0.16358821123E+03  0.12509000000E+03 0.  0.
<mgrwt>
<rscale>  2 0.45268261E+03</rscale>
<asrwt>0</asrwt>
<pdfrwt beam="1">  1       21 0.52930858E-01 0.45268261E+03</pdfrwt>
<pdfrwt beam="2">  1       21 0.20931525E-01 0.45268261E+03</pdfrwt>
<totfact> 0.66323491E+04</totfact>
</mgrwt>
</event>
<event>
 7    0  0.4707675E-002  0.4632375E+03  0.7546771E-02  0.1023846E+00
         21   -1    0    0  502  501  0.00000000000E+00  0.00000000000E+00  0.10558418023E+03  0.10558418023E+03  0.00000000000E+00 0.  1.
         21   -1    0    0  501  502 -0.00000000000E+00 -0.00000000000E+00 -0.50809924931E+03  0.50809924931E+03  0.00000000000E+00 0.  1.
      99926    2    1    2    0    0  0.00000000000E+00  0.00000000000E+00 -0.40251506908E+03  0.61368342954E+03  0.46323748862E+03 0.  0.
      99925    2    3    3    0    0 -0.47286577393E+02  0.87843640873E+02 -0.34156021132E+03  0.44246564884E+03  0.26298278804E+03 0.  0.
         25    1    4    4    0    0 -0.40569940958E+02  0.59597249123E+02 -0.12636833945E+03  0.19187031434E+03  0.12509000000E+03 0.  0.
         25    1    4    4    0    0 -0.67166364353E+01  0.28246391750E+02 -0.21519187187E+03  0.25059533449E+03  0.12509000000E+03 0.  0.
         25    1    3    3    0    0  0.47286577393E+02 -0.87843640873E+02 -0.60954857761E+02  0.17121778070E+03  0.12509000000E+03 0.  0.
<mgrwt>
<rscale>  2 0.46323749E+03</rscale>
<asrwt>0</asrwt>
<pdfrwt beam="1">  1       21 0.15527086E-01 0.46323749E+03</pdfrwt>
<pdfrwt beam="2">  1       21 0.74720476E-01 0.46323749E+03</pdfrwt>
<totfact> 0.54228474E+04</totfact>
</mgrwt>
</event>
<event>
 7    0  0.4707675E-002  0.4507031E+03  0.7546771E-02  0.1027513E+00
         21   -1    0    0  502  501  0.00000000000E+00  0.00000000000E+00  0.71491263878E+02  0.71491263878E+02  0.00000000000E+00 0. -1.
         21   -1    0    0  501  502 -0.00000000000E+00 -0.00000000000E+00 -0.71034294988E+03  0.71034294988E+03  0.00000000000E+00 0. -1.
      99926    2    1    2    0    0  0.00000000000E+00 -0.71054273576E-14 -0.63885168601E+03  0.78183421376E+03  0.45070307420E+03 0.  0.
      99925    2    3    3    0    0  0.95830266076E+02  0.47493918398E+02 -0.43952021822E+03  0.52333923444E+03  0.26318590370E+03 0.  0.
         25    1    4    4    0    0  0.76571557874E+02  0.43836767554E+02 -0.28556126473E+03  0.32400248407E+03  0.12509000000E+03 0.  0.
         25    1    4    4    0    0  0.19258708202E+02  0.36571508439E+01 -0.15395895348E+03  0.19933675038E+03  0.12509000000E+03 0.  0.
         25    1    3    3    0    0 -0.95830266076E+02 -0.47493918398E+02 -0.19933146779E+03  0.25849497932E+03  0.12509000000E+03 0.  0.
<mgrwt>
<rscale>  2 0.45070307E+03</rscale>
<asrwt>0</asrwt>
<pdfrwt beam="1">  1       21 0.10513421E-01 0.45070307E+03</pdfrwt>
<pdfrwt beam="2">  1       21 0.10446220E+00 0.45070307E+03</pdfrwt>
<totfact> 0.50332264E+04</totfact>
</mgrwt>
</event>
<event>
 7    0  0.4707675E-002  0.4504515E+03  0.7546771E-02  0.1027587E+00
         21   -1    0    0  502  501  0.00000000000E+00  0.00000000000E+00  0.46285420333E+03  0.46285420333E+03  0.00000000000E+00 0.  1.
         21   -1    0    0  501  502 -0.00000000000E+00 -0.00000000000E+00 -0.10959529776E+03  0.10959529776E+03  0.00000000000E+00 0.  1.
      99926    2    1    2    0    0  0.00000000000E+00  0.35527136788E-14  0.35325890557E+03  0.57244950110E+03  0.45045152563E+03 0.  0.
      99925    2    3    3    0    0 -0.64648224749E+02 -0.16061679469E+02  0.33264600741E+03  0.42923717558E+03  0.26297113176E+03 0.  0.
         25    1    4    4    0    0  0.15289563021E+00 -0.27411776801E+02  0.13302088538E+03  0.18464423341E+03  0.12509000000E+03 0.  0.
         25    1    3    3    0    0  0.64648224749E+02  0.16061679469E+02  0.20612898159E+02  0.14321232552E+03  0.12509000000E+03 0.  0.
         25    1    4    4    0    0 -0.64801120379E+02  0.11350097332E+02  0.19962512203E+03  0.24459294217E+03  0.12509000000E+03 0.  0.
<mgrwt>
<rscale>  2 0.45045153E+03</rscale>
<asrwt>0</asrwt>
<pdfrwt beam="1">  1       21 0.68066794E-01 0.45045153E+03</pdfrwt>
<pdfrwt beam="2">  1       21 0.16116956E-01 0.45045153E+03</pdfrwt>
<totfact> 0.62629248E+04</totfact>
</mgrwt>
</event>
<event>
 7    0  0.4707675E-002  0.4102499E+03  0.7546771E-02  0.1040287E+00
         21   -1    0    0  502  501  0.00000000000E+00  0.00000000000E+00  0.14649744391E+03  0.14649744391E+03  0.00000000000E+00 0. -1.
         21   -1    0    0  501  502 -0.00000000000E+00 -0.00000000000E+00 -0.28721487137E+03  0.28721487137E+03  0.00000000000E+00 0. -1.
      99926    2    1    2    0    0  0.00000000000E+00  0.71054273576E-14 -0.14071742746E+03  0.43371231527E+03  0.41024989705E+03 0.  0.
      99925    2    3    3    0    0  0.30684528124E+02  0.50085345885E+02 -0.70017841772E+02  0.27848338222E+03  0.26305971541E+03 0.  0.
         25    1    4    4    0    0  0.47093768311E+02  0.42179583830E+02 -0.57361000732E+02  0.15144217646E+03  0.12509000000E+03 0.  0.
         25    1    4    4    0    0 -0.16409240187E+02  0.79057620544E+01 -0.12656841040E+02  0.12704120577E+03  0.12509000000E+03 0.  0.
         25    1    3    3    0    0 -0.30684528124E+02 -0.50085345885E+02 -0.70699585687E+02  0.15522893305E+03  0.12509000000E+03 0.  0.
<mgrwt>
<rscale>  2 0.41024990E+03</rscale>
<asrwt>0</asrwt>
<pdfrwt beam="1">  1       21 0.21543742E-01 0.41024990E+03</pdfrwt>
<pdfrwt beam="2">  1       21 0.42237481E-01 0.41024990E+03</pdfrwt>
<totfact> 0.10187444E+05</totfact>
</mgrwt>
</event>
<event>
 7    0  0.4707675E-002  0.4627838E+03  0.7546771E-02  0.1023977E+00
         21   -1    0    0  502  501  0.00000000000E+00  0.00000000000E+00  0.10533878226E+03  0.10533878226E+03  0.00000000000E+00 0. -1.
         21   -1    0    0  501  502 -0.00000000000E+00 -0.00000000000E+00 -0.50828587830E+03  0.50828587830E+03  0.00000000000E+00 0. -1.
      99926    2    1    2    0    0  0.00000000000E+00  0.00000000000E+00 -0.40294709604E+03  0.61362466057E+03  0.46278381761E+03 0.  0.
      99925    2    3    3    0    0  0.10804372734E+03  0.37207953619E+02 -0.20210723200E+03  0.35086614421E+03  0.26306242433E+03 0.  0.
         25    1    3    3    0    0 -0.10804372734E+03 -0.37207953619E+02 -0.20083986404E+03  0.26275851636E+03  0.12509000000E+03 0.  0.
         25    1    4    4    0    0  0.49837237507E+02  0.58398644284E+02 -0.11341974887E+03  0.18548773391E+03  0.12509000000E+03 0.  0.
         25    1    4    4    0    0  0.58206489832E+02 -0.21190690665E+02 -0.88687483128E+02  0.16537841030E+03  0.12509000000E+03 0.  0.
<mgrwt>
<rscale>  2 0.46278382E+03</rscale>
<asrwt>0</asrwt>
<pdfrwt beam="1">  1       21 0.15490997E-01 0.46278382E+03</pdfrwt>
<pdfrwt beam="2">  1       21 0.74747923E-01 0.46278382E+03</pdfrwt>
<totfact> 0.54423451E+04</totfact>
</mgrwt>
</event>
<event>
 7    0  0.4707675E-002  0.4647736E+03  0.7546771E-02  0.1023406E+00
         21   -1    0    0  502  501  0.00000000000E+00  0.00000000000E+00  0.21238685364E+03  0.21238685364E+03  0.00000000000E+00 0. -1.
         21   -1    0    0  501  502 -0.00000000000E+00 -0.00000000000E+00 -0.25427009953E+03  0.25427009953E+03  0.00000000000E+00 0. -1.
      99926    2    1    2    0    0  0.35527136788E-14  0.00000000000E+00 -0.41883245890E+02  0.46665695318E+03  0.46477360689E+03 0.  0.
      99925    2    3    3    0    0 -0.19068258166E+02  0.11290108071E+03  0.16521335257E+02  0.28730016994E+03  0.26297943006E+03 0.  0.
         25    1    4    4    0    0  0.18040709559E+02  0.23555303463E+02  0.31521706106E+01  0.12859923718E+03  0.12509000000E+03 0.  0.
         25    1    3    3    0    0  0.19068258166E+02 -0.11290108071E+03 -0.58404581147E+02  0.17935678324E+03  0.12509000000E+03 0.  0.
         25    1    4    4    0    0 -0.37108967725E+02  0.89345777246E+02  0.13369164646E+02  0.15870093277E+03  0.12509000000E+03 0.  0.
<mgrwt>
<rscale>  2 0.46477361E+03</rscale>
<asrwt>0</asrwt>
<pdfrwt beam="1">  1       21 0.31233361E-01 0.46477361E+03</pdfrwt>
<pdfrwt beam="2">  1       21 0.37392662E-01 0.46477361E+03</pdfrwt>
<totfact> 0.62668770E+04</totfact>
</mgrwt>
</event>
<event>
 7    0  0.4707675E-002  0.4528664E+03  0.7546771E-02  0.1026871E+00
         21   -1    0    0  502  501  0.00000000000E+00  0.00000000000E+00  0.60519882705E+02  0.60519882705E+02  0.00000000000E+00 0. -1.
         21   -1    0    0  501  502 -0.00000000000E+00 -0.00000000000E+00 -0.84719244067E+03  0.84719244067E+03  0.00000000000E+00 0. -1.
      99926    2    1    2    0    0  0.00000000000E+00  0.35527136788E-14 -0.78667255797E+03  0.90771232338E+03  0.45286636942E+03 0.  0.
      99925    2    3    3    0    0  0.70054259361E+02  0.30038801308E+02 -0.65814551296E+03  0.71283636735E+03  0.26300236036E+03 0.  0.
         25    1    3    3    0    0 -0.70054259361E+02 -0.30038801308E+02 -0.12852704501E+03  0.19487595603E+03  0.12509000000E+03 0.  0.
         25    1    4    4    0    0  0.69175641803E+02  0.21441303133E+02 -0.29201277648E+03  0.32582812743E+03  0.12509000000E+03 0.  0.
         25    1    4    4    0    0  0.87861755858E+00  0.85974981750E+01 -0.36613273648E+03  0.38700823992E+03  0.12509000000E+03 0.  0.
<mgrwt>
<rscale>  2 0.45286637E+03</rscale>
<asrwt>0</asrwt>
<pdfrwt beam="1">  1       21 0.88999832E-02 0.45286637E+03</pdfrwt>
<pdfrwt beam="2">  1       21 0.12458712E+00 0.45286637E+03</pdfrwt>
<totfact> 0.43626089E+04</totfact>
</mgrwt>
</event>
<event>
 7    0  0.4707675E-002  0.4582636E+03  0.7546771E-02  0.1025286E+00
         21   -1    0    0  502  501  0.00000000000E+00  0.00000000000E+00  0.85281550598E+02  0.85281550598E+02  0.00000000000E+00 0.  1.
         21   -1    0    0  501  502 -0.00000000000E+00 -0.00000000000E+00 -0.61562423258E+03  0.61562423258E+03  0.00000000000E+00 0.  1.
      99926    2    1    2    0    0 -0.71054273576E-14  0.00000000000E+00 -0.53034268198E+03  0.70090578318E+03  0.45826363216E+03 0.  0.
      99925    2    3    3    0    0  0.59223691833E+02 -0.86011432876E+02 -0.41083853790E+03  0.49883114149E+03  0.26294256262E+03 0.  0.
         25    1    3    3    0    0 -0.59223691833E+02  0.86011432876E+02 -0.11950414408E+03  0.20207464169E+03  0.12509000000E+03 0.  0.
         25    1    4    4    0    0  0.69293244365E+02 -0.33491414520E+02 -0.21122042280E+03  0.25726407380E+03  0.12509000000E+03 0.  0.
         25    1    4    4    0    0 -0.10069552532E+02 -0.52520018356E+02 -0.19961811510E+03  0.24156706769E+03  0.12509000000E+03 0.  0.
<mgrwt>
<rscale>  2 0.45826363E+03</rscale>
<asrwt>0</asrwt>
<pdfrwt beam="1">  1       21 0.12541404E-01 0.45826363E+03</pdfrwt>
<pdfrwt beam="2">  1       21 0.90532977E-01 0.45826363E+03</pdfrwt>
<totfact> 0.51517827E+04</totfact>
</mgrwt>
</event>
<event>
 7    0  0.4707675E-002  0.4525198E+03  0.7546771E-02  0.1026973E+00
         21   -1    0    0  502  501  0.00000000000E+00  0.00000000000E+00  0.55387134217E+03  0.55387134217E+03  0.00000000000E+00 0.  1.
         21   -1    0    0  501  502 -0.00000000000E+00 -0.00000000000E+00 -0.92428573025E+02  0.92428573025E+02  0.00000000000E+00 0.  1.
      99926    2    1    2    0    0 -0.71054273576E-14  0.00000000000E+00  0.46144276915E+03  0.64629991520E+03  0.45251977988E+03 0.  0.
      99925    2    3    3    0    0 -0.50753617560E+02  0.97379873221E+02  0.31251440462E+03  0.42294831958E+03  0.26298528198E+03 0.  0.
         25    1    4    4    0    0  0.41833777132E+01  0.50884020339E+02  0.19287576718E+03  0.23548939221E+03  0.12509000000E+03 0.  0.
         25    1    4    4    0    0 -0.54936995274E+02  0.46495852882E+02  0.11963863744E+03  0.18745892737E+03  0.12509000000E+03 0.  0.
         25    1    3    3    0    0  0.50753617560E+02 -0.97379873221E+02  0.14892836453E+03  0.22335159562E+03  0.12509000000E+03 0.  0.
<mgrwt>
<rscale>  2 0.45251978E+03</rscale>
<asrwt>0</asrwt>
<pdfrwt beam="1">  1       21 0.81451666E-01 0.45251978E+03</pdfrwt>
<pdfrwt beam="2">  1       21 0.13592438E-01 0.45251978E+03</pdfrwt>
<totfact> 0.57022831E+04</totfact>
</mgrwt>
</event>
<event>
 7    0  0.4707675E-002  0.4565077E+03  0.7546771E-02  0.1025799E+00
         21   -1    0    0  502  501  0.00000000000E+00  0.00000000000E+00  0.38411069463E+03  0.38411069463E+03  0.00000000000E+00 0. -1.
         21   -1    0    0  501  502 -0.00000000000E+00 -0.00000000000E+00 -0.13563748560E+03  0.13563748560E+03  0.00000000000E+00 0. -1.
      99926    2    1    2    0    0  0.00000000000E+00 -0.35527136788E-14  0.24847320903E+03  0.51974818023E+03  0.45650765081E+03 0.  0.
      99925    2    3    3    0    0  0.99461370616E+02  0.94240443197E+01  0.92251249623E+02  0.29606495431E+03  0.26298818844E+03 0.  0.
         25    1    4    4    0    0  0.62432706728E+02  0.42445781497E+02  0.58058954190E+02  0.15721907485E+03  0.12509000000E+03 0.  0.
         25    1    4    4    0    0  0.37028663889E+02 -0.33021737178E+02  0.34192295433E+02  0.13884587946E+03  0.12509000000E+03 0.  0.
         25    1    3    3    0    0 -0.99461370616E+02 -0.94240443197E+01  0.15622195941E+03  0.22368322592E+03  0.12509000000E+03 0.  0.
<mgrwt>
<rscale>  2 0.45650765E+03</rscale>
<asrwt>0</asrwt>
<pdfrwt beam="1">  1       21 0.56486867E-01 0.45650765E+03</pdfrwt>
<pdfrwt beam="2">  1       21 0.19946689E-01 0.45650765E+03</pdfrwt>
<totfact> 0.63145705E+04</totfact>
</mgrwt>
</event>
<event>
 7    0  0.4707675E-002  0.4449130E+03  0.7546771E-02  0.1029250E+00
         21   -1    0    0  502  501  0.00000000000E+00  0.00000000000E+00  0.61779438898E+02  0.61779438898E+02  0.00000000000E+00 0.  1.
         21   -1    0    0  501  502 -0.00000000000E+00 -0.00000000000E+00 -0.80102536176E+03  0.80102536176E+03  0.00000000000E+00 0.  1.
      99926    2    1    2    0    0 -0.71054273576E-14 -0.17763568394E-14 -0.73924592286E+03  0.86280480066E+03  0.44491301349E+03 0.  0.
      99925    2    3    3    0    0 -0.56877682189E+02  0.53309507996E+01 -0.30236222915E+03  0.40478912440E+03  0.26299777157E+03 0.  0.
         25    1    4    4    0    0 -0.41743303287E+02 -0.19322319949E+02 -0.10653554033E+03  0.17062586226E+03  0.12509000000E+03 0.  0.
         25    1    3    3    0    0  0.56877682189E+02 -0.53309507996E+01 -0.43688369371E+03  0.45801567626E+03  0.12509000000E+03 0.  0.
         25    1    4    4    0    0 -0.15134378901E+02  0.24653270748E+02 -0.19582668882E+03  0.23416326215E+03  0.12509000000E+03 0.  0.
<mgrwt>
<rscale>  2 0.44491301E+03</rscale>
<asrwt>0</asrwt>
<pdfrwt beam="1">  1       21 0.90852116E-02 0.44491301E+03</pdfrwt>
<pdfrwt beam="2">  1       21 0.11779785E+00 0.44491301E+03</pdfrwt>
<totfact> 0.48604422E+04</totfact>
</mgrwt>
</event>
<event>
 7    0  0.4707675E-002  0.4573170E+03  0.7546771E-02  0.1025562E+00
         21   -1    0    0  502  501  0.00000000000E+00  0.00000000000E+00  0.55749294454E+02  0.55749294454E+02  0.00000000000E+00 0.  1.
         21   -1    0    0  501  502 -0.00000000000E+00 -0.00000000000E+00 -0.93785406622E+03  0.93785406622E+03  0.00000000000E+00 0.  1.
      99926    2    1    2    0    0  0.00000000000E+00  0.00000000000E+00 -0.88210477177E+03  0.99360336068E+03  0.45731696882E+03 0.  0.
      99925    2    3    3    0    0 -0.73922501030E+02  0.71707035413E+02 -0.66637402377E+03  0.72380028653E+03  0.26310849500E+03 0.  0.
         25    1    3    3    0    0  0.73922501030E+02 -0.71707035413E+02 -0.21573074800E+03  0.26980307415E+03  0.12509000000E+03 0.  0.
         25    1    4    4    0    0 -0.78940819682E+01  0.45128717626E+02 -0.25038392021E+03  0.28361687764E+03  0.12509000000E+03 0.  0.
         25    1    4    4    0    0 -0.66028419062E+02  0.26578317787E+02 -0.41599010356E+03  0.44018340889E+03  0.12509000000E+03 0.  0.
<mgrwt>
<rscale>  2 0.45731697E+03</rscale>
<asrwt>0</asrwt>
<pdfrwt beam="1">  1       21 0.81984258E-02 0.45731697E+03</pdfrwt>
<pdfrwt beam="2">  1       21 0.13791971E+00 0.45731697E+03</pdfrwt>
<totfact> 0.38711196E+04</totfact>
</mgrwt>
</event>
<event>
 7    0  0.4707675E-002  0.4537631E+03  0.7546771E-02  0.1026606E+00
         21   -1    0    0  502  501  0.00000000000E+00  0.00000000000E+00  0.66085186338E+03  0.66085186338E+03  0.00000000000E+00 0. -1.
         21   -1    0    0  501  502 -0.00000000000E+00 -0.00000000000E+00 -0.77892247033E+02  0.77892247033E+02  0.00000000000E+00 0. -1.
      99926    2    1    2    0    0  0.00000000000E+00 -0.14210854715E-13  0.58295961635E+03  0.73874411041E+03  0.45376309499E+03 0.  0.
      99925    2    3    3    0    0  0.11846969228E+02  0.69673765855E+02  0.22571232556E+03  0.35368837522E+03  0.26297267639E+03 0.  0.
         25    1    4    4    0    0 -0.27559258918E+02  0.51993086731E+02  0.13516994258E+03  0.19334222327E+03  0.12509000000E+03 0.  0.
         25    1    4    4    0    0  0.39406228147E+02  0.17680679123E+02  0.90542382972E+02  0.16034615195E+03  0.12509000000E+03 0.  0.
         25    1    3    3    0    0 -0.11846969228E+02 -0.69673765855E+02  0.35724729079E+03  0.38505573519E+03  0.12509000000E+03 0.  0.
<mgrwt>
<rscale>  2 0.45376309E+03</rscale>
<asrwt>0</asrwt>
<pdfrwt beam="1">  1       21 0.97184095E-01 0.45376309E+03</pdfrwt>
<pdfrwt beam="2">  1       21 0.11454743E-01 0.45376309E+03</pdfrwt>
<totfact> 0.51346867E+04</totfact>
</mgrwt>
</event>
<event>
 7    0  0.4707675E-002  0.4698299E+03  0.7546771E-02  0.1021968E+00
         21   -1    0    0  502  501  0.00000000000E+00  0.00000000000E+00  0.24655823328E+03  0.24655823328E+03  0.00000000000E+00 0. -1.
         21   -1    0    0  501  502 -0.00000000000E+00 -0.00000000000E+00 -0.22382151713E+03  0.22382151713E+03  0.00000000000E+00 0. -1.
      99926    2    1    2    0    0  0.00000000000E+00 -0.71054273576E-14  0.22736716147E+02  0.47037975041E+03  0.46982991746E+03 0.  0.
      99925    2    3    3    0    0  0.10260459517E+03  0.45610462781E+02  0.72505341831E+02  0.29507304356E+03  0.26306474332E+03 0.  0.
         25    1    4    4    0    0  0.91942551885E+02  0.10187090139E+02  0.40027662740E+02  0.16064535953E+03  0.12509000000E+03 0.  0.
         25    1    3    3    0    0 -0.10260459517E+03 -0.45610462781E+02 -0.49768625685E+02  0.17530670685E+03  0.12509000000E+03 0.  0.
         25    1    4    4    0    0  0.10662043280E+02  0.35423372643E+02  0.32477679092E+02  0.13442768404E+03  0.12509000000E+03 0.  0.
<mgrwt>
<rscale>  2 0.46982992E+03</rscale>
<asrwt>0</asrwt>
<pdfrwt beam="1">  1       21 0.36258564E-01 0.46982992E+03</pdfrwt>
<pdfrwt beam="2">  1       21 0.32914929E-01 0.46982992E+03</pdfrwt>
<totfact> 0.60011910E+04</totfact>
</mgrwt>
</event>
<event>
 7    0  0.4707675E-002  0.4532524E+03  0.7546771E-02  0.1026757E+00
         21   -1    0    0  502  501  0.00000000000E+00  0.00000000000E+00  0.31261136966E+03  0.31261136966E+03  0.00000000000E+00 0.  1.
         21   -1    0    0  501  502 -0.00000000000E+00 -0.00000000000E+00 -0.16429163854E+03  0.16429163854E+03  0.00000000000E+00 0.  1.
      99926    2    1    2    0    0  0.00000000000E+00  0.00000000000E+00  0.14831973111E+03  0.47690300820E+03  0.45325239833E+03 0.  0.
      99925    2    3    3    0    0 -0.37260550038E+02  0.10230157354E+03  0.11896097077E+03  0.30848862210E+03  0.26298204665E+03 0.  0.
         25    1    4    4    0    0  0.78765996394E+00  0.66660122318E+02  0.95598991644E+02  0.17097037059E+03  0.12509000000E+03 0.  0.
         25    1    3    3    0    0  0.37260550038E+02 -0.10230157354E+03  0.29358760342E+02  0.16841438610E+03  0.12509000000E+03 0.  0.
         25    1    4    4    0    0 -0.38048210002E+02  0.35641451218E+02  0.23361979128E+02  0.13751825151E+03  0.12509000000E+03 0.  0.
<mgrwt>
<rscale>  2 0.45325240E+03</rscale>
<asrwt>0</asrwt>
<pdfrwt beam="1">  1       21 0.45972260E-01 0.45325240E+03</pdfrwt>
<pdfrwt beam="2">  1       21 0.24160535E-01 0.45325240E+03</pdfrwt>
<totfact> 0.67862645E+04</totfact>
</mgrwt>
</event>
<event>
 7    0  0.4707675E-002  0.4516331E+03  0.7546771E-02  0.1027236E+00
         21   -1    0    0  502  501  0.00000000000E+00  0.00000000000E+00  0.67007914919E+02  0.67007914919E+02  0.00000000000E+00 0. -1.
         21   -1    0    0  501  502 -0.00000000000E+00 -0.00000000000E+00 -0.76100137024E+03  0.76100137024E+03  0.00000000000E+00 0. -1.
      99926    2    1    2    0    0  0.00000000000E+00  0.00000000000E+00 -0.69399345532E+03  0.82800928516E+03  0.45163310362E+03 0.  0.
      99925    2    3    3    0    0  0.64250729043E+02 -0.59074544093E+02 -0.56070980326E+03  0.62545065673E+03  0.26301156362E+03 0.  0.
         25    1    4    4    0    0  0.80016603983E+01  0.45798087744E+01 -0.27264003695E+03  0.30010847883E+03  0.12509000000E+03 0.  0.
         25    1    4    4    0    0  0.56249068644E+02 -0.63654352867E+02 -0.28806976630E+03  0.32534217790E+03  0.12509000000E+03 0.  0.
         25    1    3    3    0    0 -0.64250729043E+02  0.59074544093E+02 -0.13328365206E+03  0.20255862842E+03  0.12509000000E+03 0.  0.
<mgrwt>
<rscale>  2 0.45163310E+03</rscale>
<asrwt>0</asrwt>
<pdfrwt beam="1">  1       21 0.98541049E-02 0.45163310E+03</pdfrwt>
<pdfrwt beam="2">  1       21 0.11191197E+00 0.45163310E+03</pdfrwt>
<totfact> 0.47687021E+04</totfact>
</mgrwt>
</event>
<event>
 7    0  0.4707675E-002  0.4558036E+03  0.7546771E-02  0.1026005E+00
         21   -1    0    0  502  501  0.00000000000E+00  0.00000000000E+00  0.38355144076E+03  0.38355144076E+03  0.00000000000E+00 0.  1.
         21   -1    0    0  501  502 -0.00000000000E+00 -0.00000000000E+00 -0.13541658489E+03  0.13541658489E+03  0.00000000000E+00 0.  1.
      99926    2    1    2    0    0  0.00000000000E+00  0.00000000000E+00  0.24813485587E+03  0.51896802565E+03  0.45580358154E+03 0.  0.
      99925    2    3    3    0    0 -0.62573001916E+02 -0.17359024615E+02  0.26261636916E+03  0.37728549803E+03  0.26298340893E+03 0.  0.
         25    1    3    3    0    0  0.62573001916E+02  0.17359024615E+02 -0.14481513284E+02  0.14168252761E+03  0.12509000000E+03 0.  0.
         25    1    4    4    0    0 -0.64879166159E+02 -0.28498334894E+02  0.15989940846E+03  0.21502741737E+03  0.12509000000E+03 0.  0.
         25    1    4    4    0    0  0.23061642430E+01  0.11139310279E+02  0.10271696069E+03  0.16225808066E+03  0.12509000000E+03 0.  0.
<mgrwt>
<rscale>  2 0.45580358E+03</rscale>
<asrwt>0</asrwt>
<pdfrwt beam="1">  1       21 0.56404623E-01 0.45580358E+03</pdfrwt>
<pdfrwt beam="2">  1       21 0.19914204E-01 0.45580358E+03</pdfrwt>
<totfact> 0.63551480E+04</totfact>
</mgrwt>
</event>
<event>
 7    0  0.4707675E-002  0.4742980E+03  0.7546771E-02  0.1020714E+00
         21   -1    0    0  502  501  0.00000000000E+00  0.00000000000E+00  0.98534511331E+02  0.98534511331E+02  0.00000000000E+00 0. -1.
         21   -1    0    0  501  502 -0.00000000000E+00 -0.00000000000E+00 -0.57076089478E+03  0.57076089478E+03  0.00000000000E+00 0. -1.
      99926    2    1    2    0    0 -0.17763568394E-14  0.00000000000E+00 -0.47222638345E+03  0.66929540611E+03  0.47429799010E+03 0.  0.
      99925    2    3    3    0    0 -0.13178836351E+02  0.12622466372E+03 -0.33436884003E+03  0.44399880641E+03  0.26310847850E+03 0.  0.
         25    1    3    3    0    0  0.13178836351E+02 -0.12622466372E+03 -0.13785754342E+03  0.22529659969E+03  0.12509000000E+03 0.  0.
         25    1    4    4    0    0 -0.33437671288E+02  0.85174054669E+02 -0.14329355715E+03  0.21107640576E+03  0.12509000000E+03 0.  0.
         25    1    4    4    0    0  0.20258834937E+02  0.41050609047E+02 -0.19107528288E+03  0.23292240065E+03  0.12509000000E+03 0.  0.
<mgrwt>
<rscale>  2 0.47429799E+03</rscale>
<asrwt>0</asrwt>
<pdfrwt beam="1">  1       21 0.14490369E-01 0.47429799E+03</pdfrwt>
<pdfrwt beam="2">  1       21 0.83935425E-01 0.47429799E+03</pdfrwt>
<totfact> 0.47027452E+04</totfact>
</mgrwt>
</event>
<event>
 7    0  0.4707675E-002  0.4590742E+03  0.7546771E-02  0.1025050E+00
         21   -1    0    0  502  501  0.00000000000E+00  0.00000000000E+00  0.26683757793E+03  0.26683757793E+03  0.00000000000E+00 0.  1.
         21   -1    0    0  501  502 -0.00000000000E+00 -0.00000000000E+00 -0.19745078764E+03  0.19745078764E+03  0.00000000000E+00 0.  1.
      99926    2    1    2    0    0  0.00000000000E+00  0.00000000000E+00  0.69386790287E+02  0.46428836557E+03  0.45907424208E+03 0.  0.
      99925    2    3    3    0    0  0.57197851868E+02  0.99127266051E+02  0.18792792767E+02  0.28735597787E+03  0.26291154373E+03 0.  0.
         25    1    4    4    0    0  0.39702043549E+02  0.48556311474E+02 -0.29453028497E+02  0.14299984837E+03  0.12509000000E+03 0.  0.
         25    1    3    3    0    0 -0.57197851868E+02 -0.99127266051E+02  0.50593997521E+02  0.17693238770E+03  0.12509000000E+03 0.  0.
         25    1    4    4    0    0  0.17495808319E+02  0.50570954576E+02  0.48245821264E+02  0.14435612950E+03  0.12509000000E+03 0.  0.
<mgrwt>
<rscale>  2 0.45907424E+03</rscale>
<asrwt>0</asrwt>
<pdfrwt beam="1">  1       21 0.39240821E-01 0.45907424E+03</pdfrwt>
<pdfrwt beam="2">  1       21 0.29036880E-01 0.45907424E+03</pdfrwt>
<totfact> 0.65708168E+04</totfact>
</mgrwt>
</event>
<event>
 7    0  0.4707675E-002  0.4421421E+03  0.7546771E-02  0.1030092E+00
         21   -1    0    0  502  501  0.00000000000E+00  0.00000000000E+00  0.68772151935E+03  0.68772151935E+03  0.00000000000E+00 0. -1.
         21   -1    0    0  501  502 -0.00000000000E+00 -0.00000000000E+00 -0.71064249550E+02  0.71064249550E+02  0.00000000000E+00 0. -1.
      99926    2    1    2    0    0  0.00000000000E+00 -0.35527136788E-14  0.61665726980E+03  0.75878576890E+03  0.44214212046E+03 0.  0.
      99925    2    3    3    0    0  0.47659844287E+02 -0.25813947124E+02  0.53819459578E+03  0.60149075964E+03  0.26305872041E+03 0.  0.
         25    1    4    4    0    0  0.21389948071E+02  0.20709361817E+02  0.21020478545E+03  0.24641421930E+03  0.12509000000E+03 0.  0.
         25    1    4    4    0    0  0.26269896216E+02 -0.46523308941E+02  0.32798981033E+03  0.35507654035E+03  0.12509000000E+03 0.  0.
         25    1    3    3    0    0 -0.47659844287E+02  0.25813947124E+02  0.78462674018E+02  0.15729500926E+03  0.12509000000E+03 0.  0.
<mgrwt>
<rscale>  2 0.44214212E+03</rscale>
<asrwt>0</asrwt>
<pdfrwt beam="1">  1       21 0.10113551E+00 0.44214212E+03</pdfrwt>
<pdfrwt beam="2">  1       21 0.10450625E-01 0.44214212E+03</pdfrwt>
<totfact> 0.55186368E+04</totfact>
</mgrwt>
</event>
<event>
 7    0  0.4707675E-002  0.4525154E+03  0.7546771E-02  0.1026975E+00
         21   -1    0    0  502  501  0.00000000000E+00  0.00000000000E+00  0.11502038457E+03  0.11502038457E+03  0.00000000000E+00 0.  1.
         21   -1    0    0  501  502 -0.00000000000E+00 -0.00000000000E+00 -0.44507368434E+03  0.44507368434E+03  0.00000000000E+00 0.  1.
      99926    2    1    2    0    0  0.00000000000E+00  0.35527136788E-14 -0.33005329976E+03  0.56009406891E+03  0.45251539791E+03 0.  0.
      99925    2    3    3    0    0 -0.70571458181E+02 -0.19967071892E+02 -0.31158705617E+03  0.41391772020E+03  0.26241640737E+03 0.  0.
         25    1    4    4    0    0 -0.48551165155E+01 -0.35432045889E+02 -0.15732147651E+03  0.20414837032E+03  0.12509000000E+03 0.  0.
         25    1    4    4    0    0 -0.65716341665E+02  0.15464973997E+02 -0.15426557966E+03  0.20976934988E+03  0.12509000000E+03 0.  0.
         25    1    3    3    0    0  0.70571458181E+02  0.19967071892E+02 -0.18466243594E+02  0.14617634871E+03  0.12509000000E+03 0.  0.
<mgrwt>
<rscale>  2 0.45251540E+03</rscale>
<asrwt>0</asrwt>
<pdfrwt beam="1">  1       21 0.16914763E-01 0.45251540E+03</pdfrwt>
<pdfrwt beam="2">  1       21 0.65452012E-01 0.45251540E+03</pdfrwt>
<totfact> 0.62422127E+04</totfact>
</mgrwt>
</event>
<event>
 7    0  0.4707675E-002  0.4488103E+03  0.7546771E-02  0.1028077E+00
         21   -1    0    0  502  501  0.00000000000E+00  0.00000000000E+00  0.85261624384E+02  0.85261624384E+02  0.00000000000E+00 0. -1.
         21   -1    0    0  501  502 -0.00000000000E+00 -0.00000000000E+00 -0.59062516773E+03  0.59062516773E+03  0.00000000000E+00 0. -1.
      99926    2    1    2    0    0 -0.17763568394E-14  0.00000000000E+00 -0.50536354335E+03  0.67588679212E+03  0.44881025480E+03 0.  0.
      99925    2    3    3    0    0 -0.10170146100E+02 -0.49724585841E+02 -0.17740929357E+03  0.32123560523E+03  0.26294921623E+03 0.  0.
         25    1    4    4    0    0 -0.41078089933E+02 -0.37613416865E+02 -0.74474505508E+02  0.15587218697E+03  0.12509000000E+03 0.  0.
         25    1    3    3    0    0  0.10170146100E+02  0.49724585841E+02 -0.32795424978E+03  0.35465118688E+03  0.12509000000E+03 0.  0.
         25    1    4    4    0    0  0.30907943833E+02 -0.12111168976E+02 -0.10293478806E+03  0.16536341826E+03  0.12509000000E+03 0.  0.
<mgrwt>
<rscale>  2 0.44881025E+03</rscale>
<asrwt>0</asrwt>
<pdfrwt beam="1">  1       21 0.12538475E-01 0.44881025E+03</pdfrwt>
<pdfrwt beam="2">  1       21 0.86856636E-01 0.44881025E+03</pdfrwt>
<totfact> 0.56958455E+04</totfact>
</mgrwt>
</event>
<event>
 7    0  0.4707675E-002  0.4744626E+03  0.7546771E-02  0.1020668E+00
         21   -1    0    0  502  501  0.00000000000E+00  0.00000000000E+00  0.12359148915E+04  0.12359148915E+04  0.00000000000E+00 0. -1.
         21   -1    0    0  501  502 -0.00000000000E+00 -0.00000000000E+00 -0.45536048701E+02  0.45536048701E+02  0.00000000000E+00 0. -1.
      99926    2    1    2    0    0  0.00000000000E+00  0.22204460493E-15  0.11903788428E+04  0.12814509402E+04  0.47446256202E+03 0.  0.
      99925    2    3    3    0    0 -0.93458936518E+02  0.13256343145E+01  0.98297355039E+03  0.10218343122E+04  0.26300576169E+03 0.  0.
         25    1    3    3    0    0  0.93458936518E+02 -0.13256343145E+01  0.20740529243E+03  0.25961662803E+03  0.12509000000E+03 0.  0.
         25    1    4    4    0    0 -0.18667048220E+02  0.25640002062E+01  0.57081873714E+03  0.58466791562E+03  0.12509000000E+03 0.  0.
         25    1    4    4    0    0 -0.74791888297E+02 -0.12383658917E+01  0.41215481325E+03  0.43716639657E+03  0.12509000000E+03 0.  0.
<mgrwt>
<rscale>  2 0.47446256E+03</rscale>
<asrwt>0</asrwt>
<pdfrwt beam="1">  1       21 0.18175217E+00 0.47446256E+03</pdfrwt>
<pdfrwt beam="2">  1       21 0.66964786E-02 0.47446256E+03</pdfrwt>
<totfact> 0.25561524E+04</totfact>
</mgrwt>
</event>
<event>
 7    0  0.4707675E-002  0.4469815E+03  0.7546771E-02  0.1028626E+00
         21   -1    0    0  502  501  0.00000000000E+00  0.00000000000E+00  0.17515389633E+04  0.17515389633E+04  0.00000000000E+00 0. -1.
         21   -1    0    0  501  502 -0.00000000000E+00 -0.00000000000E+00 -0.28516698018E+02  0.28516698018E+02  0.00000000000E+00 0. -1.
      99926    2    1    2    0    0  0.00000000000E+00 -0.71054273576E-14  0.17230222653E+04  0.17800556613E+04  0.44698146576E+03 0.  0.
      99925    2    3    3    0    0  0.93026215697E+02 -0.43136809814E+02  0.11908063671E+04  0.12238039813E+04  0.26298615838E+03 0.  0.
         25    1    4    4    0    0  0.39412649911E+02 -0.55741288022E+02  0.69778292417E+03  0.71218604699E+03  0.12509000000E+03 0.  0.
         25    1    3    3    0    0 -0.93026215697E+02  0.43136809814E+02  0.53221589812E+03  0.55625167998E+03  0.12509000000E+03 0.  0.
         25    1    4    4    0    0  0.53613565786E+02  0.12604478208E+02  0.49302344296E+03  0.51161793432E+03  0.12509000000E+03 0.  0.
<mgrwt>
<rscale>  2 0.44698147E+03</rscale>
<asrwt>0</asrwt>
<pdfrwt beam="1">  1       21 0.25757919E+00 0.44698147E+03</pdfrwt>
<pdfrwt beam="2">  1       21 0.41936333E-02 0.44698147E+03</pdfrwt>
<totfact> 0.18788417E+04</totfact>
</mgrwt>
</event>
<event>
 7    0  0.4707675E-002  0.4559094E+03  0.7546771E-02  0.1025974E+00
         21   -1    0    0  502  501  0.00000000000E+00  0.00000000000E+00  0.42321506657E+03  0.42321506657E+03  0.00000000000E+00 0.  1.
         21   -1    0    0  501  502 -0.00000000000E+00 -0.00000000000E+00 -0.12278234454E+03  0.12278234454E+03  0.00000000000E+00 0.  1.
      99926    2    1    2    0    0 -0.26645352591E-14  0.00000000000E+00  0.30043272203E+03  0.54599741111E+03  0.45590936871E+03 0.  0.
      99925    2    3    3    0    0 -0.59886427452E+01 -0.11370935284E+03  0.19425805440E+03  0.34628199130E+03  0.26307669040E+03 0.  0.
         25    1    4    4    0    0 -0.23813177271E+02 -0.20418381968E+02  0.99109081209E+02  0.16264715126E+03  0.12509000000E+03 0.  0.
         25    1    4    4    0    0  0.17824534526E+02 -0.93290970874E+02  0.95148973187E+02  0.18363484004E+03  0.12509000000E+03 0.  0.
         25    1    3    3    0    0  0.59886427452E+01  0.11370935284E+03  0.10617466763E+03  0.19971541982E+03  0.12509000000E+03 0.  0.
<mgrwt>
<rscale>  2 0.45590937E+03</rscale>
<asrwt>0</asrwt>
<pdfrwt beam="1">  1       21 0.62237509E-01 0.45590937E+03</pdfrwt>
<pdfrwt beam="2">  1       21 0.18056227E-01 0.45590937E+03</pdfrwt>
<totfact> 0.61686712E+04</totfact>
</mgrwt>
</event>
<event>
 7    0  0.4707675E-002  0.4563537E+03  0.7546771E-02  0.1025844E+00
         21   -1    0    0  502  501  0.00000000000E+00  0.00000000000E+00  0.21583605188E+03  0.21583605188E+03  0.00000000000E+00 0. -1.
         21   -1    0    0  501  502 -0.00000000000E+00 -0.00000000000E+00 -0.24122321248E+03  0.24122321248E+03  0.00000000000E+00 0. -1.
      99926    2    1    2    0    0  0.00000000000E+00  0.00000000000E+00 -0.25387160594E+02  0.45705926436E+03  0.45635366024E+03 0.  0.
      99925    2    3    3    0    0  0.23366410341E+02 -0.44357483868E+02  0.87190410107E+02  0.28146087874E+03  0.26287731575E+03 0.  0.
         25    1    4    4    0    0  0.13117286134E+01 -0.55289581113E+02  0.22883955154E+02  0.13867170553E+03  0.12509000000E+03 0.  0.
         25    1    4    4    0    0  0.22054681727E+02  0.10932097245E+02  0.64306454953E+02  0.14278917321E+03  0.12509000000E+03 0.  0.
         25    1    3    3    0    0 -0.23366410341E+02  0.44357483868E+02 -0.11257757070E+03  0.17559838562E+03  0.12509000000E+03 0.  0.
<mgrwt>
<rscale>  2 0.45635366E+03</rscale>
<asrwt>0</asrwt>
<pdfrwt beam="1">  1       21 0.31740596E-01 0.45635366E+03</pdfrwt>
<pdfrwt beam="2">  1       21 0.35474002E-01 0.45635366E+03</pdfrwt>
<totfact> 0.67661481E+04</totfact>
</mgrwt>
</event>
<event>
 7    0  0.4707675E-002  0.4562665E+03  0.7546771E-02  0.1025870E+00
         21   -1    0    0  502  501  0.00000000000E+00  0.00000000000E+00  0.40498834723E+02  0.40498834723E+02  0.00000000000E+00 0.  1.
         21   -1    0    0  501  502 -0.00000000000E+00 -0.00000000000E+00 -0.12850932827E+04  0.12850932827E+04  0.00000000000E+00 0.  1.
      99926    2    1    2    0    0  0.00000000000E+00  0.88817841970E-15 -0.12445944479E+04  0.13255921174E+04  0.45626650308E+03 0.  0.
      99925    2    3    3    0    0  0.24638982219E+02  0.73931240080E+01 -0.45861881760E+03  0.52930891568E+03  0.26301135077E+03 0.  0.
         25    1    4    4    0    0  0.41476475855E+02  0.25481457151E+02 -0.27161293183E+03  0.30296979312E+03  0.12509000000E+03 0.  0.
         25    1    4    4    0    0 -0.16837493635E+02 -0.18088333143E+02 -0.18700588577E+03  0.22633912256E+03  0.12509000000E+03 0.  0.
         25    1    3    3    0    0 -0.24638982219E+02 -0.73931240080E+01 -0.78597563033E+03  0.79628320170E+03  0.12509000000E+03 0.  0.
<mgrwt>
<rscale>  2 0.45626650E+03</rscale>
<asrwt>0</asrwt>
<pdfrwt beam="1">  1       21 0.59557108E-02 0.45626650E+03</pdfrwt>
<pdfrwt beam="2">  1       21 0.18898431E+00 0.45626650E+03</pdfrwt>
<totfact> 0.28102666E+04</totfact>
</mgrwt>
</event>
<event>
 7    0  0.4707675E-002  0.4423746E+03  0.7546771E-02  0.1030021E+00
         21   -1    0    0  502  501  0.00000000000E+00  0.00000000000E+00  0.49765494662E+03  0.49765494662E+03  0.00000000000E+00 0. -1.
         21   -1    0    0  501  502 -0.00000000000E+00 -0.00000000000E+00 -0.98308705795E+02  0.98308705795E+02  0.00000000000E+00 0. -1.
      99926    2    1    2    0    0 -0.88817841970E-15  0.00000000000E+00  0.39934624083E+03  0.59596365242E+03  0.44237456407E+03 0.  0.
      99925    2    3    3    0    0  0.71416598703E+01 -0.99170960681E+02  0.27705683024E+03  0.39474712529E+03  0.26301886433E+03 0.  0.
         25    1    4    4    0    0  0.35435437174E+02 -0.29111827012E+02  0.15457651923E+03  0.20407002984E+03  0.12509000000E+03 0.  0.
         25    1    3    3    0    0 -0.71416598703E+01  0.99170960681E+02  0.12228941058E+03  0.20121652713E+03  0.12509000000E+03 0.  0.
         25    1    4    4    0    0 -0.28293777304E+02 -0.70059133669E+02  0.12248031101E+03  0.19067709545E+03  0.12509000000E+03 0.  0.
<mgrwt>
<rscale>  2 0.44237456E+03</rscale>
<asrwt>0</asrwt>
<pdfrwt beam="1">  1       21 0.73184550E-01 0.44237456E+03</pdfrwt>
<pdfrwt beam="2">  1       21 0.14457163E-01 0.44237456E+03</pdfrwt>
<totfact> 0.65191732E+04</totfact>
</mgrwt>
</event>
<event>
 7    0  0.4707675E-002  0.4561648E+03  0.7546771E-02  0.1025899E+00
         21   -1    0    0  502  501  0.00000000000E+00  0.00000000000E+00  0.29859162650E+03  0.29859162650E+03  0.00000000000E+00 0.  1.
         21   -1    0    0  501  502 -0.00000000000E+00 -0.00000000000E+00 -0.17422314517E+03  0.17422314517E+03  0.00000000000E+00 0.  1.
      99926    2    1    2    0    0  0.35527136788E-14  0.00000000000E+00  0.12436848133E+03  0.47281477167E+03  0.45616476098E+03 0.  0.
      99925    2    3    3    0    0 -0.28144227979E+02  0.40008163049E+02 -0.28873539075E+02  0.26904191873E+03  0.26297741747E+03 0.  0.
         25    1    3    3    0    0  0.28144227979E+02 -0.40008163049E+02  0.15324202040E+03  0.20377285294E+03  0.12509000000E+03 0.  0.
         25    1    4    4    0    0  0.24283377321E+02  0.24893732392E+02 -0.26708440466E+02  0.13255274127E+03  0.12509000000E+03 0.  0.
         25    1    4    4    0    0 -0.52427605300E+02  0.15114430657E+02 -0.21650986088E+01  0.13648917746E+03  0.12509000000E+03 0.  0.
<mgrwt>
<rscale>  2 0.45616476E+03</rscale>
<asrwt>0</asrwt>
<pdfrwt beam="1">  1       21 0.43910533E-01 0.45616476E+03</pdfrwt>
<pdfrwt beam="2">  1       21 0.25621051E-01 0.45616476E+03</pdfrwt>
<totfact> 0.66609310E+04</totfact>
</mgrwt>
</event>
<event>
 7    0  0.4707675E-002  0.4589758E+03  0.7546771E-02  0.1025079E+00
         21   -1    0    0  502  501  0.00000000000E+00  0.00000000000E+00  0.23169445678E+02  0.23169445678E+02  0.00000000000E+00 0. -1.
         21   -1    0    0  501  502 -0.00000000000E+00 -0.00000000000E+00 -0.22730236954E+04  0.22730236954E+04  0.00000000000E+00 0. -1.
      99926    2    1    2    0    0  0.71054273576E-14  0.00000000000E+00 -0.22498542497E+04  0.22961931411E+04  0.45897581215E+03 0.  0.
      99925    2    3    3    0    0  0.47929421798E+02 -0.40711589094E+02 -0.19040718221E+04  0.19231413239E+04  0.26273253502E+03 0.  0.
         25    1    4    4    0    0 -0.52413747729E+01 -0.37021133537E+01 -0.10630056773E+04  0.10703596385E+04  0.12509000000E+03 0.  0.
         25    1    3    3    0    0 -0.47929421798E+02  0.40711589094E+02 -0.34578242764E+03  0.37305181721E+03  0.12509000000E+03 0.  0.
         25    1    4    4    0    0  0.53170796571E+02 -0.37009475740E+02 -0.84106614484E+03  0.85278168543E+03  0.12509000000E+03 0.  0.
<mgrwt>
<rscale>  2 0.45897581E+03</rscale>
<asrwt>0</asrwt>
<pdfrwt beam="1">  1       21 0.34072725E-02 0.45897581E+03</pdfrwt>
<pdfrwt beam="2">  1       21 0.33426808E+00 0.45897581E+03</pdfrwt>
<totfact> 0.91623264E+03</totfact>
</mgrwt>
</event>
<event>
 7    0  0.4707675E-002  0.4579414E+03  0.7546771E-02  0.1025380E+00
         21   -1    0    0  502  501  0.00000000000E+00  0.00000000000E+00  0.38690258226E+03  0.38690258226E+03  0.00000000000E+00 0.  1.
         21   -1    0    0  501  502 -0.00000000000E+00 -0.00000000000E+00 -0.13550591700E+03  0.13550591700E+03  0.00000000000E+00 0.  1.
      99926    2    1    2    0    0 -0.71054273576E-14 -0.35527136788E-14  0.25139666526E+03  0.52240849926E+03  0.45794143381E+03 0.  0.
      99925    2    3    3    0    0 -0.51849650833E+02 -0.27546281443E+02  0.27189021265E+03  0.38271355484E+03  0.26286535225E+03 0.  0.
         25    1    4    4    0    0  0.85844790414E+01 -0.35089235632E+02  0.12959146628E+03  0.18370194329E+03  0.12509000000E+03 0.  0.
         25    1    4    4    0    0 -0.60434129875E+02  0.75429541890E+01  0.14229874637E+03  0.19901161155E+03  0.12509000000E+03 0.  0.
         25    1    3    3    0    0  0.51849650833E+02  0.27546281443E+02 -0.20493547385E+02  0.13969494442E+03  0.12509000000E+03 0.  0.
<mgrwt>
<rscale>  2 0.45794143E+03</rscale>
<asrwt>0</asrwt>
<pdfrwt beam="1">  1       21 0.56897438E-01 0.45794143E+03</pdfrwt>
<pdfrwt beam="2">  1       21 0.19927341E-01 0.45794143E+03</pdfrwt>
<totfact> 0.62257858E+04</totfact>
</mgrwt>
</event>
<event>
 7    0  0.4707675E-002  0.4697391E+03  0.7546771E-02  0.1021994E+00
         21   -1    0    0  502  501  0.00000000000E+00  0.00000000000E+00  0.33598512302E+03  0.33598512302E+03  0.00000000000E+00 0.  1.
         21   -1    0    0  501  502 -0.00000000000E+00 -0.00000000000E+00 -0.16418493050E+03  0.16418493050E+03  0.00000000000E+00 0.  1.
      99926    2    1    2    0    0  0.00000000000E+00  0.14210854715E-13  0.17180019252E+03  0.50017005352E+03  0.46973905127E+03 0.  0.
      99925    2    3    3    0    0  0.97754786797E+02 -0.68286893968E+02  0.15166521639E+03  0.32618148035E+03  0.26300745622E+03 0.  0.
         25    1    4    4    0    0  0.44769647266E+02 -0.29072685648E+01  0.10174500056E+03  0.16736883451E+03  0.12509000000E+03 0.  0.
         25    1    4    4    0    0  0.52985139531E+02 -0.65379625403E+02  0.49920215831E+02  0.15881264584E+03  0.12509000000E+03 0.  0.
         25    1    3    3    0    0 -0.97754786797E+02  0.68286893968E+02  0.20134976123E+02  0.17398857317E+03  0.12509000000E+03 0.  0.
<mgrwt>
<rscale>  2 0.46973905E+03</rscale>
<asrwt>0</asrwt>
<pdfrwt beam="1">  1       21 0.49409577E-01 0.46973905E+03</pdfrwt>
<pdfrwt beam="2">  1       21 0.24144843E-01 0.46973905E+03</pdfrwt>
<totfact> 0.58150981E+04</totfact>
</mgrwt>
</event>
<event>
 7    0  0.4707675E-002  0.4283812E+03  0.7546771E-02  0.1034373E+00
         21   -1    0    0  502  501  0.00000000000E+00  0.00000000000E+00  0.10061091301E+03  0.10061091301E+03  0.00000000000E+00 0.  1.
         21   -1    0    0  501  502 -0.00000000000E+00 -0.00000000000E+00 -0.45599051323E+03  0.45599051323E+03  0.00000000000E+00 0.  1.
      99926    2    1    2    0    0  0.00000000000E+00  0.00000000000E+00 -0.35537960023E+03  0.55660142624E+03  0.42838124076E+03 0.  0.
      99925    2    3    3    0    0 -0.43454342197E+02 -0.73753566158E+02 -0.23988019630E+03  0.36603519423E+03  0.26289044574E+03 0.  0.
         25    1    4    4    0    0  0.16887812665E+02 -0.47558003918E+02 -0.12503472212E+03  0.18392430994E+03  0.12509000000E+03 0.  0.
         25    1    3    3    0    0  0.43454342197E+02  0.73753566158E+02 -0.11549940393E+03  0.19056623202E+03  0.12509000000E+03 0.  0.
         25    1    4    4    0    0 -0.60342154862E+02 -0.26195562240E+02 -0.11484547418E+03  0.18211088428E+03  0.12509000000E+03 0.  0.
<mgrwt>
<rscale>  2 0.42838124E+03</rscale>
<asrwt>0</asrwt>
<pdfrwt beam="1">  1       21 0.14795722E-01 0.42838124E+03</pdfrwt>
<pdfrwt beam="2">  1       21 0.67057428E-01 0.42838124E+03</pdfrwt>
<totfact> 0.76266887E+04</totfact>
</mgrwt>
</event>
<event>
 7    0  0.4707675E-002  0.4625106E+03  0.7546771E-02  0.1024056E+00
         21   -1    0    0  502  501  0.00000000000E+00  0.00000000000E+00  0.53979531892E+03  0.53979531892E+03  0.00000000000E+00 0.  1.
         21   -1    0    0  501  502 -0.00000000000E+00 -0.00000000000E+00 -0.99072744336E+02  0.99072744336E+02  0.00000000000E+00 0.  1.
      99926    2    1    2    0    0 -0.71054273576E-14  0.00000000000E+00  0.44072257458E+03  0.63886806325E+03  0.46251055609E+03 0.  0.
      99925    2    3    3    0    0 -0.42879047664E+02  0.36539260153E+02  0.42144043243E+03  0.50032911794E+03  0.26371093628E+03 0.  0.
         25    1    4    4    0    0 -0.24533638444E+02  0.27923589828E+02  0.28864450991E+03  0.31677245380E+03  0.12509000000E+03 0.  0.
         25    1    4    4    0    0 -0.18345409220E+02  0.86156703250E+01  0.13279592252E+03  0.18355666415E+03  0.12509000000E+03 0.  0.
         25    1    3    3    0    0  0.42879047664E+02 -0.36539260153E+02  0.19282142151E+02  0.13853894531E+03  0.12509000000E+03 0.  0.
<mgrwt>
<rscale>  2 0.46251056E+03</rscale>
<asrwt>0</asrwt>
<pdfrwt beam="1">  1       21 0.79381663E-01 0.46251056E+03</pdfrwt>
<pdfrwt beam="2">  1       21 0.14569521E-01 0.46251056E+03</pdfrwt>
<totfact> 0.53127507E+04</totfact>
</mgrwt>
</event>
<event>
 7    0  0.4707675E-002  0.4508575E+03  0.7546771E-02  0.1027467E+00
         21   -1    0    0  502  501  0.00000000000E+00  0.00000000000E+00  0.32876203225E+03  0.32876203225E+03  0.00000000000E+00 0. -1.
         21   -1    0    0  501  502 -0.00000000000E+00 -0.00000000000E+00 -0.15457420116E+03  0.15457420116E+03  0.00000000000E+00 0. -1.
      99926    2    1    2    0    0  0.71054273576E-14  0.00000000000E+00  0.17418783109E+03  0.48333623340E+03  0.45085753185E+03 0.  0.
      99925    2    3    3    0    0 -0.57334947830E+02 -0.70623386555E+02  0.45162041005E+02  0.28191597231E+03  0.26298678014E+03 0.  0.
         25    1    3    3    0    0  0.57334947830E+02  0.70623386555E+02  0.12902579008E+03  0.20142026109E+03  0.12509000000E+03 0.  0.
         25    1    4    4    0    0 -0.59369305158E+01 -0.17021094791E+02 -0.89638305112E+01  0.12669973626E+03  0.12509000000E+03 0.  0.
         25    1    4    4    0    0 -0.51398017315E+02 -0.53602291764E+02  0.54125871516E+02  0.15521623605E+03  0.12509000000E+03 0.  0.
<mgrwt>
<rscale>  2 0.45085753E+03</rscale>
<asrwt>0</asrwt>
<pdfrwt beam="1">  1       21 0.48347358E-01 0.45085753E+03</pdfrwt>
<pdfrwt beam="2">  1       21 0.22731500E-01 0.45085753E+03</pdfrwt>
<totfact> 0.68689226E+04</totfact>
</mgrwt>
</event>
<event>
 7    0  0.4707675E-002  0.4590026E+03  0.7546771E-02  0.1025071E+00
         21   -1    0    0  502  501  0.00000000000E+00  0.00000000000E+00  0.15443651929E+03  0.15443651929E+03  0.00000000000E+00 0. -1.
         21   -1    0    0  501  502 -0.00000000000E+00 -0.00000000000E+00 -0.34105173345E+03  0.34105173345E+03  0.00000000000E+00 0. -1.
      99926    2    1    2    0    0  0.00000000000E+00  0.00000000000E+00 -0.18661521416E+03  0.49548825275E+03  0.45900258219E+03 0.  0.
      99925    2    3    3    0    0 -0.71742764608E+02  0.91691851508E+02 -0.10596156547E+03  0.30652545468E+03  0.26301251130E+03 0.  0.
         25    1    4    4    0    0 -0.27937019171E+02  0.87100222567E+02 -0.54414333517E+02  0.16424175353E+03  0.12509000000E+03 0.  0.
         25    1    3    3    0    0  0.71742764608E+02 -0.91691851508E+02 -0.80653648695E+02  0.18896279807E+03  0.12509000000E+03 0.  0.
         25    1    4    4    0    0 -0.43805745436E+02  0.45916289411E+01 -0.51547231948E+02  0.14228370114E+03  0.12509000000E+03 0.  0.
<mgrwt>
<rscale>  2 0.45900258E+03</rscale>
<asrwt>0</asrwt>
<pdfrwt beam="1">  1       21 0.22711253E-01 0.45900258E+03</pdfrwt>
<pdfrwt beam="2">  1       21 0.50154666E-01 0.45900258E+03</pdfrwt>
<totfact> 0.63545510E+04</totfact>
</mgrwt>
</event>
<event>
 7    0  0.4707675E-002  0.4480388E+03  0.7546771E-02  0.1028308E+00
         21   -1    0    0  502  501  0.00000000000E+00  0.00000000000E+00  0.16536913692E+03  0.16536913692E+03  0.00000000000E+00 0. -1.
         21   -1    0    0  501  502 -0.00000000000E+00 -0.00000000000E+00 -0.30347075880E+03  0.30347075880E+03  0.00000000000E+00 0. -1.
      99926    2    1    2    0    0  0.00000000000E+00 -0.71054273576E-14 -0.13810162188E+03  0.46883989571E+03  0.44803882627E+03 0.  0.
      99925    2    3    3    0    0  0.83912496581E+02  0.62110684715E+02 -0.65399823997E+02  0.29042435896E+03  0.26300214269E+03 0.  0.
         25    1    3    3    0    0 -0.83912496581E+02 -0.62110684715E+02 -0.72701797884E+02  0.17841553675E+03  0.12509000000E+03 0.  0.
         25    1    4    4    0    0  0.40291039394E+02  0.63068130505E+02 -0.78398944725E+01  0.14597920738E+03  0.12509000000E+03 0.  0.
         25    1    4    4    0    0  0.43621457187E+02 -0.95744578964E+00 -0.57559929524E+02  0.14444515158E+03  0.12509000000E+03 0.  0.
<mgrwt>
<rscale>  2 0.44803883E+03</rscale>
<asrwt>0</asrwt>
<pdfrwt beam="1">  1       21 0.24318991E-01 0.44803883E+03</pdfrwt>
<pdfrwt beam="2">  1       21 0.44628052E-01 0.44803883E+03</pdfrwt>
<totfact> 0.71384196E+04</totfact>
</mgrwt>
</event>
<event>
 7    0  0.4707675E-002  0.4139536E+03  0.7546771E-02  0.1039052E+00
         21   -1    0    0  502  501  0.00000000000E+00  0.00000000000E+00  0.74003771922E+03  0.74003771922E+03  0.00000000000E+00 0.  1.
         21   -1    0    0  501  502 -0.00000000000E+00 -0.00000000000E+00 -0.57888137288E+02  0.57888137288E+02  0.00000000000E+00 0.  1.
      99926    2    1    2    0    0  0.00000000000E+00  0.00000000000E+00  0.68214958193E+03  0.79792585651E+03  0.41395364517E+03 0.  0.
      99925    2    3    3    0    0 -0.95059028117E+01 -0.57196017979E+02  0.51545861904E+03  0.58160403174E+03  0.26306637020E+03 0.  0.
         25    1    3    3    0    0  0.95059028117E+01  0.57196017979E+02  0.16669096289E+03  0.21632182477E+03  0.12509000000E+03 0.  0.
         25    1    4    4    0    0  0.93869589652E+01 -0.15422097871E+02  0.32899082552E+03  0.35243216011E+03  0.12509000000E+03 0.  0.
         25    1    4    4    0    0 -0.18892861777E+02 -0.41773920109E+02  0.18646779352E+03  0.22917187163E+03  0.12509000000E+03 0.  0.
<mgrwt>
<rscale>  2 0.41395365E+03</rscale>
<asrwt>0</asrwt>
<pdfrwt beam="1">  1       21 0.10882907E+00 0.41395365E+03</pdfrwt>
<pdfrwt beam="2">  1       21 0.85129618E-02 0.41395365E+03</pdfrwt>
<totfact> 0.66968607E+04</totfact>
</mgrwt>
</event>
<event>
 6    0  0.4707675E-002  0.4530352E+03  0.7546771E-02  0.1026821E+00
         21   -1    0    0  502  501  0.00000000000E+00  0.00000000000E+00  0.54487777424E+02  0.54487777424E+02  0.00000000000E+00 0. -1.
         21   -1    0    0  501  502 -0.00000000000E+00 -0.00000000000E+00 -0.94168335899E+03  0.94168335899E+03  0.00000000000E+00 0. -1.
      99926    2    1    2    0    0  0.00000000000E+00  0.00000000000E+00 -0.88719558157E+03  0.99617113641E+03  0.45303524485E+03 0.  0.
         25    1    3    3    0    0  0.17742143130E+02  0.10595785761E+03 -0.29872546481E+03  0.34121292862E+03  0.12509000000E+03 0.  0.
         25    1    3    3    0    0 -0.54416447190E+02 -0.50901898203E+02 -0.31618347884E+03  0.34809718953E+03  0.12509000000E+03 0.  0.
         25    1    3    3    0    0  0.36674304060E+02 -0.55055959404E+02 -0.27228663791E+03  0.30686101826E+03  0.12509000000E+03 0.  0.
<mgrwt>
<rscale>  2 0.45303524E+03</rscale>
<asrwt>0</asrwt>
<pdfrwt beam="1">  1       21 0.80129087E-02 0.45303524E+03</pdfrwt>
<pdfrwt beam="2">  1       21 0.13848284E+00 0.45303524E+03</pdfrwt>
<totfact> 0.39925191E+04</totfact>
</mgrwt>
</event>
<event>
 7    0  0.4707675E-002  0.4573673E+03  0.7546771E-02  0.1025548E+00
         21   -1    0    0  502  501  0.00000000000E+00  0.00000000000E+00  0.74928065706E+02  0.74928065706E+02  0.00000000000E+00 0. -1.
         21   -1    0    0  501  502 -0.00000000000E+00 -0.00000000000E+00 -0.69795234906E+03  0.69795234906E+03  0.00000000000E+00 0. -1.
      99926    2    1    2    0    0  0.00000000000E+00 -0.71054273576E-14 -0.62302428335E+03  0.77288041476E+03  0.45736733364E+03 0.  0.
      99925    2    3    3    0    0 -0.92805548648E+02 -0.45595961792E+02 -0.30439085166E+03  0.41529597231E+03  0.26291651232E+03 0.  0.
         25    1    4    4    0    0 -0.43939806790E+02 -0.63417215635E+02 -0.15355622808E+03  0.21255463566E+03  0.12509000000E+03 0.  0.
         25    1    3    3    0    0  0.92805548648E+02  0.45595961792E+02 -0.31863343169E+03  0.35758444245E+03  0.12509000000E+03 0.  0.
         25    1    4    4    0    0 -0.48865741858E+02  0.17821253843E+02 -0.15083462358E+03  0.20274133665E+03  0.12509000000E+03 0.  0.
<mgrwt>
<rscale>  2 0.45736733E+03</rscale>
<asrwt>0</asrwt>
<pdfrwt beam="1">  1       21 0.11018833E-01 0.45736733E+03</pdfrwt>
<pdfrwt beam="2">  1       21 0.10264005E+00 0.45736733E+03</pdfrwt>
<totfact> 0.48202502E+04</totfact>
</mgrwt>
</event>
<event>
 7    0  0.4707675E-002  0.4458168E+03  0.7546771E-02  0.1028977E+00
         21   -1    0    0  502  501  0.00000000000E+00  0.00000000000E+00  0.30562349969E+03  0.30562349969E+03  0.00000000000E+00 0.  1.
         21   -1    0    0  501  502 -0.00000000000E+00 -0.00000000000E+00 -0.16257962939E+03  0.16257962939E+03  0.00000000000E+00 0.  1.
      99926    2    1    2    0    0  0.00000000000E+00  0.00000000000E+00  0.14304387030E+03  0.46820312908E+03  0.44581680234E+03 0.  0.
      99925    2    3    3    0    0 -0.19656956677E+02 -0.79497249488E+02  0.22843613554E+02  0.27636512856E+03  0.26296320082E+03 0.  0.
         25    1    3    3    0    0  0.19656956677E+02  0.79497249488E+02  0.12020025674E+03  0.19183800052E+03  0.12509000000E+03 0.  0.
         25    1    4    4    0    0 -0.16942349501E+02 -0.76657250618E+02  0.31163397998E+02  0.15093721461E+03  0.12509000000E+03 0.  0.
         25    1    4    4    0    0 -0.27146071754E+01 -0.28399988708E+01 -0.83197844443E+01  0.12542791395E+03  0.12509000000E+03 0.  0.
<mgrwt>
<rscale>  2 0.44581680E+03</rscale>
<asrwt>0</asrwt>
<pdfrwt beam="1">  1       21 0.44944632E-01 0.44581680E+03</pdfrwt>
<pdfrwt beam="2">  1       21 0.23908769E-01 0.44581680E+03</pdfrwt>
<totfact> 0.72726264E+04</totfact>
</mgrwt>
</event>
<event>
 7    0  0.4707675E-002  0.4572359E+03  0.7546771E-02  0.1025586E+00
         21   -1    0    0  502  501  0.00000000000E+00  0.00000000000E+00  0.20837103426E+04  0.20837103426E+04  0.00000000000E+00 0.  1.
         21   -1    0    0  501  502 -0.00000000000E+00 -0.00000000000E+00 -0.25083226267E+02  0.25083226267E+02  0.00000000000E+00 0.  1.
      99926    2    1    2    0    0  0.00000000000E+00  0.00000000000E+00  0.20586271163E+04  0.21087935689E+04  0.45723594783E+03 0.  0.
      99925    2    3    3    0    0  0.74636520772E+02 -0.53966021620E+02  0.16105184716E+04  0.16345238067E+04  0.26346799724E+03 0.  0.
         25    1    4    4    0    0  0.59596804603E+02 -0.28768702790E+01  0.95980188593E+03  0.96975627032E+03  0.12509000000E+03 0.  0.
         25    1    3    3    0    0 -0.74636520772E+02  0.53966021620E+02  0.44810864470E+03  0.47426976213E+03  0.12509000000E+03 0.  0.
         25    1    4    4    0    0  0.15039716169E+02 -0.51089151341E+02  0.65071658570E+03  0.66476753640E+03  0.12509000000E+03 0.  0.
<mgrwt>
<rscale>  2 0.45723595E+03</rscale>
<asrwt>0</asrwt>
<pdfrwt beam="1">  1       21 0.30642787E+00 0.45723595E+03</pdfrwt>
<pdfrwt beam="2">  1       21 0.36887112E-02 0.45723595E+03</pdfrwt>
<totfact> 0.11807310E+04</totfact>
</mgrwt>
</event>
<event>
 7    0  0.4707675E-002  0.4562315E+03  0.7546771E-02  0.1025880E+00
         21   -1    0    0  502  501  0.00000000000E+00  0.00000000000E+00  0.56679606517E+02  0.56679606517E+02  0.00000000000E+00 0. -1.
         21   -1    0    0  501  502 -0.00000000000E+00 -0.00000000000E+00 -0.91808656548E+03  0.91808656548E+03  0.00000000000E+00 0. -1.
      99926    2    1    2    0    0 -0.35527136788E-14  0.00000000000E+00 -0.86140695896E+03  0.97476617200E+03  0.45623145565E+03 0.  0.
      99925    2    3    3    0    0  0.25457192444E+02 -0.10957954971E+03 -0.58513448168E+03  0.65130097114E+03  0.26297309177E+03 0.  0.
         25    1    3    3    0    0 -0.25457192444E+02  0.10957954971E+03 -0.27627247728E+03  0.32346520086E+03  0.12509000000E+03 0.  0.
         25    1    4    4    0    0 -0.20467792687E+02 -0.45382950891E+02 -0.32974690934E+03  0.35617281632E+03  0.12509000000E+03 0.  0.
         25    1    4    4    0    0  0.45924985131E+02 -0.64196598819E+02 -0.25538757234E+03  0.29512815482E+03  0.12509000000E+03 0.  0.
<mgrwt>
<rscale>  2 0.45623146E+03</rscale>
<asrwt>0</asrwt>
<pdfrwt beam="1">  1       21 0.83352361E-02 0.45623146E+03</pdfrwt>
<pdfrwt beam="2">  1       21 0.13501273E+00 0.45623146E+03</pdfrwt>
<totfact> 0.39769617E+04</totfact>
</mgrwt>
</event>
<event>
 7    0  0.4707675E-002  0.4529606E+03  0.7546771E-02  0.1026843E+00
         21   -1    0    0  502  501  0.00000000000E+00  0.00000000000E+00  0.91476218101E+02  0.91476218101E+02  0.00000000000E+00 0.  1.
         21   -1    0    0  501  502 -0.00000000000E+00 -0.00000000000E+00 -0.56072864996E+03  0.56072864996E+03  0.00000000000E+00 0.  1.
      99926    2    1    2    0    0  0.00000000000E+00  0.00000000000E+00 -0.46925243186E+03  0.65220486806E+03  0.45296064411E+03 0.  0.
      99925    2    3    3    0    0  0.64390339928E+02 -0.30122369618E+02 -0.17249674573E+03  0.32240960069E+03  0.26294362572E+03 0.  0.
         25    1    4    4    0    0  0.12812510887E+02 -0.21676869179E+02 -0.42251887661E+02  0.13441271221E+03  0.12509000000E+03 0.  0.
         25    1    4    4    0    0  0.51577829041E+02 -0.84455004391E+01 -0.13024485807E+03  0.18799688848E+03  0.12509000000E+03 0.  0.
         25    1    3    3    0    0 -0.64390339928E+02  0.30122369618E+02 -0.29675568613E+03  0.32979526737E+03  0.12509000000E+03 0.  0.
<mgrwt>
<rscale>  2 0.45296064E+03</rscale>
<asrwt>0</asrwt>
<pdfrwt beam="1">  1       21 0.13452385E-01 0.45296064E+03</pdfrwt>
<pdfrwt beam="2">  1       21 0.82460098E-01 0.45296064E+03</pdfrwt>
<totfact> 0.56477732E+04</totfact>
</mgrwt>
</event>
<event>
 7    0  0.4707675E-002  0.4564211E+03  0.7546771E-02  0.1025824E+00
         21   -1    0    0  502  501  0.00000000000E+00  0.00000000000E+00  0.38521245835E+03  0.38521245835E+03  0.00000000000E+00 0.  1.
         21   -1    0    0  501  502 -0.00000000000E+00 -0.00000000000E+00 -0.13519827482E+03  0.13519827482E+03  0.00000000000E+00 0.  1.
      99926    2    1    2    0    0  0.00000000000E+00  0.00000000000E+00  0.25001418353E+03  0.52041073318E+03  0.45642112050E+03 0.  0.
      99925    2    3    3    0    0 -0.65927455011E+02 -0.45542828155E+02  0.25036161262E+03  0.37185701452E+03  0.26301354271E+03 0.  0.
         25    1    4    4    0    0 -0.29048611684E+02 -0.63559907512E+02  0.12891444734E+03  0.19274368087E+03  0.12509000000E+03 0.  0.
         25    1    4    4    0    0 -0.36878843327E+02  0.18017079357E+02  0.12144716528E+03  0.17911333364E+03  0.12509000000E+03 0.  0.
         25    1    3    3    0    0  0.65927455011E+02  0.45542828155E+02 -0.34742909336E+00  0.14855371866E+03  0.12509000000E+03 0.  0.
<mgrwt>
<rscale>  2 0.45642112E+03</rscale>
<asrwt>0</asrwt>
<pdfrwt beam="1">  1       21 0.56648891E-01 0.45642112E+03</pdfrwt>
<pdfrwt beam="2">  1       21 0.19882099E-01 0.45642112E+03</pdfrwt>
<totfact> 0.63144329E+04</totfact>
</mgrwt>
</event>
<event>
 7    0  0.4707675E-002  0.4498022E+03  0.7546771E-02  0.1027781E+00
         21   -1    0    0  502  501  0.00000000000E+00  0.00000000000E+00  0.30956137807E+03  0.30956137807E+03  0.00000000000E+00 0.  1.
         21   -1    0    0  501  502 -0.00000000000E+00 -0.00000000000E+00 -0.16339408950E+03  0.16339408950E+03  0.00000000000E+00 0.  1.
      99926    2    1    2    0    0  0.00000000000E+00  0.00000000000E+00  0.14616728858E+03  0.47295546757E+03  0.44980217658E+03 0.  0.
      99925    2    3    3    0    0 -0.63404780748E+02  0.87518782533E+02  0.97279554457E+02  0.30056862885E+03  0.26305604995E+03 0.  0.
         25    1    4    4    0    0 -0.45498077994E+02  0.34885862284E+02  0.88064432507E+02  0.16337059362E+03  0.12509000000E+03 0.  0.
         25    1    4    4    0    0 -0.17906702755E+02  0.52632920249E+02  0.92151219505E+01  0.13719803523E+03  0.12509000000E+03 0.  0.
         25    1    3    3    0    0  0.63404780748E+02 -0.87518782533E+02  0.48887734118E+02  0.17238683872E+03  0.12509000000E+03 0.  0.
<mgrwt>
<rscale>  2 0.44980218E+03</rscale>
<asrwt>0</asrwt>
<pdfrwt beam="1">  1       21 0.45523732E-01 0.44980218E+03</pdfrwt>
<pdfrwt beam="2">  1       21 0.24028543E-01 0.44980218E+03</pdfrwt>
<totfact> 0.70062416E+04</totfact>
</mgrwt>
</event>
<event>
 7    0  0.4707675E-002  0.4564434E+03  0.7546771E-02  0.1025818E+00
         21   -1    0    0  502  501  0.00000000000E+00  0.00000000000E+00  0.25611918080E+03  0.25611918080E+03  0.00000000000E+00 0. -1.
         21   -1    0    0  501  502 -0.00000000000E+00 -0.00000000000E+00 -0.20336292904E+03  0.20336292904E+03  0.00000000000E+00 0. -1.
      99926    2    1    2    0    0  0.00000000000E+00  0.71054273576E-14  0.52756251752E+02  0.45948210984E+03  0.45644341069E+03 0.  0.
      99925    2    3    3    0    0 -0.74628975877E+02  0.60860011327E+02  0.95460403653E+02  0.29594441477E+03  0.26305319414E+03 0.  0.
         25    1    4    4    0    0 -0.17519375219E+02  0.29559222349E+01  0.70446929163E+02  0.14465802402E+03  0.12509000000E+03 0.  0.
         25    1    3    3    0    0  0.74628975877E+02 -0.60860011327E+02 -0.42704151901E+02  0.16353769507E+03  0.12509000000E+03 0.  0.
         25    1    4    4    0    0 -0.57109600658E+02  0.57904089092E+02  0.25013474491E+02  0.15128639075E+03  0.12509000000E+03 0.  0.
<mgrwt>
<rscale>  2 0.45644341E+03</rscale>
<asrwt>0</asrwt>
<pdfrwt beam="1">  1       21 0.37664586E-01 0.45644341E+03</pdfrwt>
<pdfrwt beam="2">  1       21 0.29906313E-01 0.45644341E+03</pdfrwt>
<totfact> 0.67438603E+04</totfact>
</mgrwt>
</event>
<event>
 7    0  0.4707675E-002  0.4532956E+03  0.7546771E-02  0.1026744E+00
         21   -1    0    0  502  501  0.00000000000E+00  0.00000000000E+00  0.80978062979E+02  0.80978062979E+02  0.00000000000E+00 0. -1.
         21   -1    0    0  501  502 -0.00000000000E+00 -0.00000000000E+00 -0.63435986441E+03  0.63435986441E+03  0.00000000000E+00 0. -1.
      99926    2    1    2    0    0  0.00000000000E+00  0.14210854715E-13 -0.55338180144E+03  0.71533792739E+03  0.45329563444E+03 0.  0.
      99925    2    3    3    0    0 -0.49607752403E+02 -0.96589875449E+02 -0.30832404953E+03  0.41954857159E+03  0.26299572481E+03 0.  0.
         25    1    4    4    0    0 -0.10489288260E+02 -0.28800781704E+02 -0.94450186902E+02  0.15971179074E+03  0.12509000000E+03 0.  0.
         25    1    3    3    0    0  0.49607752403E+02  0.96589875449E+02 -0.24505775191E+03  0.29578935581E+03  0.12509000000E+03 0.  0.
         25    1    4    4    0    0 -0.39118464143E+02 -0.67789093745E+02 -0.21387386263E+03  0.25983678085E+03  0.12509000000E+03 0.  0.
<mgrwt>
<rscale>  2 0.45329563E+03</rscale>
<asrwt>0</asrwt>
<pdfrwt beam="1">  1       21 0.11908539E-01 0.45329563E+03</pdfrwt>
<pdfrwt beam="2">  1       21 0.93288215E-01 0.45329563E+03</pdfrwt>
<totfact> 0.52782257E+04</totfact>
</mgrwt>
</event>
<event>
 7    0  0.4707675E-002  0.4560848E+03  0.7546771E-02  0.1025923E+00
         21   -1    0    0  502  501  0.00000000000E+00  0.00000000000E+00  0.39152586471E+03  0.39152586471E+03  0.00000000000E+00 0.  1.
         21   -1    0    0  501  502 -0.00000000000E+00 -0.00000000000E+00 -0.13282222480E+03  0.13282222480E+03  0.00000000000E+00 0.  1.
      99926    2    1    2    0    0  0.00000000000E+00  0.00000000000E+00  0.25870363991E+03  0.52434808950E+03  0.45608480095E+03 0.  0.
      99925    2    3    3    0    0  0.34961969510E+02  0.56845330764E+02  0.26920049436E+03  0.38218120519E+03  0.26294455023E+03 0.  0.
         25    1    3    3    0    0 -0.34961969510E+02 -0.56845330764E+02 -0.10496854448E+02  0.14216688431E+03  0.12509000000E+03 0.  0.
         25    1    4    4    0    0  0.49798277388E+02  0.27630545412E+02  0.17331791351E+03  0.22120109112E+03  0.12509000000E+03 0.  0.
         25    1    4    4    0    0 -0.14836307878E+02  0.29214785352E+02  0.95882580850E+02  0.16098011407E+03  0.12509000000E+03 0.  0.
<mgrwt>
<rscale>  2 0.45608480E+03</rscale>
<asrwt>0</asrwt>
<pdfrwt beam="1">  1       21 0.57577333E-01 0.45608480E+03</pdfrwt>
<pdfrwt beam="2">  1       21 0.19532680E-01 0.45608480E+03</pdfrwt>
<totfact> 0.63046780E+04</totfact>
</mgrwt>
</event>
<event>
 7    0  0.4707675E-002  0.4229471E+03  0.7546771E-02  0.1036111E+00
         21   -1    0    0  502  501  0.00000000000E+00  0.00000000000E+00  0.78528623359E+02  0.78528623359E+02  0.00000000000E+00 0.  1.
         21   -1    0    0  501  502 -0.00000000000E+00 -0.00000000000E+00 -0.56948741493E+03  0.56948741493E+03  0.00000000000E+00 0.  1.
      99926    2    1    2    0    0 -0.71054273576E-14  0.44408920985E-14 -0.49095879157E+03  0.64801603829E+03  0.42294710173E+03 0.  0.
      99925    2    3    3    0    0  0.52347787447E+02  0.56853065190E+01 -0.22801091238E+03  0.35210776056E+03  0.26309368164E+03 0.  0.
         25    1    4    4    0    0  0.11573977449E+02  0.39722824503E+02 -0.99936176807E+02  0.16536809630E+03  0.12509000000E+03 0.  0.
         25    1    3    3    0    0 -0.52347787447E+02 -0.56853065190E+01 -0.26294787919E+03  0.29590827773E+03  0.12509000000E+03 0.  0.
         25    1    4    4    0    0  0.40773809999E+02 -0.34037517984E+02 -0.12807473558E+03  0.18673966425E+03  0.12509000000E+03 0.  0.
<mgrwt>
<rscale>  2 0.42294710E+03</rscale>
<asrwt>0</asrwt>
<pdfrwt beam="1">  1       21 0.11548327E-01 0.42294710E+03</pdfrwt>
<pdfrwt beam="2">  1       21 0.83748148E-01 0.42294710E+03</pdfrwt>
<totfact> 0.72463434E+04</totfact>
</mgrwt>
</event>
<event>
 7    0  0.4707675E-002  0.4549895E+03  0.7546771E-02  0.1026244E+00
         21   -1    0    0  502  501  0.00000000000E+00  0.00000000000E+00  0.31816526480E+03  0.31816526480E+03  0.00000000000E+00 0. -1.
         21   -1    0    0  501  502 -0.00000000000E+00 -0.00000000000E+00 -0.16266345362E+03  0.16266345362E+03  0.00000000000E+00 0. -1.
      99926    2    1    2    0    0  0.00000000000E+00  0.00000000000E+00  0.15550181118E+03  0.48082871842E+03  0.45498949787E+03 0.  0.
      99925    2    3    3    0    0  0.11013233838E+03  0.15320196843E+02  0.12021054837E+03  0.30978246234E+03  0.26296531643E+03 0.  0.
         25    1    4    4    0    0  0.66111233000E+02 -0.27844506020E+02  0.78698425081E+02  0.16427708865E+03  0.12509000000E+03 0.  0.
         25    1    4    4    0    0  0.44021105384E+02  0.43164702863E+02  0.41512123285E+02  0.14550537369E+03  0.12509000000E+03 0.  0.
         25    1    3    3    0    0 -0.11013233838E+03 -0.15320196843E+02  0.35291262814E+02  0.17104625608E+03  0.12509000000E+03 0.  0.
<mgrwt>
<rscale>  2 0.45498950E+03</rscale>
<asrwt>0</asrwt>
<pdfrwt beam="1">  1       21 0.46789010E-01 0.45498950E+03</pdfrwt>
<pdfrwt beam="2">  1       21 0.23921096E-01 0.45498950E+03</pdfrwt>
<totfact> 0.66645379E+04</totfact>
</mgrwt>
</event>
<event>
 7    0  0.4707675E-002  0.4548640E+03  0.7546771E-02  0.1026281E+00
         21   -1    0    0  502  501  0.00000000000E+00  0.00000000000E+00  0.28167304413E+04  0.28167304413E+04  0.00000000000E+00 0.  1.
         21   -1    0    0  501  502 -0.00000000000E+00 -0.00000000000E+00 -0.18363598798E+02  0.18363598798E+02  0.00000000000E+00 0.  1.
      99926    2    1    2    0    0  0.00000000000E+00  0.00000000000E+00  0.27983668425E+04  0.28350940401E+04  0.45486396975E+03 0.  0.
      99925    2    3    3    0    0 -0.78410395148E+02  0.56369423009E+02  0.21256704314E+04  0.21440848712E+04  0.26324788694E+03 0.  0.
         25    1    4    4    0    0 -0.51056668030E+02  0.61887599594E+02  0.96786117870E+03  0.97920356804E+03  0.12509000000E+03 0.  0.
         25    1    3    3    0    0  0.78410395148E+02 -0.56369423009E+02  0.67269641108E+03  0.69100916889E+03  0.12509000000E+03 0.  0.
         25    1    4    4    0    0 -0.27353727118E+02 -0.55181765856E+01  0.11578092527E+04  0.11648813031E+04  0.12509000000E+03 0.  0.
<mgrwt>
<rscale>  2 0.45486397E+03</rscale>
<asrwt>0</asrwt>
<pdfrwt beam="1">  1       21 0.41422477E+00 0.45486397E+03</pdfrwt>
<pdfrwt beam="2">  1       21 0.27005312E-02 0.45486397E+03</pdfrwt>
<totfact> 0.42796668E+03</totfact>
</mgrwt>
</event>
<event>
 7    0  0.4707675E-002  0.4549715E+03  0.7546771E-02  0.1026250E+00
         21   -1    0    0  502  501  0.00000000000E+00  0.00000000000E+00  0.22057208210E+03  0.22057208210E+03  0.00000000000E+00 0. -1.
         21   -1    0    0  501  502 -0.00000000000E+00 -0.00000000000E+00 -0.23461617247E+03  0.23461617247E+03  0.00000000000E+00 0. -1.
      99926    2    1    2    0    0  0.00000000000E+00  0.00000000000E+00 -0.14044090372E+02  0.45518825457E+03  0.45497154925E+03 0.  0.
      99925    2    3    3    0    0 -0.52172819379E+02 -0.57225152045E+02 -0.91345519297E+02  0.28899637714E+03  0.26301745379E+03 0.  0.
         25    1    4    4    0    0  0.10879212512E+02 -0.27854335343E+02 -0.62474367891E+02  0.14298523003E+03  0.12509000000E+03 0.  0.
         25    1    3    3    0    0  0.52172819379E+02  0.57225152045E+02  0.77301428925E+02  0.16619187743E+03  0.12509000000E+03 0.  0.
         25    1    4    4    0    0 -0.63052031892E+02 -0.29370816702E+02 -0.28871151405E+02  0.14601114712E+03  0.12509000000E+03 0.  0.
<mgrwt>
<rscale>  2 0.45497155E+03</rscale>
<asrwt>0</asrwt>
<pdfrwt beam="1">  1       21 0.32437071E-01 0.45497155E+03</pdfrwt>
<pdfrwt beam="2">  1       21 0.34502378E-01 0.45497155E+03</pdfrwt>
<totfact> 0.68547574E+04</totfact>
</mgrwt>
</event>
<event>
 7    0  0.4707675E-002  0.4548291E+03  0.7546771E-02  0.1026292E+00
         21   -1    0    0  502  501  0.00000000000E+00  0.00000000000E+00  0.16975218840E+03  0.16975218840E+03  0.00000000000E+00 0.  1.
         21   -1    0    0  501  502 -0.00000000000E+00 -0.00000000000E+00 -0.30466404734E+03  0.30466404734E+03  0.00000000000E+00 0.  1.
      99926    2    1    2    0    0  0.00000000000E+00 -0.14210854715E-13 -0.13491185894E+03  0.47441623574E+03  0.45482914930E+03 0.  0.
      99925    2    3    3    0    0  0.34148438618E+02  0.10727066612E+03 -0.96048460440E+02  0.30169975271E+03  0.26291504780E+03 0.  0.
         25    1    4    4    0    0  0.70480826236E+01  0.40098604737E+02 -0.85234385814E+02  0.15674814894E+03  0.12509000000E+03 0.  0.
         25    1    3    3    0    0 -0.34148438618E+02 -0.10727066612E+03 -0.38863398500E+02  0.17271648304E+03  0.12509000000E+03 0.  0.
         25    1    4    4    0    0  0.27100355995E+02  0.67172061382E+02 -0.10814074626E+02  0.14495160377E+03  0.12509000000E+03 0.  0.
<mgrwt>
<rscale>  2 0.45482915E+03</rscale>
<asrwt>0</asrwt>
<pdfrwt beam="1">  1       21 0.24963557E-01 0.45482915E+03</pdfrwt>
<pdfrwt beam="2">  1       21 0.44803536E-01 0.45482915E+03</pdfrwt>
<totfact> 0.67199933E+04</totfact>
</mgrwt>
</event>
<event>
 7    0  0.4707675E-002  0.4580381E+03  0.7546771E-02  0.1025352E+00
         21   -1    0    0  502  501  0.00000000000E+00  0.00000000000E+00  0.68707996150E+03  0.68707996150E+03  0.00000000000E+00 0.  1.
         21   -1    0    0  501  502 -0.00000000000E+00 -0.00000000000E+00 -0.76337155595E+02  0.76337155595E+02  0.00000000000E+00 0.  1.
      99926    2    1    2    0    0 -0.71054273576E-14  0.00000000000E+00  0.61074280590E+03  0.76341711709E+03  0.45803812037E+03 0.  0.
      99925    2    3    3    0    0  0.37079818575E+02  0.72270835188E+02  0.24568161360E+03  0.36906300111E+03  0.26315405558E+03 0.  0.
         25    1    4    4    0    0  0.25813997189E+02 -0.48549611871E+01  0.10709452335E+03  0.16675334518E+03  0.12509000000E+03 0.  0.
         25    1    4    4    0    0  0.11265821386E+02  0.77125796375E+02  0.13858709025E+03  0.20230965593E+03  0.12509000000E+03 0.  0.
         25    1    3    3    0    0 -0.37079818575E+02 -0.72270835188E+02  0.36506119230E+03  0.39435411598E+03  0.12509000000E+03 0.  0.
<mgrwt>
<rscale>  2 0.45803812E+03</rscale>
<asrwt>0</asrwt>
<pdfrwt beam="1">  1       21 0.10104117E+00 0.45803812E+03</pdfrwt>
<pdfrwt beam="2">  1       21 0.11226053E-01 0.45803812E+03</pdfrwt>
<totfact> 0.48419644E+04</totfact>
</mgrwt>
</event>
<event>
 7    0  0.4707675E-002  0.4569435E+03  0.7546771E-02  0.1025671E+00
         21   -1    0    0  502  501  0.00000000000E+00  0.00000000000E+00  0.12542233287E+03  0.12542233287E+03  0.00000000000E+00 0. -1.
         21   -1    0    0  501  502 -0.00000000000E+00 -0.00000000000E+00 -0.41618849475E+03  0.41618849475E+03  0.00000000000E+00 0. -1.
      99926    2    1    2    0    0  0.00000000000E+00  0.00000000000E+00 -0.29076616188E+03  0.54161082762E+03  0.45694346225E+03 0.  0.
      99925    2    3    3    0    0 -0.44281362231E+02 -0.71512653041E+02 -0.27550469998E+03  0.39010069956E+03  0.26306048258E+03 0.  0.
         25    1    4    4    0    0  0.10158811809E+02 -0.59812561498E+02 -0.13082986421E+03  0.19090496442E+03  0.12509000000E+03 0.  0.
         25    1    4    4    0    0 -0.54440174040E+02 -0.11700091542E+02 -0.14467483577E+03  0.19919573514E+03  0.12509000000E+03 0.  0.
         25    1    3    3    0    0  0.44281362231E+02  0.71512653041E+02 -0.15261461901E+02  0.15151012806E+03  0.12509000000E+03 0.  0.
<mgrwt>
<rscale>  2 0.45694346E+03</rscale>
<asrwt>0</asrwt>
<pdfrwt beam="1">  1       21 0.18444460E-01 0.45694346E+03</pdfrwt>
<pdfrwt beam="2">  1       21 0.61204192E-01 0.45694346E+03</pdfrwt>
<totfact> 0.61473381E+04</totfact>
</mgrwt>
</event>
<event>
 7    0  0.4707675E-002  0.4577034E+03  0.7546771E-02  0.1025449E+00
         21   -1    0    0  502  501  0.00000000000E+00  0.00000000000E+00  0.49348302477E+03  0.49348302477E+03  0.00000000000E+00 0. -1.
         21   -1    0    0  501  502 -0.00000000000E+00 -0.00000000000E+00 -0.10612950219E+03  0.10612950219E+03  0.00000000000E+00 0. -1.
      99926    2    1    2    0    0  0.14210854715E-13  0.00000000000E+00  0.38735352257E+03  0.59961252696E+03  0.45770343131E+03 0.  0.
      99925    2    3    3    0    0 -0.79033754019E+02 -0.71372820017E+02  0.30063344825E+03  0.41384844781E+03  0.26372268358E+03 0.  0.
         25    1    4    4    0    0 -0.76259858808E+02 -0.17569270803E+02  0.17038935895E+03  0.22539806362E+03  0.12509000000E+03 0.  0.
         25    1    4    4    0    0 -0.27738952107E+01 -0.53803549214E+02  0.13024408930E+03  0.18845038419E+03  0.12509000000E+03 0.  0.
         25    1    3    3    0    0  0.79033754019E+02  0.71372820017E+02  0.86720074324E+02  0.18576407915E+03  0.12509000000E+03 0.  0.
<mgrwt>
<rscale>  2 0.45770343E+03</rscale>
<asrwt>0</asrwt>
<pdfrwt beam="1">  1       21 0.72571032E-01 0.45770343E+03</pdfrwt>
<pdfrwt beam="2">  1       21 0.15607280E-01 0.45770343E+03</pdfrwt>
<totfact> 0.57464745E+04</totfact>
</mgrwt>
</event>
<event>
 7    0  0.4707675E-002  0.4534992E+03  0.7546771E-02  0.1026684E+00
         21   -1    0    0  502  501  0.00000000000E+00  0.00000000000E+00  0.24112658992E+04  0.24112658992E+04  0.00000000000E+00 0. -1.
         21   -1    0    0  501  502 -0.00000000000E+00 -0.00000000000E+00 -0.21322981049E+02  0.21322981049E+02  0.00000000000E+00 0. -1.
      99926    2    1    2    0    0  0.00000000000E+00  0.00000000000E+00  0.23899429181E+04  0.24325888802E+04  0.45349918224E+03 0.  0.
      99925    2    3    3    0    0  0.33251822451E+02  0.47793773085E+02  0.99498722474E+03  0.10308261246E+04  0.26308362420E+03 0.  0.
         25    1    3    3    0    0 -0.33251822451E+02 -0.47793773085E+02  0.13949556934E+04  0.14017627556E+04  0.12509000000E+03 0.  0.
         25    1    4    4    0    0 -0.34525088952E+01  0.15588249917E+02  0.61538180354E+03  0.62816971081E+03  0.12509000000E+03 0.  0.
         25    1    4    4    0    0  0.36704331346E+02  0.32205523168E+02  0.37960542120E+03  0.40265641379E+03  0.12509000000E+03 0.  0.
<mgrwt>
<rscale>  2 0.45349918E+03</rscale>
<asrwt>0</asrwt>
<pdfrwt beam="1">  1       21 0.35459774E+00 0.45349918E+03</pdfrwt>
<pdfrwt beam="2">  1       21 0.31357342E-02 0.45349918E+03</pdfrwt>
<totfact> 0.79385601E+03</totfact>
</mgrwt>
</event>
<event>
 7    0  0.4707675E-002  0.4589835E+03  0.7546771E-02  0.1025076E+00
         21   -1    0    0  502  501  0.00000000000E+00  0.00000000000E+00  0.60469532426E+02  0.60469532426E+02  0.00000000000E+00 0. -1.
         21   -1    0    0  501  502 -0.00000000000E+00 -0.00000000000E+00 -0.87095873017E+03  0.87095873017E+03  0.00000000000E+00 0. -1.
      99926    2    1    2    0    0 -0.71054273576E-14 -0.35527136788E-14 -0.81048919774E+03  0.93142826260E+03  0.45898351681E+03 0.  0.
      99925    2    3    3    0    0  0.62264173458E+02  0.15009611016E+02 -0.70724692779E+03  0.75704767272E+03  0.26233727564E+03 0.  0.
         25    1    3    3    0    0 -0.62264173458E+02 -0.15009611016E+02 -0.10324226996E+03  0.17438058987E+03  0.12509000000E+03 0.  0.
         25    1    4    4    0    0  0.42173764411E+02  0.29316497703E+01 -0.46527174772E+03  0.48364504371E+03  0.12509000000E+03 0.  0.
         25    1    4    4    0    0  0.20090409046E+02  0.12077961246E+02 -0.24197518006E+03  0.27340262901E+03  0.12509000000E+03 0.  0.
<mgrwt>
<rscale>  2 0.45898352E+03</rscale>
<asrwt>0</asrwt>
<pdfrwt beam="1">  1       21 0.88925779E-02 0.45898352E+03</pdfrwt>
<pdfrwt beam="2">  1       21 0.12808217E+00 0.45898352E+03</pdfrwt>
<totfact> 0.40621649E+04</totfact>
</mgrwt>
</event>
<event>
 7    0  0.4707675E-002  0.4516578E+03  0.7546771E-02  0.1027229E+00
         21   -1    0    0  502  501  0.00000000000E+00  0.00000000000E+00  0.38828183404E+02  0.38828183404E+02  0.00000000000E+00 0.  1.
         21   -1    0    0  501  502 -0.00000000000E+00 -0.00000000000E+00 -0.13134449462E+04  0.13134449462E+04  0.00000000000E+00 0.  1.
      99926    2    1    2    0    0  0.00000000000E+00  0.00000000000E+00 -0.12746167628E+04  0.13522731296E+04  0.45165775212E+03 0.  0.
      99925    2    3    3    0    0 -0.10787489954E+03 -0.30905897073E+01 -0.74384609182E+03  0.79638504828E+03  0.26320256668E+03 0.  0.
         25    1    4    4    0    0 -0.11820267654E+02 -0.17982188051E+00 -0.36454878622E+03  0.38559444589E+03  0.12509000000E+03 0.  0.
         25    1    4    4    0    0 -0.96054631886E+02 -0.29107678267E+01 -0.37929730560E+03  0.41079060239E+03  0.12509000000E+03 0.  0.
         25    1    3    3    0    0  0.10787489954E+03  0.30905897073E+01 -0.53077067096E+03  0.55588808132E+03  0.12509000000E+03 0.  0.
<mgrwt>
<rscale>  2 0.45165775E+03</rscale>
<asrwt>0</asrwt>
<pdfrwt beam="1">  1       21 0.57100273E-02 0.45165775E+03</pdfrwt>
<pdfrwt beam="2">  1       21 0.19315366E+00 0.45165775E+03</pdfrwt>
<totfact> 0.28361766E+04</totfact>
</mgrwt>
</event>
<event>
 7    0  0.4707675E-002  0.4587297E+03  0.7546771E-02  0.1025150E+00
         21   -1    0    0  502  501  0.00000000000E+00  0.00000000000E+00  0.46339217444E+02  0.46339217444E+02  0.00000000000E+00 0. -1.
         21   -1    0    0  501  502 -0.00000000000E+00 -0.00000000000E+00 -0.11352853369E+04  0.11352853369E+04  0.00000000000E+00 0. -1.
      99926    2    1    2    0    0  0.00000000000E+00 -0.71054273576E-14 -0.10889461195E+04  0.11816245544E+04  0.45872969857E+03 0.  0.
      99925    2    3    3    0    0 -0.61601012385E+01  0.54797159334E+02 -0.41806225862E+03  0.49695431375E+03  0.26295790986E+03 0.  0.
         25    1    4    4    0    0 -0.29548957017E+02 -0.32622006686E+01 -0.19004651665E+03  0.22945363237E+03  0.12509000000E+03 0.  0.
         25    1    3    3    0    0  0.61601012385E+01 -0.54797159334E+02 -0.67088386087E+03  0.68467024062E+03  0.12509000000E+03 0.  0.
         25    1    4    4    0    0  0.23388855778E+02  0.58059360003E+02 -0.22801574196E+03  0.26750068138E+03  0.12509000000E+03 0.  0.
<mgrwt>
<rscale>  2 0.45872970E+03</rscale>
<asrwt>0</asrwt>
<pdfrwt beam="1">  1       21 0.68145911E-02 0.45872970E+03</pdfrwt>
<pdfrwt beam="2">  1       21 0.16695372E+00 0.45872970E+03</pdfrwt>
<totfact> 0.31809386E+04</totfact>
</mgrwt>
</event>
<event>
 7    0  0.4707675E-002  0.4435067E+03  0.7546771E-02  0.1029676E+00
         21   -1    0    0  502  501  0.00000000000E+00  0.00000000000E+00  0.12640540001E+04  0.12640540001E+04  0.00000000000E+00 0.  1.
         21   -1    0    0  501  502 -0.00000000000E+00 -0.00000000000E+00 -0.38902246697E+02  0.38902246697E+02  0.00000000000E+00 0.  1.
      99926    2    1    2    0    0 -0.44408920985E-15  0.00000000000E+00  0.12251517534E+04  0.13029562467E+04  0.44350666533E+03 0.  0.
      99925    2    3    3    0    0 -0.30594950517E+01  0.10196861695E+03  0.78828394927E+03  0.83722247548E+03  0.26295043150E+03 0.  0.
         25    1    4    4    0    0 -0.29444186581E+01  0.76088089710E+02  0.51749284176E+03  0.53781448137E+03  0.12509000000E+03 0.  0.
         25    1    4    4    0    0 -0.11507639350E+00  0.25880527236E+02  0.27079110751E+03  0.29940799411E+03  0.12509000000E+03 0.  0.
         25    1    3    3    0    0  0.30594950517E+01 -0.10196861695E+03  0.43686780409E+03  0.46573377127E+03  0.12509000000E+03 0.  0.
<mgrwt>
<rscale>  2 0.44350667E+03</rscale>
<asrwt>0</asrwt>
<pdfrwt beam="1">  1       21 0.18589027E+00 0.44350667E+03</pdfrwt>
<pdfrwt beam="2">  1       21 0.57209195E-02 0.44350667E+03</pdfrwt>
<totfact> 0.31775640E+04</totfact>
</mgrwt>
</event>
<event>
 6    0  0.4707675E-002  0.4558038E+03  0.7546771E-02  0.1026005E+00
         21   -1    0    0  502  501  0.00000000000E+00  0.00000000000E+00  0.68190046201E+02  0.68190046201E+02  0.00000000000E+00 0. -1.
         21   -1    0    0  501  502 -0.00000000000E+00 -0.00000000000E+00 -0.76168423353E+03  0.76168423353E+03  0.00000000000E+00 0. -1.
      99926    2    1    2    0    0  0.14210854715E-13  0.00000000000E+00 -0.69349418733E+03  0.82987427973E+03  0.45580383094E+03 0.  0.
         25    1    3    3    0    0 -0.31527140195E+02  0.85615869787E+01 -0.25487295907E+03  0.28578837399E+03  0.12509000000E+03 0.  0.
         25    1    3    3    0    0  0.11357562946E+03 -0.22171789283E+02 -0.25748385544E+03  0.30876602106E+03  0.12509000000E+03 0.  0.
         25    1    3    3    0    0 -0.82048489265E+02  0.13610202305E+02 -0.18113737282E+03  0.23531988468E+03  0.12509000000E+03 0.  0.
<mgrwt>
<rscale>  2 0.45580383E+03</rscale>
<asrwt>0</asrwt>
<pdfrwt beam="1">  1       21 0.10027948E-01 0.45580383E+03</pdfrwt>
<pdfrwt beam="2">  1       21 0.11201239E+00 0.45580383E+03</pdfrwt>
<totfact> 0.46062329E+04</totfact>
</mgrwt>
</event>
<event>
 7    0  0.4707675E-002  0.4593802E+03  0.7546771E-02  0.1024961E+00
         21   -1    0    0  502  501  0.00000000000E+00  0.00000000000E+00  0.88260762377E+03  0.88260762377E+03  0.00000000000E+00 0. -1.
         21   -1    0    0  501  502 -0.00000000000E+00 -0.00000000000E+00 -0.59774626972E+02  0.59774626972E+02  0.00000000000E+00 0. -1.
      99926    2    1    2    0    0  0.00000000000E+00 -0.71054273576E-14  0.82283299680E+03  0.94238225075E+03  0.45938019754E+03 0.  0.
      99925    2    3    3    0    0 -0.81082416430E+02 -0.51137482332E+02  0.65425313939E+03  0.71160946903E+03  0.26296666265E+03 0.  0.
         25    1    4    4    0    0 -0.69347358869E+02 -0.51054578972E+02  0.40370682781E+03  0.43132625371E+03  0.12509000000E+03 0.  0.
         25    1    4    4    0    0 -0.11735057561E+02 -0.82903360161E-01  0.25054631158E+03  0.28028321533E+03  0.12509000000E+03 0.  0.
         25    1    3    3    0    0  0.81082416430E+02  0.51137482332E+02  0.16857985742E+03  0.23077278171E+03  0.12509000000E+03 0.  0.
<mgrwt>
<rscale>  2 0.45938020E+03</rscale>
<asrwt>0</asrwt>
<pdfrwt beam="1">  1       21 0.12979523E+00 0.45938020E+03</pdfrwt>
<pdfrwt beam="2">  1       21 0.87903869E-02 0.45938020E+03</pdfrwt>
<totfact> 0.40060806E+04</totfact>
</mgrwt>
</event>
<event>
 7    0  0.4707675E-002  0.4625122E+03  0.7546771E-02  0.1024055E+00
         21   -1    0    0  502  501  0.00000000000E+00  0.00000000000E+00  0.20134475413E+03  0.20134475413E+03  0.00000000000E+00 0.  1.
         21   -1    0    0  501  502 -0.00000000000E+00 -0.00000000000E+00 -0.26561104069E+03  0.26561104069E+03  0.00000000000E+00 0.  1.
      99926    2    1    2    0    0 -0.35527136788E-14  0.14210854715E-13 -0.64266286559E+02  0.46695579483E+03  0.46251222550E+03 0.  0.
      99925    2    3    3    0    0  0.26609978270E+02 -0.11614086126E+03 -0.52813196310E+02  0.29382153486E+03  0.26333452118E+03 0.  0.
         25    1    4    4    0    0 -0.84044661812E+01 -0.52958624228E+02  0.96620434859E+01  0.13644088140E+03  0.12509000000E+03 0.  0.
         25    1    3    3    0    0 -0.26609978270E+02  0.11614086126E+03 -0.11453090249E+02  0.17313425997E+03  0.12509000000E+03 0.  0.
         25    1    4    4    0    0  0.35014444451E+02 -0.63182237035E+02 -0.62475239796E+02  0.15738065346E+03  0.12509000000E+03 0.  0.
<mgrwt>
<rscale>  2 0.46251223E+03</rscale>
<asrwt>0</asrwt>
<pdfrwt beam="1">  1       21 0.29609523E-01 0.46251223E+03</pdfrwt>
<pdfrwt beam="2">  1       21 0.39060447E-01 0.46251223E+03</pdfrwt>
<totfact> 0.63769766E+04</totfact>
</mgrwt>
</event>
<event>
 7    0  0.4707675E-002  0.4442446E+03  0.7546771E-02  0.1029452E+00
         21   -1    0    0  502  501  0.00000000000E+00  0.00000000000E+00  0.16626507449E+02  0.16626507449E+02  0.00000000000E+00 0. -1.
         21   -1    0    0  501  502 -0.00000000000E+00 -0.00000000000E+00 -0.29674491903E+04  0.29674491903E+04  0.00000000000E+00 0. -1.
      99926    2    1    2    0    0  0.00000000000E+00  0.00000000000E+00 -0.29508226828E+04  0.29840756977E+04  0.44424459959E+03 0.  0.
      99925    2    3    3    0    0 -0.93278365128E+02 -0.41746867576E+02 -0.19494212788E+04  0.19697306211E+04  0.26296719030E+03 0.  0.
         25    1    4    4    0    0 -0.99087460459E+01 -0.28357942079E+02 -0.10303835094E+04  0.10383833785E+04  0.12509000000E+03 0.  0.
         25    1    3    3    0    0  0.93278365128E+02  0.41746867576E+02 -0.10014014040E+04  0.10143450766E+04  0.12509000000E+03 0.  0.
         25    1    4    4    0    0 -0.83369619082E+02 -0.13388925497E+02 -0.91903776932E+03  0.93134724257E+03  0.12509000000E+03 0.  0.
<mgrwt>
<rscale>  2 0.44424460E+03</rscale>
<asrwt>0</asrwt>
<pdfrwt beam="1">  1       21 0.24450773E-02 0.44424460E+03</pdfrwt>
<pdfrwt beam="2">  1       21 0.43638912E+00 0.44424460E+03</pdfrwt>
<totfact> 0.36313540E+03</totfact>
</mgrwt>
</event>
<event>
 7    0  0.4707675E-002  0.4521359E+03  0.7546771E-02  0.1027087E+00
         21   -1    0    0  502  501  0.00000000000E+00  0.00000000000E+00  0.27590477325E+03  0.27590477325E+03  0.00000000000E+00 0.  1.
         21   -1    0    0  501  502 -0.00000000000E+00 -0.00000000000E+00 -0.18523314406E+03  0.18523314406E+03  0.00000000000E+00 0.  1.
      99926    2    1    2    0    0  0.00000000000E+00  0.00000000000E+00  0.90671629184E+02  0.46113791731E+03  0.45213585839E+03 0.  0.
      99925    2    3    3    0    0 -0.12013663626E+02 -0.44007315433E+02 -0.45205299985E+02  0.27089854203E+03  0.26317585186E+03 0.  0.
         25    1    4    4    0    0 -0.13917880443E+01  0.17319766116E+02 -0.33681851919E+02  0.13070534274E+03  0.12509000000E+03 0.  0.
         25    1    4    4    0    0 -0.10621875582E+02 -0.61327081549E+02 -0.11523448066E+02  0.14019319929E+03  0.12509000000E+03 0.  0.
         25    1    3    3    0    0  0.12013663626E+02  0.44007315433E+02  0.13587692917E+03  0.19023937528E+03  0.12509000000E+03 0.  0.
<mgrwt>
<rscale>  2 0.45213586E+03</rscale>
<asrwt>0</asrwt>
<pdfrwt beam="1">  1       21 0.40574232E-01 0.45213586E+03</pdfrwt>
<pdfrwt beam="2">  1       21 0.27240168E-01 0.45213586E+03</pdfrwt>
<totfact> 0.69670673E+04</totfact>
</mgrwt>
</event>
<event>
 7    0  0.4707675E-002  0.4593280E+03  0.7546771E-02  0.1024976E+00
         21   -1    0    0  502  501  0.00000000000E+00  0.00000000000E+00  0.20415137321E+03  0.20415137321E+03  0.00000000000E+00 0. -1.
         21   -1    0    0  501  502 -0.00000000000E+00 -0.00000000000E+00 -0.25836489849E+03  0.25836489849E+03  0.00000000000E+00 0. -1.
      99926    2    1    2    0    0  0.00000000000E+00  0.00000000000E+00 -0.54213525277E+02  0.46251627170E+03  0.45932798223E+03 0.  0.
      99925    2    3    3    0    0  0.76355321625E+02  0.67634203297E+02 -0.92207316143E+02  0.29669842935E+03  0.26291300507E+03 0.  0.
         25    1    3    3    0    0 -0.76355321625E+02 -0.67634203297E+02  0.37993790865E+02  0.16581784235E+03  0.12509000000E+03 0.  0.
         25    1    4    4    0    0  0.33654990759E+02  0.68891806789E+02 -0.26528821920E+02  0.14909737066E+03  0.12509000000E+03 0.  0.
         25    1    4    4    0    0  0.42700330866E+02 -0.12576034927E+01 -0.65678494223E+02  0.14760105869E+03  0.12509000000E+03 0.  0.
<mgrwt>
<rscale>  2 0.45932798E+03</rscale>
<asrwt>0</asrwt>
<pdfrwt beam="1">  1       21 0.30022261E-01 0.45932798E+03</pdfrwt>
<pdfrwt beam="2">  1       21 0.37994837E-01 0.45932798E+03</pdfrwt>
<totfact> 0.65700380E+04</totfact>
</mgrwt>
</event>
<event>
 7    0  0.4707675E-002  0.4576416E+03  0.7546771E-02  0.1025467E+00
         21   -1    0    0  502  501  0.00000000000E+00  0.00000000000E+00  0.14907801375E+03  0.14907801375E+03  0.00000000000E+00 0. -1.
         21   -1    0    0  501  502 -0.00000000000E+00 -0.00000000000E+00 -0.35121847820E+03  0.35121847820E+03  0.00000000000E+00 0. -1.
      99926    2    1    2    0    0 -0.17763568394E-14  0.00000000000E+00 -0.20214046445E+03  0.50029649194E+03  0.45764157644E+03 0.  0.
      99925    2    3    3    0    0  0.47093057421E+01 -0.32140924275E+02 -0.24824030642E+03  0.36308162357E+03  0.26296349380E+03 0.  0.
         25    1    3    3    0    0 -0.47093057421E+01  0.32140924275E+02  0.46099841969E+02  0.13721486838E+03  0.12509000000E+03 0.  0.
         25    1    4    4    0    0  0.36385066565E+02 -0.17603152516E+02 -0.94834273202E+02  0.16209500770E+03  0.12509000000E+03 0.  0.
         25    1    4    4    0    0 -0.31675760823E+02 -0.14537771759E+02 -0.15340603321E+03  0.20098661587E+03  0.12509000000E+03 0.  0.
<mgrwt>
<rscale>  2 0.45764158E+03</rscale>
<asrwt>0</asrwt>
<pdfrwt beam="1">  1       21 0.21923237E-01 0.45764158E+03</pdfrwt>
<pdfrwt beam="2">  1       21 0.51649776E-01 0.45764158E+03</pdfrwt>
<totfact> 0.63899360E+04</totfact>
</mgrwt>
</event>
<event>
 7    0  0.4707675E-002  0.4562223E+03  0.7546771E-02  0.1025883E+00
         21   -1    0    0  502  501  0.00000000000E+00  0.00000000000E+00  0.30662668266E+03  0.30662668266E+03  0.00000000000E+00 0. -1.
         21   -1    0    0  501  502 -0.00000000000E+00 -0.00000000000E+00 -0.16970046335E+03  0.16970046335E+03  0.00000000000E+00 0. -1.
      99926    2    1    2    0    0  0.71054273576E-14 -0.14210854715E-13  0.13692621931E+03  0.47632714601E+03  0.45622227093E+03 0.  0.
      99925    2    3    3    0    0 -0.34027357010E+02  0.10916215120E+03  0.85999583721E+02  0.29936594520E+03  0.26296350406E+03 0.  0.
         25    1    3    3    0    0  0.34027357010E+02 -0.10916215120E+03  0.50926635586E+02  0.17696120081E+03  0.12509000000E+03 0.  0.
         25    1    4    4    0    0  0.63390577114E+01  0.82283969403E+02  0.65885406543E+02  0.16370470417E+03  0.12509000000E+03 0.  0.
         25    1    4    4    0    0 -0.40366414721E+02  0.26878181796E+02  0.20114177178E+02  0.13566124103E+03  0.12509000000E+03 0.  0.
<mgrwt>
<rscale>  2 0.45622227E+03</rscale>
<asrwt>0</asrwt>
<pdfrwt beam="1">  1       21 0.45092159E-01 0.45622227E+03</pdfrwt>
<pdfrwt beam="2">  1       21 0.24955950E-01 0.45622227E+03</pdfrwt>
<totfact> 0.66322774E+04</totfact>
</mgrwt>
</event>
<event>
 7    0  0.4707675E-002  0.4536374E+03  0.7546771E-02  0.1026643E+00
         21   -1    0    0  502  501  0.00000000000E+00  0.00000000000E+00  0.34434813652E+03  0.34434813652E+03  0.00000000000E+00 0.  1.
         21   -1    0    0  501  502 -0.00000000000E+00 -0.00000000000E+00 -0.14940324697E+03  0.14940324697E+03  0.00000000000E+00 0.  1.
      99926    2    1    2    0    0  0.00000000000E+00  0.00000000000E+00  0.19494488955E+03  0.49375138350E+03  0.45363743093E+03 0.  0.
      99925    2    3    3    0    0  0.10439285576E+03  0.39583325797E+02  0.11622928625E+03  0.30852621696E+03  0.26308643362E+03 0.  0.
         25    1    4    4    0    0  0.28187316083E+02 -0.15245045754E+02  0.59200615514E+02  0.14205336034E+03  0.12509000000E+03 0.  0.
         25    1    3    3    0    0 -0.10439285576E+03 -0.39583325797E+02  0.78715603299E+02  0.18522516653E+03  0.12509000000E+03 0.  0.
         25    1    4    4    0    0  0.76205539678E+02  0.54828371551E+02  0.57028670738E+02  0.16647285662E+03  0.12509000000E+03 0.  0.
<mgrwt>
<rscale>  2 0.45363743E+03</rscale>
<asrwt>0</asrwt>
<pdfrwt beam="1">  1       21 0.50639432E-01 0.45363743E+03</pdfrwt>
<pdfrwt beam="2">  1       21 0.21971066E-01 0.45363743E+03</pdfrwt>
<totfact> 0.66427541E+04</totfact>
</mgrwt>
</event>
<event>
 7    0  0.4707675E-002  0.4531261E+03  0.7546771E-02  0.1026794E+00
         21   -1    0    0  502  501  0.00000000000E+00  0.00000000000E+00  0.32644036657E+03  0.32644036657E+03  0.00000000000E+00 0. -1.
         21   -1    0    0  501  502 -0.00000000000E+00 -0.00000000000E+00 -0.15724408959E+03  0.15724408959E+03  0.00000000000E+00 0. -1.
      99926    2    1    2    0    0  0.00000000000E+00  0.71054273576E-14  0.16919627698E+03  0.48368445616E+03  0.45312611157E+03 0.  0.
      99925    2    3    3    0    0 -0.57269787660E+02 -0.46071394591E+02  0.19608527001E+03  0.33612793132E+03  0.26292613244E+03 0.  0.
         25    1    3    3    0    0  0.57269787660E+02  0.46071394591E+02 -0.26888993032E+02  0.14755652485E+03  0.12509000000E+03 0.  0.
         25    1    4    4    0    0 -0.46334908280E+02 -0.11990941532E+02  0.14207741610E+03  0.19525421037E+03  0.12509000000E+03 0.  0.
         25    1    4    4    0    0 -0.10934879379E+02 -0.34080453059E+02  0.54007853917E+02  0.14087372094E+03  0.12509000000E+03 0.  0.
<mgrwt>
<rscale>  2 0.45312611E+03</rscale>
<asrwt>0</asrwt>
<pdfrwt beam="1">  1       21 0.48005937E-01 0.45312611E+03</pdfrwt>
<pdfrwt beam="2">  1       21 0.23124131E-01 0.45312611E+03</pdfrwt>
<totfact> 0.67430360E+04</totfact>
</mgrwt>
</event>
<event>
 7    0  0.4707675E-002  0.4455146E+03  0.7546771E-02  0.1029068E+00
         21   -1    0    0  502  501  0.00000000000E+00  0.00000000000E+00  0.48593855706E+03  0.48593855706E+03  0.00000000000E+00 0.  1.
         21   -1    0    0  501  502 -0.00000000000E+00 -0.00000000000E+00 -0.10211335149E+03  0.10211335149E+03  0.00000000000E+00 0.  1.
      99926    2    1    2    0    0  0.00000000000E+00  0.00000000000E+00  0.38382520557E+03  0.58805190854E+03  0.44551459988E+03 0.  0.
      99925    2    3    3    0    0  0.48846333220E+02  0.91472085080E+02  0.25378124954E+03  0.37993644727E+03  0.26304690596E+03 0.  0.
         25    1    3    3    0    0 -0.48846333220E+02 -0.91472085080E+02  0.13004395603E+03  0.20811546127E+03  0.12509000000E+03 0.  0.
         25    1    4    4    0    0 -0.46377401481E+01  0.13494688648E+02  0.11620190145E+03  0.17133010610E+03  0.12509000000E+03 0.  0.
         25    1    4    4    0    0  0.53484073368E+02  0.77977396433E+02  0.13757934809E+03  0.20860634118E+03  0.12509000000E+03 0.  0.
<mgrwt>
<rscale>  2 0.44551460E+03</rscale>
<asrwt>0</asrwt>
<pdfrwt beam="1">  1       21 0.71461552E-01 0.44551460E+03</pdfrwt>
<pdfrwt beam="2">  1       21 0.15016670E-01 0.44551460E+03</pdfrwt>
<totfact> 0.64091220E+04</totfact>
</mgrwt>
</event>
<event>
 7    0  0.4707675E-002  0.4535186E+03  0.7546771E-02  0.1026678E+00
         21   -1    0    0  502  501  0.00000000000E+00  0.00000000000E+00  0.15367388920E+03  0.15367388920E+03  0.00000000000E+00 0.  1.
         21   -1    0    0  501  502 -0.00000000000E+00 -0.00000000000E+00 -0.33460322133E+03  0.33460322133E+03  0.00000000000E+00 0.  1.
      99926    2    1    2    0    0  0.00000000000E+00  0.00000000000E+00 -0.18092933214E+03  0.48827711053E+03  0.45351859217E+03 0.  0.
      99925    2    3    3    0    0 -0.15122324648E+02  0.83443670949E+02 -0.19234178942E+03  0.33672090576E+03  0.26304766392E+03 0.  0.
         25    1    3    3    0    0  0.15122324648E+02 -0.83443670949E+02  0.11412457282E+02  0.15155620477E+03  0.12509000000E+03 0.  0.
         25    1    4    4    0    0  0.31006512115E+01  0.81889660553E+02 -0.11341463756E+03  0.18768569113E+03  0.12509000000E+03 0.  0.
         25    1    4    4    0    0 -0.18222975860E+02  0.15540103963E+01 -0.78927151861E+02  0.14903521463E+03  0.12509000000E+03 0.  0.
<mgrwt>
<rscale>  2 0.45351859E+03</rscale>
<asrwt>0</asrwt>
<pdfrwt beam="1">  1       21 0.22599102E-01 0.45351859E+03</pdfrwt>
<pdfrwt beam="2">  1       21 0.49206355E-01 0.45351859E+03</pdfrwt>
<totfact> 0.66885490E+04</totfact>
</mgrwt>
</event>
<event>
 7    0  0.4707675E-002  0.4139700E+03  0.7546771E-02  0.1039047E+00
         21   -1    0    0  502  501  0.00000000000E+00  0.00000000000E+00  0.14405329332E+03  0.14405329332E+03  0.00000000000E+00 0.  1.
         21   -1    0    0  501  502 -0.00000000000E+00 -0.00000000000E+00 -0.29740932113E+03  0.29740932113E+03  0.00000000000E+00 0.  1.
      99926    2    1    2    0    0  0.00000000000E+00 -0.71054273576E-14 -0.15335602782E+03  0.44146261445E+03  0.41397000940E+03 0.  0.
      99925    2    3    3    0    0  0.24432217309E+02 -0.61609771123E+02 -0.83529646419E+02  0.28361481187E+03  0.26280689211E+03 0.  0.
         25    1    4    4    0    0 -0.91966844826E+01 -0.64590278606E+02 -0.35958044550E+02  0.14559179978E+03  0.12509000000E+03 0.  0.
         25    1    4    4    0    0  0.33628901792E+02  0.29805074831E+01 -0.47571601869E+02  0.13802301208E+03  0.12509000000E+03 0.  0.
         25    1    3    3    0    0 -0.24432217309E+02  0.61609771123E+02 -0.69826381396E+02  0.15784780258E+03  0.12509000000E+03 0.  0.
<mgrwt>
<rscale>  2 0.41397001E+03</rscale>
<asrwt>0</asrwt>
<pdfrwt beam="1">  1       21 0.21184308E-01 0.41397001E+03</pdfrwt>
<pdfrwt beam="2">  1       21 0.43736664E-01 0.41397001E+03</pdfrwt>
<totfact> 0.97778887E+04</totfact>
</mgrwt>
</event>
<event>
 7    0  0.4707675E-002  0.4506427E+03  0.7546771E-02  0.1027531E+00
         21   -1    0    0  502  501  0.00000000000E+00  0.00000000000E+00  0.30102118363E+03  0.30102118363E+03  0.00000000000E+00 0. -1.
         21   -1    0    0  501  502 -0.00000000000E+00 -0.00000000000E+00 -0.16865823393E+03  0.16865823393E+03  0.00000000000E+00 0. -1.
      99926    2    1    2    0    0  0.17763568394E-14  0.00000000000E+00  0.13236294970E+03  0.46967941756E+03  0.45064265758E+03 0.  0.
      99925    2    3    3    0    0 -0.12129879754E+02 -0.52396158506E+02  0.18256528534E+03  0.32455783401E+03  0.26289772307E+03 0.  0.
         25    1    4    4    0    0 -0.42336294868E+02 -0.43307850725E+02  0.86313804532E+02  0.16360168933E+03  0.12509000000E+03 0.  0.
         25    1    4    4    0    0  0.30206415114E+02 -0.90883077807E+01  0.96251480811E+02  0.16095614468E+03  0.12509000000E+03 0.  0.
         25    1    3    3    0    0  0.12129879754E+02  0.52396158506E+02 -0.50202335647E+02  0.14512158355E+03  0.12509000000E+03 0.  0.
<mgrwt>
<rscale>  2 0.45064266E+03</rscale>
<asrwt>0</asrwt>
<pdfrwt beam="1">  1       21 0.44267821E-01 0.45064266E+03</pdfrwt>
<pdfrwt beam="2">  1       21 0.24802681E-01 0.45064266E+03</pdfrwt>
<totfact> 0.69843131E+04</totfact>
</mgrwt>
</event>
<event>
 7    0  0.4707675E-002  0.4552822E+03  0.7546771E-02  0.1026158E+00
         21   -1    0    0  502  501  0.00000000000E+00  0.00000000000E+00  0.31205371954E+03  0.31205371954E+03  0.00000000000E+00 0. -1.
         21   -1    0    0  501  502 -0.00000000000E+00 -0.00000000000E+00 -0.16606264798E+03  0.16606264798E+03  0.00000000000E+00 0. -1.
      99926    2    1    2    0    0  0.14210854715E-13  0.00000000000E+00  0.14599107156E+03  0.47811636752E+03  0.45528218493E+03 0.  0.
      99925    2    3    3    0    0 -0.10531520022E+03  0.27323179929E+02  0.58443341158E+02  0.29063313959E+03  0.26308582277E+03 0.  0.
         25    1    4    4    0    0 -0.68576708646E+02  0.47294589185E+02  0.11871110286E+02  0.15075799977E+03  0.12509000000E+03 0.  0.
         25    1    4    4    0    0 -0.36738491569E+02 -0.19971409256E+02  0.46572230872E+02  0.13987513982E+03  0.12509000000E+03 0.  0.
         25    1    3    3    0    0  0.10531520022E+03 -0.27323179929E+02  0.87547730401E+02  0.18748322793E+03  0.12509000000E+03 0.  0.
<mgrwt>
<rscale>  2 0.45528218E+03</rscale>
<asrwt>0</asrwt>
<pdfrwt beam="1">  1       21 0.45890253E-01 0.45528218E+03</pdfrwt>
<pdfrwt beam="2">  1       21 0.24420978E-01 0.45528218E+03</pdfrwt>
<totfact> 0.66687982E+04</totfact>
</mgrwt>
</event>
<event>
 7    0  0.4707675E-002  0.4326799E+03  0.7546771E-02  0.1033017E+00
         21   -1    0    0  502  501  0.00000000000E+00  0.00000000000E+00  0.20702454301E+03  0.20702454301E+03  0.00000000000E+00 0.  1.
         21   -1    0    0  501  502 -0.00000000000E+00 -0.00000000000E+00 -0.22607452348E+03  0.22607452348E+03  0.00000000000E+00 0.  1.
      99926    2    1    2    0    0  0.00000000000E+00  0.00000000000E+00 -0.19049980478E+02  0.43309906649E+03  0.43267990436E+03 0.  0.
      99925    2    3    3    0    0 -0.65633219543E+02 -0.21427831123E+02  0.46589684583E+02  0.27586374863E+03  0.26298923484E+03 0.  0.
         25    1    3    3    0    0  0.65633219543E+02  0.21427831123E+02 -0.65639665061E+02  0.15723531786E+03  0.12509000000E+03 0.  0.
         25    1    4    4    0    0 -0.49822048733E+02 -0.40912702972E+02  0.46731848968E+02  0.14828169008E+03  0.12509000000E+03 0.  0.
         25    1    4    4    0    0 -0.15811170810E+02  0.19484871848E+02 -0.14216438509E+00  0.12758205855E+03  0.12509000000E+03 0.  0.
<mgrwt>
<rscale>  2 0.43267990E+03</rscale>
<asrwt>0</asrwt>
<pdfrwt beam="1">  1       21 0.30444786E-01 0.43267990E+03</pdfrwt>
<pdfrwt beam="2">  1       21 0.33246253E-01 0.43267990E+03</pdfrwt>
<totfact> 0.84207625E+04</totfact>
</mgrwt>
</event>
<event>
 7    0  0.4707675E-002  0.4604958E+03  0.7546771E-02  0.1024638E+00
         21   -1    0    0  502  501  0.00000000000E+00  0.00000000000E+00  0.48529440717E+02  0.48529440717E+02  0.00000000000E+00 0. -1.
         21   -1    0    0  501  502 -0.00000000000E+00 -0.00000000000E+00 -0.10924111791E+04  0.10924111791E+04  0.00000000000E+00 0. -1.
      99926    2    1    2    0    0  0.00000000000E+00  0.00000000000E+00 -0.10438817384E+04  0.11409406198E+04  0.46049583518E+03 0.  0.
      99925    2    3    3    0    0 -0.77902648412E+02 -0.88355794221E+02 -0.62435259448E+03  0.68758890240E+03  0.26284361789E+03 0.  0.
         25    1    3    3    0    0  0.77902648412E+02  0.88355794221E+02 -0.41952914393E+03  0.45335171744E+03  0.12509000000E+03 0.  0.
         25    1    4    4    0    0 -0.40352420476E+02 -0.62389049600E+02 -0.41204042403E+03  0.43697314618E+03  0.12509000000E+03 0.  0.
         25    1    4    4    0    0 -0.37550227936E+02 -0.25966744621E+02 -0.21231217045E+03  0.25061575622E+03  0.12509000000E+03 0.  0.
<mgrwt>
<rscale>  2 0.46049584E+03</rscale>
<asrwt>0</asrwt>
<pdfrwt beam="1">  1       21 0.71366819E-02 0.46049584E+03</pdfrwt>
<pdfrwt beam="2">  1       21 0.16064872E+00 0.46049584E+03</pdfrwt>
<totfact> 0.32664447E+04</totfact>
</mgrwt>
</event>
<event>
 7    0  0.4707675E-002  0.4570732E+03  0.7546771E-02  0.1025633E+00
         21   -1    0    0  502  501  0.00000000000E+00  0.00000000000E+00  0.66820010475E+03  0.66820010475E+03  0.00000000000E+00 0.  1.
         21   -1    0    0  501  502 -0.00000000000E+00 -0.00000000000E+00 -0.78163687245E+02  0.78163687245E+02  0.00000000000E+00 0.  1.
      99926    2    1    2    0    0  0.14210854715E-13  0.00000000000E+00  0.59003641751E+03  0.74636379200E+03  0.45707322829E+03 0.  0.
      99925    2    3    3    0    0  0.67998751937E+02  0.63271989042E+02  0.48145821404E+03  0.55645879146E+03  0.26309161875E+03 0.  0.
         25    1    4    4    0    0  0.55968966457E+01  0.60092933840E+02  0.25261468507E+03  0.28827794429E+03  0.12509000000E+03 0.  0.
         25    1    3    3    0    0 -0.67998751937E+02 -0.63271989042E+02  0.10857820347E+03  0.18990500054E+03  0.12509000000E+03 0.  0.
         25    1    4    4    0    0  0.62401855292E+02  0.31790552022E+01  0.22884352897E+03  0.26818084717E+03  0.12509000000E+03 0.  0.
<mgrwt>
<rscale>  2 0.45707323E+03</rscale>
<asrwt>0</asrwt>
<pdfrwt beam="1">  1       21 0.98264718E-01 0.45707323E+03</pdfrwt>
<pdfrwt beam="2">  1       21 0.11494660E-01 0.45707323E+03</pdfrwt>
<totfact> 0.49642987E+04</totfact>
</mgrwt>
</event>
<event>
 7    0  0.4707675E-002  0.4567810E+03  0.7546771E-02  0.1025719E+00
         21   -1    0    0  502  501  0.00000000000E+00  0.00000000000E+00  0.36224010982E+03  0.36224010982E+03  0.00000000000E+00 0. -1.
         21   -1    0    0  501  502 -0.00000000000E+00 -0.00000000000E+00 -0.14399900678E+03  0.14399900678E+03  0.00000000000E+00 0. -1.
      99926    2    1    2    0    0  0.00000000000E+00  0.00000000000E+00  0.21824110304E+03  0.50623911660E+03  0.45678098047E+03 0.  0.
      99925    2    3    3    0    0 -0.96671719624E+02  0.60669840333E+02  0.12365672014E+03  0.31228044964E+03  0.26306243344E+03 0.  0.
         25    1    4    4    0    0 -0.59931163430E+02  0.14888474260E+02  0.23138041831E+02  0.14140823206E+03  0.12509000000E+03 0.  0.
         25    1    3    3    0    0  0.96671719624E+02 -0.60669840333E+02  0.94584382901E+02  0.19395866696E+03  0.12509000000E+03 0.  0.
         25    1    4    4    0    0 -0.36740556193E+02  0.45781366073E+02  0.10051867831E+03  0.17087221757E+03  0.12509000000E+03 0.  0.
<mgrwt>
<rscale>  2 0.45678098E+03</rscale>
<asrwt>0</asrwt>
<pdfrwt beam="1">  1       21 0.53270604E-01 0.45678098E+03</pdfrwt>
<pdfrwt beam="2">  1       21 0.21176325E-01 0.45678098E+03</pdfrwt>
<totfact> 0.63926076E+04</totfact>
</mgrwt>
</event>
<event>
 7    0  0.4707675E-002  0.4480685E+03  0.7546771E-02  0.1028300E+00
         21   -1    0    0  502  501  0.00000000000E+00  0.00000000000E+00  0.44354249896E+03  0.44354249896E+03  0.00000000000E+00 0.  1.
         21   -1    0    0  501  502 -0.00000000000E+00 -0.00000000000E+00 -0.11316018556E+03  0.11316018556E+03  0.00000000000E+00 0.  1.
      99926    2    1    2    0    0  0.00000000000E+00  0.00000000000E+00  0.33038231340E+03  0.55670268453E+03  0.44806852819E+03 0.  0.
      99925    2    3    3    0    0 -0.10120748766E+03 -0.18423788784E+02  0.24389652655E+03  0.37310069385E+03  0.26293767425E+03 0.  0.
         25    1    4    4    0    0 -0.23545107454E+02 -0.34663136830E+01  0.15446234709E+03  0.20018119838E+03  0.12509000000E+03 0.  0.
         25    1    4    4    0    0 -0.77662380205E+02 -0.14957475101E+02  0.89434179458E+02  0.17291949548E+03  0.12509000000E+03 0.  0.
         25    1    3    3    0    0  0.10120748766E+03  0.18423788784E+02  0.86485786854E+02  0.18360199067E+03  0.12509000000E+03 0.  0.
<mgrwt>
<rscale>  2 0.44806853E+03</rscale>
<asrwt>0</asrwt>
<pdfrwt beam="1">  1       21 0.65226838E-01 0.44806853E+03</pdfrwt>
<pdfrwt beam="2">  1       21 0.16641204E-01 0.44806853E+03</pdfrwt>
<totfact> 0.64912426E+04</totfact>
</mgrwt>
</event>
<event>
 7    0  0.4707675E-002  0.4651078E+03  0.7546771E-02  0.1023310E+00
         21   -1    0    0  502  501  0.00000000000E+00  0.00000000000E+00  0.15460502856E+04  0.15460502856E+04  0.00000000000E+00 0.  1.
         21   -1    0    0  501  502 -0.00000000000E+00 -0.00000000000E+00 -0.34980315109E+02  0.34980315109E+02  0.00000000000E+00 0.  1.
      99926    2    1    2    0    0  0.00000000000E+00  0.71054273576E-14  0.15110699705E+04  0.15810306007E+04  0.46510784196E+03 0.  0.
      99925    2    3    3    0    0 -0.46439717461E+02 -0.33147409235E+02  0.13102185033E+04  0.13376292489E+04  0.26329466945E+03 0.  0.
         25    1    3    3    0    0  0.46439717461E+02  0.33147409235E+02  0.20085146713E+03  0.24340135178E+03  0.12509000000E+03 0.  0.
         25    1    4    4    0    0 -0.47810670595E+02 -0.41655062040E+02  0.57933460829E+03  0.59606803376E+03  0.12509000000E+03 0.  0.
         25    1    4    4    0    0  0.13709531340E+01  0.85076528044E+01  0.73088389505E+03  0.74156121515E+03  0.12509000000E+03 0.  0.
<mgrwt>
<rscale>  2 0.46510784E+03</rscale>
<asrwt>0</asrwt>
<pdfrwt beam="1">  1       21 0.22736029E+00 0.46510784E+03</pdfrwt>
<pdfrwt beam="2">  1       21 0.51441650E-02 0.46510784E+03</pdfrwt>
<totfact> 0.20226340E+04</totfact>
</mgrwt>
</event>
<event>
 7    0  0.4707675E-002  0.4536163E+03  0.7546771E-02  0.1026649E+00
         21   -1    0    0  502  501  0.00000000000E+00  0.00000000000E+00  0.58295333079E+03  0.58295333079E+03  0.00000000000E+00 0. -1.
         21   -1    0    0  501  502 -0.00000000000E+00 -0.00000000000E+00 -0.88243647803E+02  0.88243647803E+02  0.00000000000E+00 0. -1.
      99926    2    1    2    0    0  0.00000000000E+00 -0.26645352591E-14  0.49470968299E+03  0.67119697859E+03  0.45361626253E+03 0.  0.
      99925    2    3    3    0    0 -0.32151165117E+02  0.61789469937E+01  0.47014157962E+03  0.53958019924E+03  0.26275808212E+03 0.  0.
         25    1    4    4    0    0 -0.70097752560E+01 -0.33485968344E+02  0.26018866864E+03  0.29071652587E+03  0.12509000000E+03 0.  0.
         25    1    4    4    0    0 -0.25141389861E+02  0.39664915338E+02  0.20995291098E+03  0.24886367337E+03  0.12509000000E+03 0.  0.
         25    1    3    3    0    0  0.32151165117E+02 -0.61789469937E+01  0.24568103363E+02  0.13161677935E+03  0.12509000000E+03 0.  0.
<mgrwt>
<rscale>  2 0.45361626E+03</rscale>
<asrwt>0</asrwt>
<pdfrwt beam="1">  1       21 0.85728429E-01 0.45361626E+03</pdfrwt>
<pdfrwt beam="2">  1       21 0.12977007E-01 0.45361626E+03</pdfrwt>
<totfact> 0.55093469E+04</totfact>
</mgrwt>
</event>
<event>
 7    0  0.4707675E-002  0.4518597E+03  0.7546771E-02  0.1027169E+00
         21   -1    0    0  502  501  0.00000000000E+00  0.00000000000E+00  0.43791668456E+03  0.43791668456E+03  0.00000000000E+00 0. -1.
         21   -1    0    0  501  502 -0.00000000000E+00 -0.00000000000E+00 -0.11656166066E+03  0.11656166066E+03  0.00000000000E+00 0. -1.
      99926    2    1    2    0    0  0.35527136788E-14  0.00000000000E+00  0.32135502390E+03  0.55447834523E+03  0.45185969497E+03 0.  0.
      99925    2    3    3    0    0  0.16862511653E+02 -0.10844602416E+03  0.21565644056E+03  0.35733732191E+03  0.26293987301E+03 0.  0.
         25    1    3    3    0    0 -0.16862511653E+02  0.10844602416E+03  0.10569858333E+03  0.19714102331E+03  0.12509000000E+03 0.  0.
         25    1    4    4    0    0  0.34170872266E+02 -0.81240816693E+02  0.14133244261E+03  0.20830287142E+03  0.12509000000E+03 0.  0.
         25    1    4    4    0    0 -0.17308360613E+02 -0.27205207465E+02  0.74323997951E+02  0.14903445049E+03  0.12509000000E+03 0.  0.
<mgrwt>
<rscale>  2 0.45185969E+03</rscale>
<asrwt>0</asrwt>
<pdfrwt beam="1">  1       21 0.64399512E-01 0.45185969E+03</pdfrwt>
<pdfrwt beam="2">  1       21 0.17141421E-01 0.45185969E+03</pdfrwt>
<totfact> 0.63125197E+04</totfact>
</mgrwt>
</event>
<event>
 7    0  0.4707675E-002  0.4532044E+03  0.7546771E-02  0.1026771E+00
         21   -1    0    0  502  501  0.00000000000E+00  0.00000000000E+00  0.54450779873E+03  0.54450779873E+03  0.00000000000E+00 0.  1.
         21   -1    0    0  501  502 -0.00000000000E+00 -0.00000000000E+00 -0.94302714351E+02  0.94302714351E+02  0.00000000000E+00 0.  1.
      99926    2    1    2    0    0  0.35527136788E-14  0.14210854715E-13  0.45020508438E+03  0.63881051308E+03  0.45320442807E+03 0.  0.
      99925    2    3    3    0    0 -0.21213897818E+02 -0.10274648357E+03  0.33699930986E+03  0.44014012064E+03  0.26295992396E+03 0.  0.
         25    1    4    4    0    0  0.10614965050E+02 -0.15477298857E+02  0.13448350155E+03  0.18462270866E+03  0.12509000000E+03 0.  0.
         25    1    3    3    0    0  0.21213897818E+02  0.10274648357E+03  0.11320577451E+03  0.19867039243E+03  0.12509000000E+03 0.  0.
         25    1    4    4    0    0 -0.31828862868E+02 -0.87269184713E+02  0.20251580831E+03  0.25551741199E+03  0.12509000000E+03 0.  0.
<mgrwt>
<rscale>  2 0.45320443E+03</rscale>
<asrwt>0</asrwt>
<pdfrwt beam="1">  1       21 0.80074675E-01 0.45320443E+03</pdfrwt>
<pdfrwt beam="2">  1       21 0.13868046E-01 0.45320443E+03</pdfrwt>
<totfact> 0.57156381E+04</totfact>
</mgrwt>
</event>
<event>
 7    0  0.4707675E-002  0.4577682E+03  0.7546771E-02  0.1025430E+00
         21   -1    0    0  502  501  0.00000000000E+00  0.00000000000E+00  0.91475134832E+03  0.91475134832E+03  0.00000000000E+00 0.  1.
         21   -1    0    0  501  502 -0.00000000000E+00 -0.00000000000E+00 -0.57270134704E+02  0.57270134704E+02  0.00000000000E+00 0.  1.
      99926    2    1    2    0    0  0.00000000000E+00  0.00000000000E+00  0.85748121361E+03  0.97202148302E+03  0.45776820745E+03 0.  0.
      99925    2    3    3    0    0 -0.80840049455E+01  0.47364292119E+02  0.31462024386E+03  0.41286652428E+03  0.26299076357E+03 0.  0.
         25    1    4    4    0    0 -0.32106958921E+02  0.50422459348E+02  0.14362771145E+03  0.19962391844E+03  0.12509000000E+03 0.  0.
         25    1    3    3    0    0  0.80840049455E+01 -0.47364292119E+02  0.54286096975E+03  0.55915495874E+03  0.12509000000E+03 0.  0.
         25    1    4    4    0    0  0.24022953976E+02 -0.30581672291E+01  0.17099253241E+03  0.21324260584E+03  0.12509000000E+03 0.  0.
<mgrwt>
<rscale>  2 0.45776821E+03</rscale>
<asrwt>0</asrwt>
<pdfrwt beam="1">  1       21 0.13452225E+00 0.45776821E+03</pdfrwt>
<pdfrwt beam="2">  1       21 0.84220792E-02 0.45776821E+03</pdfrwt>
<totfact> 0.39402076E+04</totfact>
</mgrwt>
</event>
<event>
 7    0  0.4707675E-002  0.4571045E+03  0.7546771E-02  0.1025624E+00
         21   -1    0    0  502  501  0.00000000000E+00  0.00000000000E+00  0.96583776726E+02  0.96583776726E+02  0.00000000000E+00 0.  1.
         21   -1    0    0  501  502 -0.00000000000E+00 -0.00000000000E+00 -0.54083749355E+03  0.54083749355E+03  0.00000000000E+00 0.  1.
      99926    2    1    2    0    0 -0.14210854715E-13  0.00000000000E+00 -0.44425371682E+03  0.63742127028E+03  0.45710448575E+03 0.  0.
      99925    2    3    3    0    0  0.73320490035E+02 -0.87129673066E+02 -0.25489158965E+03  0.38350593498E+03  0.26294411100E+03 0.  0.
         25    1    4    4    0    0  0.84624546158E+01 -0.25350090511E+02 -0.15082568667E+03  0.19776282787E+03  0.12509000000E+03 0.  0.
         25    1    3    3    0    0 -0.73320490035E+02  0.87129673066E+02 -0.18936212718E+03  0.25391533529E+03  0.12509000000E+03 0.  0.
         25    1    4    4    0    0  0.64858035419E+02 -0.61779582555E+02 -0.10406590298E+03  0.18574310712E+03  0.12509000000E+03 0.  0.
<mgrwt>
<rscale>  2 0.45710449E+03</rscale>
<asrwt>0</asrwt>
<pdfrwt beam="1">  1       21 0.14203497E-01 0.45710449E+03</pdfrwt>
<pdfrwt beam="2">  1       21 0.79534926E-01 0.45710449E+03</pdfrwt>
<totfact> 0.55504381E+04</totfact>
</mgrwt>
</event>
<event>
 7    0  0.4707675E-002  0.4568299E+03  0.7546771E-02  0.1025705E+00
         21   -1    0    0  502  501  0.00000000000E+00  0.00000000000E+00  0.35802312947E+03  0.35802312947E+03  0.00000000000E+00 0.  1.
         21   -1    0    0  501  502 -0.00000000000E+00 -0.00000000000E+00 -0.14572631824E+03  0.14572631824E+03  0.00000000000E+00 0.  1.
      99926    2    1    2    0    0 -0.14210854715E-13  0.00000000000E+00  0.21229681122E+03  0.50374944771E+03  0.45682991366E+03 0.  0.
      99925    2    3    3    0    0  0.10065033896E+03  0.37544704718E+02  0.17830402003E+03  0.33539531638E+03  0.26297832440E+03 0.  0.
         25    1    3    3    0    0 -0.10065033896E+03 -0.37544704718E+02  0.33992791190E+02  0.16835413133E+03  0.12509000000E+03 0.  0.
         25    1    4    4    0    0  0.29569089277E+02 -0.10854338978E+02  0.56746484243E+02  0.14092487108E+03  0.12509000000E+03 0.  0.
         25    1    4    4    0    0  0.71081249678E+02  0.48399043696E+02  0.12155753579E+03  0.19447044530E+03  0.12509000000E+03 0.  0.
<mgrwt>
<rscale>  2 0.45682991E+03</rscale>
<asrwt>0</asrwt>
<pdfrwt beam="1">  1       21 0.52650460E-01 0.45682991E+03</pdfrwt>
<pdfrwt beam="2">  1       21 0.21430341E-01 0.45682991E+03</pdfrwt>
<totfact> 0.64072311E+04</totfact>
</mgrwt>
</event>
<event>
 7    0  0.4707675E-002  0.4527078E+03  0.7546771E-02  0.1026918E+00
         21   -1    0    0  502  501  0.00000000000E+00  0.00000000000E+00  0.16973281273E+03  0.16973281273E+03  0.00000000000E+00 0.  1.
         21   -1    0    0  501  502 -0.00000000000E+00 -0.00000000000E+00 -0.30186320319E+03  0.30186320319E+03  0.00000000000E+00 0.  1.
      99926    2    1    2    0    0  0.00000000000E+00  0.35527136788E-14 -0.13213039047E+03  0.47159601592E+03  0.45270781101E+03 0.  0.
      99925    2    3    3    0    0  0.33464907958E+02 -0.21104333120E+02 -0.19123199633E+03  0.32770091226E+03  0.26315949258E+03 0.  0.
         25    1    4    4    0    0  0.19935536278E+02 -0.36399734992E+02 -0.58566735287E+02  0.14422183225E+03  0.12509000000E+03 0.  0.
         25    1    3    3    0    0 -0.33464907958E+02  0.21104333120E+02  0.59101605864E+02  0.14389510366E+03  0.12509000000E+03 0.  0.
         25    1    4    4    0    0  0.13529371680E+02  0.15295401873E+02 -0.13266526104E+03  0.18347908002E+03  0.12509000000E+03 0.  0.
<mgrwt>
<rscale>  2 0.45270781E+03</rscale>
<asrwt>0</asrwt>
<pdfrwt beam="1">  1       21 0.24960708E-01 0.45270781E+03</pdfrwt>
<pdfrwt beam="2">  1       21 0.44391648E-01 0.45270781E+03</pdfrwt>
<totfact> 0.68555620E+04</totfact>
</mgrwt>
</event>
<event>
 7    0  0.4707675E-002  0.4545718E+03  0.7546771E-02  0.1026367E+00
         21   -1    0    0  502  501  0.00000000000E+00  0.00000000000E+00  0.31458346571E+03  0.31458346571E+03  0.00000000000E+00 0. -1.
         21   -1    0    0  501  502 -0.00000000000E+00 -0.00000000000E+00 -0.16421356683E+03  0.16421356683E+03  0.00000000000E+00 0. -1.
      99926    2    1    2    0    0 -0.71054273576E-14  0.00000000000E+00  0.15036989889E+03  0.47879703254E+03  0.45457176758E+03 0.  0.
      99925    2    3    3    0    0  0.57937397023E+02 -0.86250011758E+02  0.51198234270E+02  0.28832831158E+03  0.26403815929E+03 0.  0.
         25    1    4    4    0    0  0.40015042310E+01 -0.75431906329E+02  0.38333302602E+02  0.15107261405E+03  0.12509000000E+03 0.  0.
         25    1    3    3    0    0 -0.57937397023E+02  0.86250011758E+02  0.99171664616E+02  0.19046872096E+03  0.12509000000E+03 0.  0.
         25    1    4    4    0    0  0.53935892792E+02 -0.10818105429E+02  0.12864931668E+02  0.13725569753E+03  0.12509000000E+03 0.  0.
<mgrwt>
<rscale>  2 0.45457177E+03</rscale>
<asrwt>0</asrwt>
<pdfrwt beam="1">  1       21 0.46262274E-01 0.45457177E+03</pdfrwt>
<pdfrwt beam="2">  1       21 0.24149054E-01 0.45457177E+03</pdfrwt>
<totfact> 0.67015260E+04</totfact>
</mgrwt>
</event>
<event>
 7    0  0.4707675E-002  0.4539551E+03  0.7546771E-02  0.1026549E+00
         21   -1    0    0  502  501  0.00000000000E+00  0.00000000000E+00  0.16021275862E+03  0.16021275862E+03  0.00000000000E+00 0. -1.
         21   -1    0    0  501  502 -0.00000000000E+00 -0.00000000000E+00 -0.32156491733E+03  0.32156491733E+03  0.00000000000E+00 0. -1.
      99926    2    1    2    0    0 -0.14210854715E-13  0.71054273576E-14 -0.16135215871E+03  0.48177767595E+03  0.45395507478E+03 0.  0.
      99925    2    3    3    0    0  0.92512698349E+02 -0.34010995759E+02 -0.15860515141E+03  0.32249678778E+03  0.26293200049E+03 0.  0.
         25    1    4    4    0    0  0.51226505532E+02 -0.57676123182E+02 -0.82686252854E+02  0.16862744310E+03  0.12509000000E+03 0.  0.
         25    1    4    4    0    0  0.41286192817E+02  0.23665127423E+02 -0.75918898560E+02  0.15386934468E+03  0.12509000000E+03 0.  0.
         25    1    3    3    0    0 -0.92512698349E+02  0.34010995759E+02 -0.27470072991E+01  0.15928088817E+03  0.12509000000E+03 0.  0.
<mgrwt>
<rscale>  2 0.45395507E+03</rscale>
<asrwt>0</asrwt>
<pdfrwt beam="1">  1       21 0.23560700E-01 0.45395507E+03</pdfrwt>
<pdfrwt beam="2">  1       21 0.47288957E-01 0.45395507E+03</pdfrwt>
<totfact> 0.67125982E+04</totfact>
</mgrwt>
</event>
<event>
 7    0  0.4707675E-002  0.4043900E+03  0.7546771E-02  0.1042270E+00
         21   -1    0    0  502  501  0.00000000000E+00  0.00000000000E+00  0.13364748208E+03  0.13364748208E+03  0.00000000000E+00 0. -1.
         21   -1    0    0  501  502 -0.00000000000E+00 -0.00000000000E+00 -0.30590040037E+03  0.30590040037E+03  0.00000000000E+00 0. -1.
      99926    2    1    2    0    0  0.00000000000E+00  0.00000000000E+00 -0.17225291829E+03  0.43954788246E+03  0.40439000125E+03 0.  0.
      99925    2    3    3    0    0 -0.25097111156E+02 -0.35959455513E+02 -0.81371525403E+02  0.27883110330E+03  0.26306370254E+03 0.  0.
         25    1    3    3    0    0  0.25097111156E+02  0.35959455513E+02 -0.90881392886E+02  0.16071677916E+03  0.12509000000E+03 0.  0.
         25    1    4    4    0    0  0.26235585048E+02 -0.22662790837E+02 -0.51961493203E+02  0.13981921501E+03  0.12509000000E+03 0.  0.
         25    1    4    4    0    0 -0.51332696204E+02 -0.13296664676E+02 -0.29410032199E+02  0.13901188829E+03  0.12509000000E+03 0.  0.
<mgrwt>
<rscale>  2 0.40439000E+03</rscale>
<asrwt>0</asrwt>
<pdfrwt beam="1">  1       21 0.19654041E-01 0.40439000E+03</pdfrwt>
<pdfrwt beam="2">  1       21 0.44985354E-01 0.40439000E+03</pdfrwt>
<totfact> 0.10655149E+05</totfact>
</mgrwt>
</event>
<event>
 7    0  0.4707675E-002  0.4549019E+03  0.7546771E-02  0.1026270E+00
         21   -1    0    0  502  501  0.00000000000E+00  0.00000000000E+00  0.89245409401E+02  0.89245409401E+02  0.00000000000E+00 0.  1.
         21   -1    0    0  501  502 -0.00000000000E+00 -0.00000000000E+00 -0.57968167614E+03  0.57968167614E+03  0.00000000000E+00 0.  1.
      99926    2    1    2    0    0 -0.35527136788E-14 -0.14210854715E-13 -0.49043626674E+03  0.66892708555E+03  0.45490187298E+03 0.  0.
      99925    2    3    3    0    0 -0.26754634641E+02 -0.96326501678E+02 -0.23105402625E+03  0.36409719826E+03  0.26303270012E+03 0.  0.
         25    1    3    3    0    0  0.26754634641E+02  0.96326501678E+02 -0.25938224049E+03  0.30482988729E+03  0.12509000000E+03 0.  0.
         25    1    4    4    0    0  0.22023278009E+02 -0.25783820576E+02 -0.10120193688E+03  0.16443591550E+03  0.12509000000E+03 0.  0.
         25    1    4    4    0    0 -0.48777912650E+02 -0.70542681103E+02 -0.12985208937E+03  0.19966128276E+03  0.12509000000E+03 0.  0.
<mgrwt>
<rscale>  2 0.45490187E+03</rscale>
<asrwt>0</asrwt>
<pdfrwt beam="1">  1       21 0.13124325E-01 0.45490187E+03</pdfrwt>
<pdfrwt beam="2">  1       21 0.85247302E-01 0.45490187E+03</pdfrwt>
<totfact> 0.54664989E+04</totfact>
</mgrwt>
</event>
<event>
 7    0  0.4707675E-002  0.4541016E+03  0.7546771E-02  0.1026506E+00
         21   -1    0    0  502  501  0.00000000000E+00  0.00000000000E+00  0.10964065756E+03  0.10964065756E+03  0.00000000000E+00 0.  1.
         21   -1    0    0  501  502 -0.00000000000E+00 -0.00000000000E+00 -0.47019122574E+03  0.47019122574E+03  0.00000000000E+00 0.  1.
      99926    2    1    2    0    0  0.14210854715E-13  0.00000000000E+00 -0.36055056819E+03  0.57983188330E+03  0.45410164135E+03 0.  0.
      99925    2    3    3    0    0  0.70502724721E+02 -0.80514725380E+02 -0.18328409565E+03  0.33791419982E+03  0.26294427456E+03 0.  0.
         25    1    3    3    0    0 -0.70502724721E+02  0.80514725380E+02 -0.17726647253E+03  0.24191768348E+03  0.12509000000E+03 0.  0.
         25    1    4    4    0    0  0.38077809243E+02 -0.44554711351E+01 -0.11042216649E+03  0.17120261018E+03  0.12509000000E+03 0.  0.
         25    1    4    4    0    0  0.32424915478E+02 -0.76059254245E+02 -0.72861929168E+02  0.16671158965E+03  0.12509000000E+03 0.  0.
<mgrwt>
<rscale>  2 0.45410164E+03</rscale>
<asrwt>0</asrwt>
<pdfrwt beam="1">  1       21 0.16123626E-01 0.45410164E+03</pdfrwt>
<pdfrwt beam="2">  1       21 0.69145769E-01 0.45410164E+03</pdfrwt>
<totfact> 0.60364742E+04</totfact>
</mgrwt>
</event>
<event>
 7    0  0.4707675E-002  0.4255100E+03  0.7546771E-02  0.1035288E+00
         21   -1    0    0  502  501  0.00000000000E+00  0.00000000000E+00  0.45839027972E+03  0.45839027972E+03  0.00000000000E+00 0. -1.
         21   -1    0    0  501  502 -0.00000000000E+00 -0.00000000000E+00 -0.98747034514E+02  0.98747034514E+02  0.00000000000E+00 0. -1.
      99926    2    1    2    0    0  0.00000000000E+00 -0.35527136788E-14  0.35964324521E+03  0.55713731424E+03  0.42550995651E+03 0.  0.
      99925    2    3    3    0    0 -0.78826580725E+02  0.22700829538E+02  0.24387685493E+03  0.36798572765E+03  0.26307530840E+03 0.  0.
         25    1    4    4    0    0 -0.62253710846E+02 -0.22230548304E+02  0.11937973849E+03  0.18511821049E+03  0.12509000000E+03 0.  0.
         25    1    3    3    0    0  0.78826580725E+02 -0.22700829538E+02  0.11576639028E+03  0.18915158659E+03  0.12509000000E+03 0.  0.
         25    1    4    4    0    0 -0.16572869879E+02  0.44931377842E+02  0.12449711644E+03  0.18286751716E+03  0.12509000000E+03 0.  0.
<mgrwt>
<rscale>  2 0.42550996E+03</rscale>
<asrwt>0</asrwt>
<pdfrwt beam="1">  1       21 0.67410334E-01 0.42550996E+03</pdfrwt>
<pdfrwt beam="2">  1       21 0.14521623E-01 0.42550996E+03</pdfrwt>
<totfact> 0.78078112E+04</totfact>
</mgrwt>
</event>
<event>
 7    0  0.4707675E-002  0.4518304E+03  0.7546771E-02  0.1027178E+00
         21   -1    0    0  502  501  0.00000000000E+00  0.00000000000E+00  0.25563431546E+02  0.25563431546E+02  0.00000000000E+00 0. -1.
         21   -1    0    0  501  502 -0.00000000000E+00 -0.00000000000E+00 -0.19965116284E+04  0.19965116284E+04  0.00000000000E+00 0. -1.
      99926    2    1    2    0    0  0.00000000000E+00 -0.14210854715E-13 -0.19709481969E+04  0.20220750600E+04  0.45183044760E+03 0.  0.
      99925    2    3    3    0    0  0.70102260480E+02 -0.69151030728E+02 -0.10220189580E+04  0.10598846420E+04  0.26293822814E+03 0.  0.
         25    1    4    4    0    0  0.17843152448E+02 -0.20597488942E+01 -0.38752097322E+03  0.40760597817E+03  0.12509000000E+03 0.  0.
         25    1    4    4    0    0  0.52259108033E+02 -0.67091281834E+02 -0.63449798477E+03  0.65227866380E+03  0.12509000000E+03 0.  0.
         25    1    3    3    0    0 -0.70102260480E+02  0.69151030728E+02 -0.94892923892E+03  0.96219041803E+03  0.12509000000E+03 0.  0.
<mgrwt>
<rscale>  2 0.45183045E+03</rscale>
<asrwt>0</asrwt>
<pdfrwt beam="1">  1       21 0.37593288E-02 0.45183045E+03</pdfrwt>
<pdfrwt beam="2">  1       21 0.29360460E+00 0.45183045E+03</pdfrwt>
<totfact> 0.13686232E+04</totfact>
</mgrwt>
</event>
<event>
 7    0  0.4707675E-002  0.4048774E+03  0.7546771E-02  0.1042104E+00
         21   -1    0    0  502  501  0.00000000000E+00  0.00000000000E+00  0.62457366120E+02  0.62457366120E+02  0.00000000000E+00 0. -1.
         21   -1    0    0  501  502 -0.00000000000E+00 -0.00000000000E+00 -0.65615027149E+03  0.65615027149E+03  0.00000000000E+00 0. -1.
      99926    2    1    2    0    0 -0.71054273576E-14 -0.35527136788E-14 -0.59369290536E+03  0.71860763761E+03  0.40487735297E+03 0.  0.
      99925    2    3    3    0    0  0.46938545874E+02  0.18442337298E+02 -0.42624976431E+03  0.50360052033E+03  0.26340325664E+03 0.  0.
         25    1    4    4    0    0  0.18690970522E+02 -0.20128352271E+02 -0.26241646248E+03  0.29200070347E+03  0.12509000000E+03 0.  0.
         25    1    3    3    0    0 -0.46938545874E+02 -0.18442337298E+02 -0.16744314105E+03  0.21500711728E+03  0.12509000000E+03 0.  0.
         25    1    4    4    0    0  0.28247575352E+02  0.38570689569E+02 -0.16383330183E+03  0.21159981686E+03  0.12509000000E+03 0.  0.
<mgrwt>
<rscale>  2 0.40487735E+03</rscale>
<asrwt>0</asrwt>
<pdfrwt beam="1">  1       21 0.91849075E-02 0.40487735E+03</pdfrwt>
<pdfrwt beam="2">  1       21 0.96492680E-01 0.40487735E+03</pdfrwt>
<totfact> 0.78609805E+04</totfact>
</mgrwt>
</event>
<event>
 7    0  0.4707675E-002  0.4463231E+03  0.7546771E-02  0.1028824E+00
         21   -1    0    0  502  501  0.00000000000E+00  0.00000000000E+00  0.54737124409E+03  0.54737124409E+03  0.00000000000E+00 0. -1.
         21   -1    0    0  501  502 -0.00000000000E+00 -0.00000000000E+00 -0.90982283084E+02  0.90982283084E+02  0.00000000000E+00 0. -1.
      99926    2    1    2    0    0  0.00000000000E+00  0.00000000000E+00  0.45638896101E+03  0.63835352718E+03  0.44632313622E+03 0.  0.
      99925    2    3    3    0    0  0.87936859477E+02  0.32502355025E+02  0.22272496775E+03  0.35722070415E+03  0.26307969492E+03 0.  0.
         25    1    4    4    0    0  0.85028906107E+02  0.10331340069E+02  0.13284757411E+03  0.20157538914E+03  0.12509000000E+03 0.  0.
         25    1    3    3    0    0 -0.87936859477E+02 -0.32502355025E+02  0.23366399326E+03  0.28113282302E+03  0.12509000000E+03 0.  0.
         25    1    4    4    0    0  0.29079533699E+01  0.22171014956E+02  0.89877393647E+02  0.15564531501E+03  0.12509000000E+03 0.  0.
<mgrwt>
<rscale>  2 0.44632314E+03</rscale>
<asrwt>0</asrwt>
<pdfrwt beam="1">  1       21 0.80495770E-01 0.44632314E+03</pdfrwt>
<pdfrwt beam="2">  1       21 0.13379748E-01 0.44632314E+03</pdfrwt>
<totfact> 0.60408785E+04</totfact>
</mgrwt>
</event>
<event>
 7    0  0.4707675E-002  0.4552949E+03  0.7546771E-02  0.1026155E+00
         21   -1    0    0  502  501  0.00000000000E+00  0.00000000000E+00  0.60126263158E+03  0.60126263158E+03  0.00000000000E+00 0.  1.
         21   -1    0    0  501  502 -0.00000000000E+00 -0.00000000000E+00 -0.86190886700E+02  0.86190886700E+02  0.00000000000E+00 0.  1.
      99926    2    1    2    0    0  0.00000000000E+00  0.00000000000E+00  0.51507174488E+03  0.68745351828E+03  0.45529489062E+03 0.  0.
      99925    2    3    3    0    0  0.11544049063E+02 -0.29663803318E+02  0.15863805947E+03  0.30836818951E+03  0.26251038092E+03 0.  0.
         25    1    3    3    0    0 -0.11544049063E+02  0.29663803318E+02  0.35643368541E+03  0.37908532877E+03  0.12509000000E+03 0.  0.
         25    1    4    4    0    0  0.27285559591E+02 -0.43107853020E+02  0.60442745182E+02  0.14799872398E+03  0.12509000000E+03 0.  0.
         25    1    4    4    0    0 -0.15741510529E+02  0.13444049702E+02  0.98195314292E+02  0.16036946553E+03  0.12509000000E+03 0.  0.
<mgrwt>
<rscale>  2 0.45529489E+03</rscale>
<asrwt>0</asrwt>
<pdfrwt beam="1">  1       21 0.88420973E-01 0.45529489E+03</pdfrwt>
<pdfrwt beam="2">  1       21 0.12675131E-01 0.45529489E+03</pdfrwt>
<totfact> 0.53465390E+04</totfact>
</mgrwt>
</event>
<event>
 7    0  0.4707675E-002  0.4622995E+03  0.7546771E-02  0.1024116E+00
         21   -1    0    0  502  501  0.00000000000E+00  0.00000000000E+00  0.74403281541E+03  0.74403281541E+03  0.00000000000E+00 0.  1.
         21   -1    0    0  501  502 -0.00000000000E+00 -0.00000000000E+00 -0.71811633164E+02  0.71811633164E+02  0.00000000000E+00 0.  1.
      99926    2    1    2    0    0  0.53290705182E-14  0.00000000000E+00  0.67222118225E+03  0.81584444858E+03  0.46229952023E+03 0.  0.
      99925    2    3    3    0    0  0.10050342243E+02  0.88739768463E+02  0.56123529055E+03  0.62626298286E+03  0.26314352825E+03 0.  0.
         25    1    4    4    0    0 -0.25279290521E+02  0.17928374090E+02  0.28774007847E+03  0.31528135052E+03  0.12509000000E+03 0.  0.
         25    1    4    4    0    0  0.35329632764E+02  0.70811394373E+02  0.27349521209E+03  0.31098163235E+03  0.12509000000E+03 0.  0.
         25    1    3    3    0    0 -0.10050342243E+02 -0.88739768463E+02  0.11098589170E+03  0.18958146571E+03  0.12509000000E+03 0.  0.
<mgrwt>
<rscale>  2 0.46229952E+03</rscale>
<asrwt>0</asrwt>
<pdfrwt beam="1">  1       21 0.10941659E+00 0.46229952E+03</pdfrwt>
<pdfrwt beam="2">  1       21 0.10560535E-01 0.46229952E+03</pdfrwt>
<totfact> 0.44409105E+04</totfact>
</mgrwt>
</event>
<event>
 7    0  0.4707675E-002  0.4524071E+03  0.7546771E-02  0.1027007E+00
         21   -1    0    0  502  501  0.00000000000E+00  0.00000000000E+00  0.20604526294E+03  0.20604526294E+03  0.00000000000E+00 0. -1.
         21   -1    0    0  501  502 -0.00000000000E+00 -0.00000000000E+00 -0.24833395558E+03  0.24833395558E+03  0.00000000000E+00 0. -1.
      99926    2    1    2    0    0  0.00000000000E+00  0.00000000000E+00 -0.42288692640E+02  0.45437921852E+03  0.45240705199E+03 0.  0.
      99925    2    3    3    0    0 -0.28665996849E+02 -0.88894919860E+02  0.32901494254E+02  0.28110164219E+03  0.26308093577E+03 0.  0.
         25    1    4    4    0    0 -0.51864395472E+02 -0.60563134790E+02  0.92183641360E+01  0.14862804295E+03  0.12509000000E+03 0.  0.
         25    1    4    4    0    0  0.23198398623E+02 -0.28331785070E+02  0.23683130118E+02  0.13247359924E+03  0.12509000000E+03 0.  0.
         25    1    3    3    0    0  0.28665996849E+02  0.88894919860E+02 -0.75190186894E+02  0.17327757633E+03  0.12509000000E+03 0.  0.
<mgrwt>
<rscale>  2 0.45240705E+03</rscale>
<asrwt>0</asrwt>
<pdfrwt beam="1">  1       21 0.30300774E-01 0.45240705E+03</pdfrwt>
<pdfrwt beam="2">  1       21 0.36519699E-01 0.45240705E+03</pdfrwt>
<totfact> 0.70028895E+04</totfact>
</mgrwt>
</event>
<event>
 7    0  0.4707675E-002  0.4557718E+03  0.7546771E-02  0.1026015E+00
         21   -1    0    0  502  501  0.00000000000E+00  0.00000000000E+00  0.27891610157E+03  0.27891610157E+03  0.00000000000E+00 0. -1.
         21   -1    0    0  501  502 -0.00000000000E+00 -0.00000000000E+00 -0.18619216653E+03  0.18619216653E+03  0.00000000000E+00 0. -1.
      99926    2    1    2    0    0  0.00000000000E+00  0.14210854715E-13  0.92723935044E+02  0.46510826810E+03  0.45577184306E+03 0.  0.
      99925    2    3    3    0    0 -0.51606883498E+02  0.93596453140E+02  0.98412122062E+02  0.30047707410E+03  0.26301703334E+03 0.  0.
         25    1    4    4    0    0 -0.67799548227E+01  0.81675512753E+02  0.64213040692E+02  0.16275036057E+03  0.12509000000E+03 0.  0.
         25    1    3    3    0    0  0.51606883498E+02 -0.93596453140E+02 -0.56881870183E+01  0.16463119400E+03  0.12509000000E+03 0.  0.
         25    1    4    4    0    0 -0.44826928675E+02  0.11920940387E+02  0.34199081370E+02  0.13772671353E+03  0.12509000000E+03 0.  0.
<mgrwt>
<rscale>  2 0.45577184E+03</rscale>
<asrwt>0</asrwt>
<pdfrwt beam="1">  1       21 0.41017074E-01 0.45577184E+03</pdfrwt>
<pdfrwt beam="2">  1       21 0.27381201E-01 0.45577184E+03</pdfrwt>
<totfact> 0.67387814E+04</totfact>
</mgrwt>
</event>
<event>
 7    0  0.4707675E-002  0.4038289E+03  0.7546771E-02  0.1042462E+00
         21   -1    0    0  502  501  0.00000000000E+00  0.00000000000E+00  0.13389229387E+03  0.13389229387E+03  0.00000000000E+00 0. -1.
         21   -1    0    0  501  502 -0.00000000000E+00 -0.00000000000E+00 -0.30449439924E+03  0.30449439924E+03  0.00000000000E+00 0. -1.
      99926    2    1    2    0    0 -0.35527136788E-14  0.35527136788E-14 -0.17060210537E+03  0.43838669311E+03  0.40382894193E+03 0.  0.
      99925    2    3    3    0    0 -0.29138989712E+02 -0.20746476913E+02 -0.15498562927E+03  0.30734899070E+03  0.26298927693E+03 0.  0.
         25    1    4    4    0    0 -0.34979626004E+02 -0.97334833805E+00 -0.11748272557E+03  0.17514057368E+03  0.12509000000E+03 0.  0.
         25    1    3    3    0    0  0.29138989712E+02  0.20746476913E+02 -0.15616476106E+02  0.13103770241E+03  0.12509000000E+03 0.  0.
         25    1    4    4    0    0  0.58406362920E+01 -0.19773128575E+02 -0.37502903700E+02  0.13220841702E+03  0.12509000000E+03 0.  0.
<mgrwt>
<rscale>  2 0.40382894E+03</rscale>
<asrwt>0</asrwt>
<pdfrwt beam="1">  1       21 0.19690044E-01 0.40382894E+03</pdfrwt>
<pdfrwt beam="2">  1       21 0.44778587E-01 0.40382894E+03</pdfrwt>
<totfact> 0.10722135E+05</totfact>
</mgrwt>
</event>
<event>
 7    0  0.4707675E-002  0.4233069E+03  0.7546771E-02  0.1035995E+00
         21   -1    0    0  502  501  0.00000000000E+00  0.00000000000E+00  0.16594330304E+03  0.16594330304E+03  0.00000000000E+00 0. -1.
         21   -1    0    0  501  502 -0.00000000000E+00 -0.00000000000E+00 -0.26995472052E+03  0.26995472052E+03  0.00000000000E+00 0. -1.
      99926    2    1    2    0    0 -0.35527136788E-14  0.71054273576E-14 -0.10401141748E+03  0.43589802356E+03  0.42330687684E+03 0.  0.
      99925    2    3    3    0    0 -0.30738606912E+02  0.57142279430E+02 -0.19086151539E+02  0.27136866160E+03  0.26280518880E+03 0.  0.
         25    1    4    4    0    0 -0.19173920821E+02  0.69567593510E+02 -0.76265440363E+01  0.14461314456E+03  0.12509000000E+03 0.  0.
         25    1    4    4    0    0 -0.11564686091E+02 -0.12425314079E+02 -0.11459607502E+02  0.12675551703E+03  0.12509000000E+03 0.  0.
         25    1    3    3    0    0  0.30738606912E+02 -0.57142279430E+02 -0.84925265940E+02  0.16452936196E+03  0.12509000000E+03 0.  0.
<mgrwt>
<rscale>  2 0.42330688E+03</rscale>
<asrwt>0</asrwt>
<pdfrwt beam="1">  1       21 0.24403427E-01 0.42330688E+03</pdfrwt>
<pdfrwt beam="2">  1       21 0.39699223E-01 0.42330688E+03</pdfrwt>
<totfact> 0.90832510E+04</totfact>
</mgrwt>
</event>
<event>
 6    0  0.4707675E-002  0.4572727E+03  0.7546771E-02  0.1025575E+00
         21   -1    0    0  502  501  0.00000000000E+00  0.00000000000E+00  0.45969690233E+02  0.45969690233E+02  0.00000000000E+00 0.  1.
         21   -1    0    0  501  502 -0.00000000000E+00 -0.00000000000E+00 -0.11371534401E+04  0.11371534401E+04  0.00000000000E+00 0.  1.
      99926    2    1    2    0    0  0.00000000000E+00  0.00000000000E+00 -0.10911837499E+04  0.11831231304E+04  0.45727274745E+03 0.  0.
         25    1    3    3    0    0  0.67729088923E+02 -0.10646449439E+02 -0.33901206488E+03  0.36780057723E+03  0.12509000000E+03 0.  0.
         25    1    3    3    0    0  0.19735550725E+02  0.26929950435E+02 -0.17256242499E+03  0.21573134407E+03  0.12509000000E+03 0.  0.
         25    1    3    3    0    0 -0.87464639648E+02 -0.16283500996E+02 -0.57960926001E+03  0.59959120906E+03  0.12509000000E+03 0.  0.
<mgrwt>
<rscale>  2 0.45727275E+03</rscale>
<asrwt>0</asrwt>
<pdfrwt beam="1">  1       21 0.67602487E-02 0.45727275E+03</pdfrwt>
<pdfrwt beam="2">  1       21 0.16722844E+00 0.45727275E+03</pdfrwt>
<totfact> 0.32122886E+04</totfact>
</mgrwt>
</event>
<event>
 7    0  0.4707675E-002  0.4557648E+03  0.7546771E-02  0.1026017E+00
         21   -1    0    0  502  501  0.00000000000E+00  0.00000000000E+00  0.64625454053E+02  0.64625454053E+02  0.00000000000E+00 0.  1.
         21   -1    0    0  501  502 -0.00000000000E+00 -0.00000000000E+00 -0.80355948986E+03  0.80355948986E+03  0.00000000000E+00 0.  1.
      99926    2    1    2    0    0  0.00000000000E+00  0.00000000000E+00 -0.73893403581E+03  0.86818494391E+03  0.45576483801E+03 0.  0.
      99925    2    3    3    0    0 -0.67611943687E+02 -0.66436169498E+02 -0.34393797492E+03  0.44315019738E+03  0.26287568792E+03 0.  0.
         25    1    3    3    0    0  0.67611943687E+02  0.66436169498E+02 -0.39499606088E+03  0.42503474653E+03  0.12509000000E+03 0.  0.
         25    1    4    4    0    0 -0.23104582059E+02 -0.47694378920E+02 -0.23030686545E+03  0.26738985744E+03  0.12509000000E+03 0.  0.
         25    1    4    4    0    0 -0.44507361628E+02 -0.18741790578E+02 -0.11363110948E+03  0.17576033994E+03  0.12509000000E+03 0.  0.
<mgrwt>
<rscale>  2 0.45576484E+03</rscale>
<asrwt>0</asrwt>
<pdfrwt beam="1">  1       21 0.95037444E-02 0.45576484E+03</pdfrwt>
<pdfrwt beam="2">  1       21 0.11817050E+00 0.45576484E+03</pdfrwt>
<totfact> 0.44369660E+04</totfact>
</mgrwt>
</event>
<event>
 7    0  0.4707675E-002  0.4083214E+03  0.7546771E-02  0.1040936E+00
         21   -1    0    0  502  501  0.00000000000E+00  0.00000000000E+00  0.13260268957E+04  0.13260268957E+04  0.00000000000E+00 0. -1.
         21   -1    0    0  501  502 -0.00000000000E+00 -0.00000000000E+00 -0.31433447748E+02  0.31433447748E+02  0.00000000000E+00 0. -1.
      99926    2    1    2    0    0  0.00000000000E+00  0.00000000000E+00  0.12945934480E+04  0.13574603435E+04  0.40832142800E+03 0.  0.
      99925    2    3    3    0    0 -0.57535065283E+02 -0.15641255800E+02  0.86590049362E+03  0.90692722612E+03  0.26301786251E+03 0.  0.
         25    1    3    3    0    0  0.57535065283E+02  0.15641255800E+02  0.42869295437E+03  0.45053311737E+03  0.12509000000E+03 0.  0.
         25    1    4    4    0    0 -0.28073805904E+02  0.32717102892E+02  0.41453573909E+03  0.43513898295E+03  0.12509000000E+03 0.  0.
         25    1    4    4    0    0 -0.29461259379E+02 -0.48358358691E+02  0.45136475453E+03  0.47178824317E+03  0.12509000000E+03 0.  0.
<mgrwt>
<rscale>  2 0.40832143E+03</rscale>
<asrwt>0</asrwt>
<pdfrwt beam="1">  1       21 0.19500392E+00 0.40832143E+03</pdfrwt>
<pdfrwt beam="2">  1       21 0.46225667E-02 0.40832143E+03</pdfrwt>
<totfact> 0.40220860E+04</totfact>
</mgrwt>
</event>
<event>
 7    0  0.4707675E-002  0.4543178E+03  0.7546771E-02  0.1026442E+00
         21   -1    0    0  502  501  0.00000000000E+00  0.00000000000E+00  0.68567773386E+02  0.68567773386E+02  0.00000000000E+00 0.  1.
         21   -1    0    0  501  502 -0.00000000000E+00 -0.00000000000E+00 -0.75255717337E+03  0.75255717337E+03  0.00000000000E+00 0.  1.
      99926    2    1    2    0    0  0.14210854715E-13 -0.26645352591E-14 -0.68398939998E+03  0.82112494676E+03  0.45431781706E+03 0.  0.
      99925    2    3    3    0    0 -0.10380884107E+03  0.72461036918E+01 -0.35255028798E+03  0.45189849243E+03  0.26285311566E+03 0.  0.
         25    1    4    4    0    0 -0.38500879121E+02  0.33093445704E+02 -0.13209982959E+03  0.18887923899E+03  0.12509000000E+03 0.  0.
         25    1    3    3    0    0  0.10380884107E+03 -0.72461036918E+01 -0.33143911201E+03  0.36922645432E+03  0.12509000000E+03 0.  0.
         25    1    4    4    0    0 -0.65307961945E+02 -0.25847342013E+02 -0.22045045838E+03  0.26301925345E+03  0.12509000000E+03 0.  0.
<mgrwt>
<rscale>  2 0.45431782E+03</rscale>
<asrwt>0</asrwt>
<pdfrwt beam="1">  1       21 0.10083496E-01 0.45431782E+03</pdfrwt>
<pdfrwt beam="2">  1       21 0.11067017E+00 0.45431782E+03</pdfrwt>
<totfact> 0.47011080E+04</totfact>
</mgrwt>
</event>
<event>
 7    0  0.4707675E-002  0.4601454E+03  0.7546771E-02  0.1024739E+00
         21   -1    0    0  502  501  0.00000000000E+00  0.00000000000E+00  0.97323112131E+02  0.97323112131E+02  0.00000000000E+00 0.  1.
         21   -1    0    0  501  502 -0.00000000000E+00 -0.00000000000E+00 -0.54389396440E+03  0.54389396440E+03  0.00000000000E+00 0.  1.
      99926    2    1    2    0    0  0.35527136788E-14  0.35527136788E-14 -0.44657085227E+03  0.64121707653E+03  0.46014542607E+03 0.  0.
      99925    2    3    3    0    0  0.22107265725E+02  0.16554348432E+02 -0.11942941633E+03  0.28988844852E+03  0.26269592584E+03 0.  0.
         25    1    3    3    0    0 -0.22107265725E+02 -0.16554348432E+02 -0.32714143594E+03  0.35132862801E+03  0.12509000000E+03 0.  0.
         25    1    4    4    0    0  0.37917036621E+02  0.82890313649E+00 -0.28886668371E+02  0.13386686093E+03  0.12509000000E+03 0.  0.
         25    1    4    4    0    0 -0.15809770896E+02  0.15725445296E+02 -0.90542747958E+02  0.15602158759E+03  0.12509000000E+03 0.  0.
<mgrwt>
<rscale>  2 0.46014543E+03</rscale>
<asrwt>0</asrwt>
<pdfrwt beam="1">  1       21 0.14312222E-01 0.46014543E+03</pdfrwt>
<pdfrwt beam="2">  1       21 0.79984407E-01 0.46014543E+03</pdfrwt>
<totfact> 0.53984638E+04</totfact>
</mgrwt>
</event>
<event>
 7    0  0.4707675E-002  0.4569566E+03  0.7546771E-02  0.1025668E+00
         21   -1    0    0  502  501  0.00000000000E+00  0.00000000000E+00  0.89762990435E+03  0.89762990435E+03  0.00000000000E+00 0.  1.
         21   -1    0    0  501  502 -0.00000000000E+00 -0.00000000000E+00 -0.58155734104E+02  0.58155734104E+02  0.00000000000E+00 0.  1.
      99926    2    1    2    0    0 -0.88817841970E-15  0.00000000000E+00  0.83947417024E+03  0.95578563845E+03  0.45695656704E+03 0.  0.
      99925    2    3    3    0    0  0.62771543336E+01 -0.95317555638E+02  0.66149196725E+03  0.71819352629E+03  0.26287921064E+03 0.  0.
         25    1    4    4    0    0 -0.22870139674E+02 -0.65618907546E+02  0.40983277215E+03  0.43409594969E+03  0.12509000000E+03 0.  0.
         25    1    4    4    0    0  0.29147294008E+02 -0.29698648093E+02  0.25165919510E+03  0.28409757660E+03  0.12509000000E+03 0.  0.
         25    1    3    3    0    0 -0.62771543336E+01  0.95317555638E+02  0.17798220299E+03  0.23759211216E+03  0.12509000000E+03 0.  0.
<mgrwt>
<rscale>  2 0.45695657E+03</rscale>
<asrwt>0</asrwt>
<pdfrwt beam="1">  1       21 0.13200439E+00 0.45695657E+03</pdfrwt>
<pdfrwt beam="2">  1       21 0.85523144E-02 0.45695657E+03</pdfrwt>
<totfact> 0.40287532E+04</totfact>
</mgrwt>
</event>
<event>
 7    0  0.4707675E-002  0.4525333E+03  0.7546771E-02  0.1026969E+00
         21   -1    0    0  502  501  0.00000000000E+00  0.00000000000E+00  0.18852944397E+02  0.18852944397E+02  0.00000000000E+00 0.  1.
         21   -1    0    0  501  502 -0.00000000000E+00 -0.00000000000E+00 -0.27155762469E+04  0.27155762469E+04  0.00000000000E+00 0.  1.
      99926    2    1    2    0    0  0.71054273576E-14  0.00000000000E+00 -0.26967233026E+04  0.27344291913E+04  0.45253334900E+03 0.  0.
      99925    2    3    3    0    0 -0.33874930312E+02  0.93413273517E+02 -0.14072439886E+04  0.14350916833E+04  0.26320893884E+03 0.  0.
         25    1    4    4    0    0  0.17657519011E+02  0.60524412384E+02 -0.79179747818E+03  0.80409312086E+03  0.12509000000E+03 0.  0.
         25    1    4    4    0    0 -0.51532449323E+02  0.32888861133E+02 -0.61544651042E+03  0.63099856245E+03  0.12509000000E+03 0.  0.
         25    1    3    3    0    0  0.33874930312E+02 -0.93413273517E+02 -0.12894793140E+04  0.12993375080E+04  0.12509000000E+03 0.  0.
<mgrwt>
<rscale>  2 0.45253335E+03</rscale>
<asrwt>0</asrwt>
<pdfrwt beam="1">  1       21 0.27724934E-02 0.45253335E+03</pdfrwt>
<pdfrwt beam="2">  1       21 0.39934923E+00 0.45253335E+03</pdfrwt>
<totfact> 0.51158943E+03</totfact>
</mgrwt>
</event>
<event>
 7    0  0.4707675E-002  0.4608191E+03  0.7546771E-02  0.1024544E+00
         21   -1    0    0  502  501  0.00000000000E+00  0.00000000000E+00  0.17897826175E+03  0.17897826175E+03  0.00000000000E+00 0. -1.
         21   -1    0    0  501  502 -0.00000000000E+00 -0.00000000000E+00 -0.29662021426E+03  0.29662021426E+03  0.00000000000E+00 0. -1.
      99926    2    1    2    0    0  0.00000000000E+00  0.00000000000E+00 -0.11764195251E+03  0.47559847602E+03  0.46081914174E+03 0.  0.
      99925    2    3    3    0    0 -0.27113899219E+02  0.84612593486E+02 -0.15466848923E+03  0.31776018209E+03  0.26297288312E+03 0.  0.
         25    1    4    4    0    0 -0.40758122098E+01  0.37024067389E+02 -0.31146080474E+02  0.13418263763E+03  0.12509000000E+03 0.  0.
         25    1    4    4    0    0 -0.23038087009E+02  0.47588526098E+02 -0.12352240875E+03  0.18357754447E+03  0.12509000000E+03 0.  0.
         25    1    3    3    0    0  0.27113899219E+02 -0.84612593486E+02  0.37026536713E+02  0.15783829392E+03  0.12509000000E+03 0.  0.
<mgrwt>
<rscale>  2 0.46081914E+03</rscale>
<asrwt>0</asrwt>
<pdfrwt beam="1">  1       21 0.26320333E-01 0.46081914E+03</pdfrwt>
<pdfrwt beam="2">  1       21 0.43620619E-01 0.46081914E+03</pdfrwt>
<totfact> 0.64014853E+04</totfact>
</mgrwt>
</event>
<event>
 6    0  0.4707675E-002  0.4579066E+03  0.7546771E-02  0.1025390E+00
         21   -1    0    0  502  501  0.00000000000E+00  0.00000000000E+00  0.22619224922E+03  0.22619224922E+03  0.00000000000E+00 0. -1.
         21   -1    0    0  501  502 -0.00000000000E+00 -0.00000000000E+00 -0.23174801787E+03  0.23174801787E+03  0.00000000000E+00 0. -1.
      99926    2    1    2    0    0  0.14210854715E-13  0.00000000000E+00 -0.55557686426E+01  0.45794026709E+03  0.45790656433E+03 0.  0.
         25    1    3    3    0    0  0.35671505996E+02  0.14943452257E+02 -0.92446781998E+01  0.13125827700E+03  0.12509000000E+03 0.  0.
         25    1    3    3    0    0 -0.75906590453E+02  0.51935791247E+02  0.63265878690E+02  0.16765803408E+03  0.12509000000E+03 0.  0.
         25    1    3    3    0    0  0.40235084457E+02 -0.66879243503E+02 -0.59576969133E+02  0.15902395601E+03  0.12509000000E+03 0.  0.
<mgrwt>
<rscale>  2 0.45790656E+03</rscale>
<asrwt>0</asrwt>
<pdfrwt beam="1">  1       21 0.33263566E-01 0.45790656E+03</pdfrwt>
<pdfrwt beam="2">  1       21 0.34080591E-01 0.45790656E+03</pdfrwt>
<totfact> 0.66768975E+04</totfact>
</mgrwt>
</event>
<event>
 7    0  0.4707675E-002  0.4648714E+03  0.7546771E-02  0.1023378E+00
         21   -1    0    0  502  501  0.00000000000E+00  0.00000000000E+00  0.30112116900E+03  0.30112116900E+03  0.00000000000E+00 0. -1.
         21   -1    0    0  501  502 -0.00000000000E+00 -0.00000000000E+00 -0.17941734147E+03  0.17941734147E+03  0.00000000000E+00 0. -1.
      99926    2    1    2    0    0  0.00000000000E+00  0.14210854715E-13  0.12170382754E+03  0.48053851047E+03  0.46487142137E+03 0.  0.
      99925    2    3    3    0    0 -0.47665226183E+02  0.85292424188E+02  0.15170685407E+03  0.31900070959E+03  0.26305838086E+03 0.  0.
         25    1    4    4    0    0 -0.46671597561E+01  0.13996324262E+02  0.41369065765E+02  0.13257672185E+03  0.12509000000E+03 0.  0.
         25    1    3    3    0    0  0.47665226183E+02 -0.85292424188E+02 -0.30003026528E+02  0.16153780088E+03  0.12509000000E+03 0.  0.
         25    1    4    4    0    0 -0.42998066427E+02  0.71296099926E+02  0.11033778830E+03  0.18642398775E+03  0.12509000000E+03 0.  0.
<mgrwt>
<rscale>  2 0.46487142E+03</rscale>
<asrwt>0</asrwt>
<pdfrwt beam="1">  1       21 0.44282525E-01 0.46487142E+03</pdfrwt>
<pdfrwt beam="2">  1       21 0.26384903E-01 0.46487142E+03</pdfrwt>
<totfact> 0.61685290E+04</totfact>
</mgrwt>
</event>
<event>
 7    0  0.4707675E-002  0.4775357E+03  0.7546771E-02  0.1019815E+00
         21   -1    0    0  502  501  0.00000000000E+00  0.00000000000E+00  0.47537329574E+02  0.47537329574E+02  0.00000000000E+00 0.  1.
         21   -1    0    0  501  502 -0.00000000000E+00 -0.00000000000E+00 -0.11992698298E+04  0.11992698298E+04  0.00000000000E+00 0.  1.
      99926    2    1    2    0    0  0.00000000000E+00  0.00000000000E+00 -0.11517325002E+04  0.12468071594E+04  0.47753569562E+03 0.  0.
      99925    2    3    3    0    0 -0.12859824129E+03 -0.28321253359E+02 -0.76301056668E+03  0.81774789683E+03  0.26303402222E+03 0.  0.
         25    1    4    4    0    0 -0.10566302304E+03 -0.18909616395E+02 -0.38481972219E+03  0.41863584978E+03  0.12509000000E+03 0.  0.
         25    1    4    4    0    0 -0.22935218250E+02 -0.94116369639E+01 -0.37819084449E+03  0.39911204705E+03  0.12509000000E+03 0.  0.
         25    1    3    3    0    0  0.12859824129E+03  0.28321253359E+02 -0.38872193353E+03  0.42905926253E+03  0.12509000000E+03 0.  0.
<mgrwt>
<rscale>  2 0.47753570E+03</rscale>
<asrwt>0</asrwt>
<pdfrwt beam="1">  1       21 0.69907838E-02 0.47753570E+03</pdfrwt>
<pdfrwt beam="2">  1       21 0.17636321E+00 0.47753570E+03</pdfrwt>
<totfact> 0.25856670E+04</totfact>
</mgrwt>
</event>
<event>
 7    0  0.4707675E-002  0.4614646E+03  0.7546771E-02  0.1024357E+00
         21   -1    0    0  502  501  0.00000000000E+00  0.00000000000E+00  0.55233122788E+02  0.55233122788E+02  0.00000000000E+00 0. -1.
         21   -1    0    0  501  502 -0.00000000000E+00 -0.00000000000E+00 -0.96386729628E+03  0.96386729628E+03  0.00000000000E+00 0. -1.
      99926    2    1    2    0    0  0.00000000000E+00  0.00000000000E+00 -0.90863417349E+03  0.10191004191E+04  0.46146462801E+03 0.  0.
      99925    2    3    3    0    0  0.42076528672E+02 -0.78169310045E+02 -0.39311212846E+03  0.48124229436E+03  0.26301354536E+03 0.  0.
         25    1    4    4    0    0  0.52728514070E+02 -0.35730276340E+02 -0.15796163743E+03  0.21132045770E+03  0.12509000000E+03 0.  0.
         25    1    3    3    0    0 -0.42076528672E+02  0.78169310045E+02 -0.51552204503E+03  0.53785812471E+03  0.12509000000E+03 0.  0.
         25    1    4    4    0    0 -0.10651985399E+02 -0.42439033704E+02 -0.23515049104E+03  0.26992183667E+03  0.12509000000E+03 0.  0.
<mgrwt>
<rscale>  2 0.46146463E+03</rscale>
<asrwt>0</asrwt>
<pdfrwt beam="1">  1       21 0.81225178E-02 0.46146463E+03</pdfrwt>
<pdfrwt beam="2">  1       21 0.14174520E+00 0.46146463E+03</pdfrwt>
<totfact> 0.36551855E+04</totfact>
</mgrwt>
</event>
<event>
 7    0  0.4707675E-002  0.4391945E+03  0.7546771E-02  0.1030994E+00
         21   -1    0    0  502  501  0.00000000000E+00  0.00000000000E+00  0.67158799935E+03  0.67158799935E+03  0.00000000000E+00 0.  1.
         21   -1    0    0  501  502 -0.00000000000E+00 -0.00000000000E+00 -0.71804383295E+02  0.71804383295E+02  0.00000000000E+00 0.  1.
      99926    2    1    2    0    0  0.00000000000E+00  0.22204460493E-15  0.59978361605E+03  0.74339238264E+03  0.43919454515E+03 0.  0.
      99925    2    3    3    0    0 -0.64547952812E+02  0.10439689795E+01  0.25922458860E+03  0.37488799004E+03  0.26301347810E+03 0.  0.
         25    1    4    4    0    0 -0.26202027164E+02  0.27528924945E+02  0.16943912923E+03  0.21401288407E+03  0.12509000000E+03 0.  0.
         25    1    3    3    0    0  0.64547952812E+02 -0.10439689795E+01  0.34055902746E+03  0.36850439260E+03  0.12509000000E+03 0.  0.
         25    1    4    4    0    0 -0.38345925648E+02 -0.26484955966E+02  0.89785459368E+02  0.16087510597E+03  0.12509000000E+03 0.  0.
<mgrwt>
<rscale>  2 0.43919455E+03</rscale>
<asrwt>0</asrwt>
<pdfrwt beam="1">  1       21 0.98762937E-01 0.43919455E+03</pdfrwt>
<pdfrwt beam="2">  1       21 0.10559469E-01 0.43919455E+03</pdfrwt>
<totfact> 0.57417574E+04</totfact>
</mgrwt>
</event>
<event>
 7    0  0.4707675E-002  0.4544793E+03  0.7546771E-02  0.1026395E+00
         21   -1    0    0  502  501  0.00000000000E+00  0.00000000000E+00  0.63157449882E+02  0.63157449882E+02  0.00000000000E+00 0.  1.
         21   -1    0    0  501  502 -0.00000000000E+00 -0.00000000000E+00 -0.81760526338E+03  0.81760526338E+03  0.00000000000E+00 0.  1.
      99926    2    1    2    0    0  0.71054273576E-14 -0.14210854715E-13 -0.75444781350E+03  0.88076271326E+03  0.45447932162E+03 0.  0.
      99925    2    3    3    0    0 -0.60721960373E+02  0.94610220683E+02 -0.48875990622E+03  0.56631745173E+03  0.26304174549E+03 0.  0.
         25    1    3    3    0    0  0.60721960373E+02 -0.94610220683E+02 -0.26568790727E+03  0.31444526153E+03  0.12509000000E+03 0.  0.
         25    1    4    4    0    0 -0.42002624859E+02  0.86568998998E+02 -0.24196650578E+03  0.28888355803E+03  0.12509000000E+03 0.  0.
         25    1    4    4    0    0 -0.18719335513E+02  0.80412216850E+01 -0.24679340044E+03  0.27743389369E+03  0.12509000000E+03 0.  0.
<mgrwt>
<rscale>  2 0.45447932E+03</rscale>
<asrwt>0</asrwt>
<pdfrwt beam="1">  1       21 0.92878609E-02 0.45447932E+03</pdfrwt>
<pdfrwt beam="2">  1       21 0.12023606E+00 0.45447932E+03</pdfrwt>
<totfact> 0.44256118E+04</totfact>
</mgrwt>
</event>
<event>
 7    0  0.4707675E-002  0.4562942E+03  0.7546771E-02  0.1025862E+00
         21   -1    0    0  502  501  0.00000000000E+00  0.00000000000E+00  0.85303690909E+02  0.85303690909E+02  0.00000000000E+00 0.  1.
         21   -1    0    0  501  502 -0.00000000000E+00 -0.00000000000E+00 -0.61018584751E+03  0.61018584751E+03  0.00000000000E+00 0.  1.
      99926    2    1    2    0    0 -0.14210854715E-13  0.00000000000E+00 -0.52488215661E+03  0.69548953842E+03  0.45629422496E+03 0.  0.
      99925    2    3    3    0    0 -0.96972868035E+02 -0.38380780614E+02 -0.40172087600E+03  0.49130082523E+03  0.26290686032E+03 0.  0.
         25    1    3    3    0    0  0.96972868035E+02  0.38380780614E+02 -0.12316128061E+03  0.20418871320E+03  0.12509000000E+03 0.  0.
         25    1    4    4    0    0 -0.48656904554E+02  0.85785367557E+01 -0.14420544988E+03  0.19718977034E+03  0.12509000000E+03 0.  0.
         25    1    4    4    0    0 -0.48315963482E+02 -0.46959317370E+02 -0.25751542612E+03  0.29411105488E+03  0.12509000000E+03 0.  0.
<mgrwt>
<rscale>  2 0.45629422E+03</rscale>
<asrwt>0</asrwt>
<pdfrwt beam="1">  1       21 0.12544661E-01 0.45629422E+03</pdfrwt>
<pdfrwt beam="2">  1       21 0.89733211E-01 0.45629422E+03</pdfrwt>
<totfact> 0.52610583E+04</totfact>
</mgrwt>
</event>
<event>
 7    0  0.4707675E-002  0.4613576E+03  0.7546771E-02  0.1024388E+00
         21   -1    0    0  502  501  0.00000000000E+00  0.00000000000E+00  0.14422017991E+03  0.14422017991E+03  0.00000000000E+00 0. -1.
         21   -1    0    0  501  502 -0.00000000000E+00 -0.00000000000E+00 -0.36896860117E+03  0.36896860117E+03  0.00000000000E+00 0. -1.
      99926    2    1    2    0    0  0.00000000000E+00  0.00000000000E+00 -0.22474842126E+03  0.51318878109E+03  0.46135764020E+03 0.  0.
      99925    2    3    3    0    0 -0.89994933373E+02 -0.15043896756E+02 -0.22525527976E+03  0.35835605887E+03  0.26335093888E+03 0.  0.
         25    1    3    3    0    0  0.89994933373E+02  0.15043896756E+02  0.50685850341E+00  0.15483272221E+03  0.12509000000E+03 0.  0.
         25    1    4    4    0    0 -0.38001309678E+02 -0.13361063005E+02 -0.59438838374E+02  0.14423280192E+03  0.12509000000E+03 0.  0.
         25    1    4    4    0    0 -0.51993623695E+02 -0.16828337508E+01 -0.16581644139E+03  0.21412325696E+03  0.12509000000E+03 0.  0.
<mgrwt>
<rscale>  2 0.46135764E+03</rscale>
<asrwt>0</asrwt>
<pdfrwt beam="1">  1       21 0.21208850E-01 0.46135764E+03</pdfrwt>
<pdfrwt beam="2">  1       21 0.54260087E-01 0.46135764E+03</pdfrwt>
<totfact> 0.61206616E+04</totfact>
</mgrwt>
</event>
<event>
 7    0  0.4707675E-002  0.4467417E+03  0.7546771E-02  0.1028698E+00
         21   -1    0    0  502  501  0.00000000000E+00  0.00000000000E+00  0.54523966391E+03  0.54523966391E+03  0.00000000000E+00 0.  1.
         21   -1    0    0  501  502 -0.00000000000E+00 -0.00000000000E+00 -0.91509351299E+02  0.91509351299E+02  0.00000000000E+00 0.  1.
      99926    2    1    2    0    0  0.00000000000E+00 -0.88817841970E-15  0.45373031262E+03  0.63674901521E+03  0.44674166113E+03 0.  0.
      99925    2    3    3    0    0  0.88167652084E+02  0.75136169021E+01  0.20636309710E+03  0.34577128973E+03  0.26294879282E+03 0.  0.
         25    1    3    3    0    0 -0.88167652084E+02 -0.75136169021E+01  0.24736721552E+03  0.29097772548E+03  0.12509000000E+03 0.  0.
         25    1    4    4    0    0  0.32555767580E+02  0.40671564386E+02  0.85961177506E+02  0.16047082691E+03  0.12509000000E+03 0.  0.
         25    1    4    4    0    0  0.55611884505E+02 -0.33157947484E+02  0.12040191959E+03  0.18530046282E+03  0.12509000000E+03 0.  0.
<mgrwt>
<rscale>  2 0.44674166E+03</rscale>
<asrwt>0</asrwt>
<pdfrwt beam="1">  1       21 0.80182302E-01 0.44674166E+03</pdfrwt>
<pdfrwt beam="2">  1       21 0.13457258E-01 0.44674166E+03</pdfrwt>
<totfact> 0.60306757E+04</totfact>
</mgrwt>
</event>
<event>
 7    0  0.4707675E-002  0.4571549E+03  0.7546771E-02  0.1025610E+00
         21   -1    0    0  502  501  0.00000000000E+00  0.00000000000E+00  0.37803370408E+03  0.37803370408E+03  0.00000000000E+00 0.  1.
         21   -1    0    0  501  502 -0.00000000000E+00 -0.00000000000E+00 -0.13820899389E+03  0.13820899389E+03  0.00000000000E+00 0.  1.
      99926    2    1    2    0    0  0.00000000000E+00 -0.17763568394E-14  0.23982471020E+03  0.51624269797E+03  0.45715493171E+03 0.  0.
      99925    2    3    3    0    0  0.68443644757E+02 -0.69154012895E+01  0.25491452560E+03  0.37268934234E+03  0.26302770815E+03 0.  0.
         25    1    4    4    0    0  0.42799428982E+02 -0.26963334971E+02  0.17403466947E+03  0.22021441105E+03  0.12509000000E+03 0.  0.
         25    1    3    3    0    0 -0.68443644757E+02  0.69154012895E+01 -0.15089815397E+02  0.14355335563E+03  0.12509000000E+03 0.  0.
         25    1    4    4    0    0  0.25644215775E+02  0.20047933682E+02  0.80879856123E+02  0.15247493130E+03  0.12509000000E+03 0.  0.
<mgrwt>
<rscale>  2 0.45715493E+03</rscale>
<asrwt>0</asrwt>
<pdfrwt beam="1">  1       21 0.55593192E-01 0.45715493E+03</pdfrwt>
<pdfrwt beam="2">  1       21 0.20324852E-01 0.45715493E+03</pdfrwt>
<totfact> 0.63058786E+04</totfact>
</mgrwt>
</event>
<event>
 7    0  0.4707675E-002  0.4567210E+03  0.7546771E-02  0.1025737E+00
         21   -1    0    0  502  501  0.00000000000E+00  0.00000000000E+00  0.20682659454E+03  0.20682659454E+03  0.00000000000E+00 0. -1.
         21   -1    0    0  501  502 -0.00000000000E+00 -0.00000000000E+00 -0.25213643273E+03  0.25213643273E+03  0.00000000000E+00 0. -1.
      99926    2    1    2    0    0  0.00000000000E+00  0.71054273576E-14 -0.45309838190E+02  0.45896302728E+03  0.45672100780E+03 0.  0.
      99925    2    3    3    0    0 -0.55510226734E+02 -0.53060309557E+02  0.57216731158E+02  0.27992116836E+03  0.26303103324E+03 0.  0.
         25    1    4    4    0    0 -0.28498309426E+02  0.13637425215E+02  0.36868160336E+02  0.13418234740E+03  0.12509000000E+03 0.  0.
         25    1    3    3    0    0  0.55510226734E+02  0.53060309557E+02 -0.10252656935E+03  0.17904185892E+03  0.12509000000E+03 0.  0.
         25    1    4    4    0    0 -0.27011917308E+02 -0.66697734772E+02  0.20348570822E+02  0.14573882096E+03  0.12509000000E+03 0.  0.
<mgrwt>
<rscale>  2 0.45672101E+03</rscale>
<asrwt>0</asrwt>
<pdfrwt beam="1">  1       21 0.30415676E-01 0.45672101E+03</pdfrwt>
<pdfrwt beam="2">  1       21 0.37078887E-01 0.45672101E+03</pdfrwt>
<totfact> 0.67327186E+04</totfact>
</mgrwt>
</event>
<event>
 7    0  0.4707675E-002  0.4543745E+03  0.7546771E-02  0.1026426E+00
         21   -1    0    0  502  501  0.00000000000E+00  0.00000000000E+00  0.22894442594E+03  0.22894442594E+03  0.00000000000E+00 0. -1.
         21   -1    0    0  501  502 -0.00000000000E+00 -0.00000000000E+00 -0.22544355345E+03  0.22544355345E+03  0.00000000000E+00 0. -1.
      99926    2    1    2    0    0  0.00000000000E+00  0.00000000000E+00  0.35008724914E+01  0.45438797939E+03  0.45437449280E+03 0.  0.
      99925    2    3    3    0    0  0.15089861375E+02 -0.10128968373E+03 -0.44516031043E+02  0.28574505760E+03  0.26302330120E+03 0.  0.
         25    1    4    4    0    0 -0.13543655138E+02 -0.42876647892E+02 -0.56091474187E+02  0.14427612105E+03  0.12509000000E+03 0.  0.
         25    1    4    4    0    0  0.28633516513E+02 -0.58413035835E+02  0.11575443143E+02  0.14146893655E+03  0.12509000000E+03 0.  0.
         25    1    3    3    0    0 -0.15089861375E+02  0.10128968373E+03  0.48016903535E+02  0.16864292179E+03  0.12509000000E+03 0.  0.
<mgrwt>
<rscale>  2 0.45437449E+03</rscale>
<asrwt>0</asrwt>
<pdfrwt beam="1">  1       21 0.33668298E-01 0.45437449E+03</pdfrwt>
<pdfrwt beam="2">  1       21 0.33153464E-01 0.45437449E+03</pdfrwt>
<totfact> 0.68934050E+04</totfact>
</mgrwt>
</event>
<event>
 7    0  0.4707675E-002  0.4532440E+03  0.7546771E-02  0.1026759E+00
         21   -1    0    0  502  501  0.00000000000E+00  0.00000000000E+00  0.65871309071E+02  0.65871309071E+02  0.00000000000E+00 0. -1.
         21   -1    0    0  501  502 -0.00000000000E+00 -0.00000000000E+00 -0.77966479193E+03  0.77966479193E+03  0.00000000000E+00 0. -1.
      99926    2    1    2    0    0  0.00000000000E+00 -0.17763568394E-14 -0.71379348286E+03  0.84553610100E+03  0.45324404235E+03 0.  0.
      99925    2    3    3    0    0  0.23278020006E+02  0.12178964361E+02 -0.65201612060E+03  0.70357080955E+03  0.26305259768E+03 0.  0.
         25    1    4    4    0    0  0.34584081486E+02 -0.13291250807E+02 -0.25586271721E+03  0.28720368068E+03  0.12509000000E+03 0.  0.
         25    1    3    3    0    0 -0.23278020006E+02 -0.12178964361E+02 -0.61777362263E+02  0.14196529145E+03  0.12509000000E+03 0.  0.
         25    1    4    4    0    0 -0.11306061479E+02  0.25470215168E+02 -0.39615340339E+03  0.41636712887E+03  0.12509000000E+03 0.  0.
<mgrwt>
<rscale>  2 0.45324404E+03</rscale>
<asrwt>0</asrwt>
<pdfrwt beam="1">  1       21 0.96869575E-02 0.45324404E+03</pdfrwt>
<pdfrwt beam="2">  1       21 0.11465658E+00 0.45324404E+03</pdfrwt>
<totfact> 0.46273880E+04</totfact>
</mgrwt>
</event>
<event>
 7    0  0.4707675E-002  0.4532446E+03  0.7546771E-02  0.1026759E+00
         21   -1    0    0  502  501  0.00000000000E+00  0.00000000000E+00  0.10366071264E+04  0.10366071264E+04  0.00000000000E+00 0.  1.
         21   -1    0    0  501  502 -0.00000000000E+00 -0.00000000000E+00 -0.49544009288E+02  0.49544009288E+02  0.00000000000E+00 0.  1.
      99926    2    1    2    0    0  0.71054273576E-14  0.71054273576E-14  0.98706311713E+03  0.10861511357E+04  0.45324462754E+03 0.  0.
      99925    2    3    3    0    0 -0.46461865359E+02 -0.52379418795E+02  0.82956967568E+03  0.87318634837E+03  0.26337472112E+03 0.  0.
         25    1    4    4    0    0 -0.62775687339E+01 -0.34548301171E+02  0.29365722765E+03  0.32111535067E+03  0.12509000000E+03 0.  0.
         25    1    4    4    0    0 -0.40184296625E+02 -0.17831117625E+02  0.53591244803E+03  0.55207099770E+03  0.12509000000E+03 0.  0.
         25    1    3    3    0    0  0.46461865359E+02  0.52379418795E+02  0.15749344145E+03  0.21296478734E+03  0.12509000000E+03 0.  0.
<mgrwt>
<rscale>  2 0.45324463E+03</rscale>
<asrwt>0</asrwt>
<pdfrwt beam="1">  1       21 0.15244221E+00 0.45324463E+03</pdfrwt>
<pdfrwt beam="2">  1       21 0.72858844E-02 0.45324463E+03</pdfrwt>
<totfact> 0.36475175E+04</totfact>
</mgrwt>
</event>
<event>
 7    0  0.4707675E-002  0.4564395E+03  0.7546771E-02  0.1025819E+00
         21   -1    0    0  502  501  0.00000000000E+00  0.00000000000E+00  0.61964762743E+03  0.61964762743E+03  0.00000000000E+00 0.  1.
         21   -1    0    0  501  502 -0.00000000000E+00 -0.00000000000E+00 -0.84054635550E+02  0.84054635550E+02  0.00000000000E+00 0.  1.
      99926    2    1    2    0    0  0.00000000000E+00  0.00000000000E+00  0.53559299188E+03  0.70370226298E+03  0.45643950527E+03 0.  0.
      99925    2    3    3    0    0  0.35679602499E+02  0.49580953931E+02  0.18744886897E+03  0.32875807587E+03  0.26308456615E+03 0.  0.
         25    1    4    4    0    0  0.47032051401E+02  0.29813935152E+02  0.13149748821E+03  0.18984199244E+03  0.12509000000E+03 0.  0.
         25    1    4    4    0    0 -0.11352448902E+02  0.19767018779E+02  0.55951380758E+02  0.13891608343E+03  0.12509000000E+03 0.  0.
         25    1    3    3    0    0 -0.35679602499E+02 -0.49580953931E+02  0.34814412291E+03  0.37494418711E+03  0.12509000000E+03 0.  0.
<mgrwt>
<rscale>  2 0.45643951E+03</rscale>
<asrwt>0</asrwt>
<pdfrwt beam="1">  1       21 0.91124649E-01 0.45643951E+03</pdfrwt>
<pdfrwt beam="2">  1       21 0.12360976E-01 0.45643951E+03</pdfrwt>
<totfact> 0.52109620E+04</totfact>
</mgrwt>
</event>
<event>
 7    0  0.4707675E-002  0.4746359E+03  0.7546771E-02  0.1020620E+00
         21   -1    0    0  502  501  0.00000000000E+00  0.00000000000E+00  0.20760875347E+03  0.20760875347E+03  0.00000000000E+00 0. -1.
         21   -1    0    0  501  502 -0.00000000000E+00 -0.00000000000E+00 -0.27127856229E+03  0.27127856229E+03  0.00000000000E+00 0. -1.
      99926    2    1    2    0    0 -0.14210854715E-13 -0.71054273576E-14 -0.63669808827E+02  0.47888731576E+03  0.47463587795E+03 0.  0.
      99925    2    3    3    0    0  0.78388189306E+02 -0.43430866980E+02  0.56965499426E+02  0.28335896966E+03  0.26270951474E+03 0.  0.
         25    1    3    3    0    0 -0.78388189306E+02  0.43430866980E+02 -0.12063530825E+03  0.19552834610E+03  0.12509000000E+03 0.  0.
         25    1    4    4    0    0  0.18209394338E+02  0.83178979002E+01  0.46126040678E+02  0.13481798543E+03  0.12509000000E+03 0.  0.
         25    1    4    4    0    0  0.60178794969E+02 -0.51748764880E+02  0.10839458748E+02  0.14854098423E+03  0.12509000000E+03 0.  0.
<mgrwt>
<rscale>  2 0.47463588E+03</rscale>
<asrwt>0</asrwt>
<pdfrwt beam="1">  1       21 0.30530699E-01 0.47463588E+03</pdfrwt>
<pdfrwt beam="2">  1       21 0.39893906E-01 0.47463588E+03</pdfrwt>
<totfact> 0.57309849E+04</totfact>
</mgrwt>
</event>
<event>
 7    0  0.4707675E-002  0.4648557E+03  0.7546771E-02  0.1023382E+00
         21   -1    0    0  502  501  0.00000000000E+00  0.00000000000E+00  0.15501039824E+03  0.15501039824E+03  0.00000000000E+00 0. -1.
         21   -1    0    0  501  502 -0.00000000000E+00 -0.00000000000E+00 -0.34851019055E+03  0.34851019055E+03  0.00000000000E+00 0. -1.
      99926    2    1    2    0    0  0.00000000000E+00  0.00000000000E+00 -0.19349979231E+03  0.50352058879E+03  0.46485569128E+03 0.  0.
      99925    2    3    3    0    0 -0.95461541285E+02  0.42529140092E+02 -0.52051812943E+02  0.28770429518E+03  0.26295006486E+03 0.  0.
         25    1    4    4    0    0 -0.26224401962E+02 -0.15232510455E+02 -0.26163264218E+02  0.13134600537E+03  0.12509000000E+03 0.  0.
         25    1    4    4    0    0 -0.69237139323E+02  0.57761650547E+02 -0.25888548725E+02  0.15635828980E+03  0.12509000000E+03 0.  0.
         25    1    3    3    0    0  0.95461541285E+02 -0.42529140092E+02 -0.14144797937E+03  0.21581629361E+03  0.12509000000E+03 0.  0.
<mgrwt>
<rscale>  2 0.46485569E+03</rscale>
<asrwt>0</asrwt>
<pdfrwt beam="1">  1       21 0.22795647E-01 0.46485569E+03</pdfrwt>
<pdfrwt beam="2">  1       21 0.51251498E-01 0.46485569E+03</pdfrwt>
<totfact> 0.60176404E+04</totfact>
</mgrwt>
</event>
<event>
 7    0  0.4707675E-002  0.4566465E+03  0.7546771E-02  0.1025758E+00
         21   -1    0    0  502  501  0.00000000000E+00  0.00000000000E+00  0.30018956932E+03  0.30018956932E+03  0.00000000000E+00 0.  1.
         21   -1    0    0  501  502 -0.00000000000E+00 -0.00000000000E+00 -0.17366192133E+03  0.17366192133E+03  0.00000000000E+00 0.  1.
      99926    2    1    2    0    0  0.00000000000E+00  0.00000000000E+00  0.12652764799E+03  0.47385149065E+03  0.45664646006E+03 0.  0.
      99925    2    3    3    0    0  0.94015895162E+02  0.14645354269E+02  0.12970332845E+02  0.27995397424E+03  0.26296867345E+03 0.  0.
         25    1    3    3    0    0 -0.94015895162E+02 -0.14645354269E+02  0.11355731514E+03  0.19389751640E+03  0.12509000000E+03 0.  0.
         25    1    4    4    0    0  0.63806262928E+02 -0.18723597004E+02  0.33139077836E+02  0.14549061431E+03  0.12509000000E+03 0.  0.
         25    1    4    4    0    0  0.30209632234E+02  0.33368951272E+02 -0.20168744991E+02  0.13446335993E+03  0.12509000000E+03 0.  0.
<mgrwt>
<rscale>  2 0.45664646E+03</rscale>
<asrwt>0</asrwt>
<pdfrwt beam="1">  1       21 0.44145525E-01 0.45664646E+03</pdfrwt>
<pdfrwt beam="2">  1       21 0.25538518E-01 0.45664646E+03</pdfrwt>
<totfact> 0.66280346E+04</totfact>
</mgrwt>
</event>
<event>
 7    0  0.4707675E-002  0.4520754E+03  0.7546771E-02  0.1027105E+00
         21   -1    0    0  502  501  0.00000000000E+00  0.00000000000E+00  0.31502770597E+03  0.31502770597E+03  0.00000000000E+00 0. -1.
         21   -1    0    0  501  502 -0.00000000000E+00 -0.00000000000E+00 -0.16218584034E+03  0.16218584034E+03  0.00000000000E+00 0. -1.
      99926    2    1    2    0    0  0.00000000000E+00 -0.14210854715E-13  0.15284186562E+03  0.47721354631E+03  0.45207536197E+03 0.  0.
      99925    2    3    3    0    0  0.29568554283E+02  0.10331755604E+03  0.12312517227E+03  0.30964443593E+03  0.26300390086E+03 0.  0.
         25    1    4    4    0    0  0.20968401645E+02  0.99662558830E+01  0.45552578571E+02  0.13513528643E+03  0.12509000000E+03 0.  0.
         25    1    3    3    0    0 -0.29568554283E+02 -0.10331755604E+03  0.29716693351E+02  0.16756911038E+03  0.12509000000E+03 0.  0.
         25    1    4    4    0    0  0.86001526378E+01  0.93351300161E+02  0.77572593703E+02  0.17450914950E+03  0.12509000000E+03 0.  0.
<mgrwt>
<rscale>  2 0.45207536E+03</rscale>
<asrwt>0</asrwt>
<pdfrwt beam="1">  1       21 0.46327604E-01 0.45207536E+03</pdfrwt>
<pdfrwt beam="2">  1       21 0.23850859E-01 0.45207536E+03</pdfrwt>
<totfact> 0.68479372E+04</totfact>
</mgrwt>
</event>
<event>
 7    0  0.4707675E-002  0.4639532E+03  0.7546771E-02  0.1023641E+00
         21   -1    0    0  502  501  0.00000000000E+00  0.00000000000E+00  0.21968512774E+03  0.21968512774E+03  0.00000000000E+00 0.  1.
         21   -1    0    0  501  502 -0.00000000000E+00 -0.00000000000E+00 -0.24495575552E+03  0.24495575552E+03  0.00000000000E+00 0.  1.
      99926    2    1    2    0    0 -0.44408920985E-15  0.71054273576E-14 -0.25270627775E+02  0.46464088326E+03  0.46395317196E+03 0.  0.
      99925    2    3    3    0    0  0.38008311203E+01 -0.33651449190E+02  0.10091173264E+03  0.28376423322E+03  0.26304390493E+03 0.  0.
         25    1    4    4    0    0  0.10712976940E+01  0.14248773309E+02  0.20646318326E+02  0.12758508447E+03  0.12509000000E+03 0.  0.
         25    1    4    4    0    0  0.27295334263E+01 -0.47900222499E+02  0.80265414318E+02  0.15617914875E+03  0.12509000000E+03 0.  0.
         25    1    3    3    0    0 -0.38008311203E+01  0.33651449190E+02 -0.12618236042E+03  0.18087665004E+03  0.12509000000E+03 0.  0.
<mgrwt>
<rscale>  2 0.46395317E+03</rscale>
<asrwt>0</asrwt>
<pdfrwt beam="1">  1       21 0.32306637E-01 0.46395317E+03</pdfrwt>
<pdfrwt beam="2">  1       21 0.36022905E-01 0.46395317E+03</pdfrwt>
<totfact> 0.63207801E+04</totfact>
</mgrwt>
</event>
<event>
 7    0  0.4707675E-002  0.4564284E+03  0.7546771E-02  0.1025822E+00
         21   -1    0    0  502  501  0.00000000000E+00  0.00000000000E+00  0.25398008501E+02  0.25398008501E+02  0.00000000000E+00 0.  1.
         21   -1    0    0  501  502 -0.00000000000E+00 -0.00000000000E+00 -0.20506222185E+04  0.20506222185E+04  0.00000000000E+00 0.  1.
      99926    2    1    2    0    0  0.00000000000E+00 -0.11102230246E-14 -0.20252242100E+04  0.20760202270E+04  0.45642839762E+03 0.  0.
      99925    2    3    3    0    0 -0.83771506731E+02  0.11197195227E+01 -0.16281244638E+04  0.16513384218E+04  0.26288855945E+03 0.  0.
         25    1    3    3    0    0  0.83771506731E+02 -0.11197195227E+01 -0.39709974626E+03  0.42468180523E+03  0.12509000000E+03 0.  0.
         25    1    4    4    0    0 -0.66831000995E+01  0.15385528963E+02 -0.65048696483E+03  0.66261767094E+03  0.12509000000E+03 0.  0.
         25    1    4    4    0    0 -0.77088406631E+02 -0.14265809440E+02 -0.97763749893E+03  0.98872075085E+03  0.12509000000E+03 0.  0.
<mgrwt>
<rscale>  2 0.45642840E+03</rscale>
<asrwt>0</asrwt>
<pdfrwt beam="1">  1       21 0.37350013E-02 0.45642840E+03</pdfrwt>
<pdfrwt beam="2">  1       21 0.30156209E+00 0.45642840E+03</pdfrwt>
<totfact> 0.12370441E+04</totfact>
</mgrwt>
</event>
<event>
 6    0  0.4707675E-002  0.4584629E+03  0.7546771E-02  0.1025228E+00
         21   -1    0    0  502  501  0.00000000000E+00  0.00000000000E+00  0.39881304531E+03  0.39881304531E+03  0.00000000000E+00 0. -1.
         21   -1    0    0  501  502 -0.00000000000E+00 -0.00000000000E+00 -0.13175861044E+03  0.13175861044E+03  0.00000000000E+00 0. -1.
      99926    2    1    2    0    0  0.71054273576E-14  0.00000000000E+00  0.26705443487E+03  0.53057165575E+03  0.45846287821E+03 0.  0.
         25    1    3    3    0    0 -0.41610415586E+01 -0.63363555533E+02  0.16515968501E+02  0.14125345926E+03  0.12509000000E+03 0.  0.
         25    1    3    3    0    0 -0.48167117997E+02 -0.19905248125E+01  0.61006274364E+02  0.14728647955E+03  0.12509000000E+03 0.  0.
         25    1    3    3    0    0  0.52328159556E+02  0.65354080346E+02  0.18953219201E+03  0.24203171694E+03  0.12509000000E+03 0.  0.
<mgrwt>
<rscale>  2 0.45846288E+03</rscale>
<asrwt>0</asrwt>
<pdfrwt beam="1">  1       21 0.58648977E-01 0.45846288E+03</pdfrwt>
<pdfrwt beam="2">  1       21 0.19376266E-01 0.45846288E+03</pdfrwt>
<totfact> 0.61463401E+04</totfact>
</mgrwt>
</event>
<event>
 7    0  0.4707675E-002  0.4411430E+03  0.7546771E-02  0.1030397E+00
         21   -1    0    0  502  501  0.00000000000E+00  0.00000000000E+00  0.96455013121E+02  0.96455013121E+02  0.00000000000E+00 0.  1.
         21   -1    0    0  501  502 -0.00000000000E+00 -0.00000000000E+00 -0.50439872752E+03  0.50439872752E+03  0.00000000000E+00 0.  1.
      99926    2    1    2    0    0  0.00000000000E+00  0.71054273576E-14 -0.40794371440E+03  0.60085374064E+03  0.44114299668E+03 0.  0.
      99925    2    3    3    0    0 -0.13403286937E+02  0.33533228183E+02 -0.38652793200E+03  0.46890576101E+03  0.26299172040E+03 0.  0.
         25    1    3    3    0    0  0.13403286937E+02 -0.33533228183E+02 -0.21415782398E+02  0.13194797963E+03  0.12509000000E+03 0.  0.
         25    1    4    4    0    0  0.19851197413E+02  0.45286399853E+02 -0.17639142205E+03  0.22182508858E+03  0.12509000000E+03 0.  0.
         25    1    4    4    0    0 -0.33254484350E+02 -0.11753171670E+02 -0.21013650995E+03  0.24708067243E+03  0.12509000000E+03 0.  0.
<mgrwt>
<rscale>  2 0.44114300E+03</rscale>
<asrwt>0</asrwt>
<pdfrwt beam="1">  1       21 0.14184561E-01 0.44114300E+03</pdfrwt>
<pdfrwt beam="2">  1       21 0.74176283E-01 0.44114300E+03</pdfrwt>
<totfact> 0.65508231E+04</totfact>
</mgrwt>
</event>
<event>
 7    0  0.4707675E-002  0.4553429E+03  0.7546771E-02  0.1026141E+00
         21   -1    0    0  502  501  0.00000000000E+00  0.00000000000E+00  0.15079909397E+03  0.15079909397E+03  0.00000000000E+00 0. -1.
         21   -1    0    0  501  502 -0.00000000000E+00 -0.00000000000E+00 -0.34373082669E+03  0.34373082669E+03  0.00000000000E+00 0. -1.
      99926    2    1    2    0    0  0.00000000000E+00 -0.35527136788E-14 -0.19293173272E+03  0.49452992066E+03  0.45534293553E+03 0.  0.
      99925    2    3    3    0    0 -0.97264277784E+02  0.25093388128E+02 -0.63990089085E+02  0.28870603132E+03  0.26299510101E+03 0.  0.
         25    1    3    3    0    0  0.97264277784E+02 -0.25093388128E+02 -0.12894164364E+03  0.20582388934E+03  0.12509000000E+03 0.  0.
         25    1    4    4    0    0 -0.11026066511E+02 -0.71244919366E+01 -0.36611142653E+02  0.13099700911E+03  0.12509000000E+03 0.  0.
         25    1    4    4    0    0 -0.86238211273E+02  0.32217880065E+02 -0.27378946431E+02  0.15770902221E+03  0.12509000000E+03 0.  0.
<mgrwt>
<rscale>  2 0.45534294E+03</rscale>
<asrwt>0</asrwt>
<pdfrwt beam="1">  1       21 0.22176337E-01 0.45534294E+03</pdfrwt>
<pdfrwt beam="2">  1       21 0.50548651E-01 0.45534294E+03</pdfrwt>
<totfact> 0.65478238E+04</totfact>
</mgrwt>
</event>
<event>
 7    0  0.4707675E-002  0.4496971E+03  0.7546771E-02  0.1027812E+00
         21   -1    0    0  502  501  0.00000000000E+00  0.00000000000E+00  0.21697860452E+03  0.21697860452E+03  0.00000000000E+00 0.  1.
         21   -1    0    0  501  502 -0.00000000000E+00 -0.00000000000E+00 -0.23300389883E+03  0.23300389883E+03  0.00000000000E+00 0.  1.
      99926    2    1    2    0    0  0.00000000000E+00  0.17763568394E-14 -0.16025294309E+02  0.44998250335E+03  0.44969705721E+03 0.  0.
      99925    2    3    3    0    0  0.97551573178E+01  0.96002819106E+01 -0.11742911976E+03  0.28837318301E+03  0.26302502924E+03 0.  0.
         25    1    4    4    0    0 -0.27736111250E+02 -0.18488609573E+02 -0.50351835731E+02  0.13890261341E+03  0.12509000000E+03 0.  0.
         25    1    3    3    0    0 -0.97551573178E+01 -0.96002819106E+01  0.10140382545E+03  0.16160932034E+03  0.12509000000E+03 0.  0.
         25    1    4    4    0    0  0.37491268568E+02  0.28088891484E+02 -0.67077284025E+02  0.14947056960E+03  0.12509000000E+03 0.  0.
<mgrwt>
<rscale>  2 0.44969706E+03</rscale>
<asrwt>0</asrwt>
<pdfrwt beam="1">  1       21 0.31908618E-01 0.44969706E+03</pdfrwt>
<pdfrwt beam="2">  1       21 0.34265279E-01 0.44969706E+03</pdfrwt>
<totfact> 0.71909757E+04</totfact>
</mgrwt>
</event>
<event>
 7    0  0.4707675E-002  0.4840409E+03  0.7546771E-02  0.1018031E+00
         21   -1    0    0  502  501  0.00000000000E+00  0.00000000000E+00  0.98240949433E+02  0.98240949433E+02  0.00000000000E+00 0. -1.
         21   -1    0    0  501  502 -0.00000000000E+00 -0.00000000000E+00 -0.59622681287E+03  0.59622681287E+03  0.00000000000E+00 0. -1.
      99926    2    1    2    0    0  0.00000000000E+00  0.14210854715E-13 -0.49798586343E+03  0.69446776230E+03  0.48404085850E+03 0.  0.
      99925    2    3    3    0    0  0.97852076870E+02  0.73484723372E+02 -0.21214582768E+03  0.35931545714E+03  0.26291959231E+03 0.  0.
         25    1    4    4    0    0  0.20658853301E+02  0.52010101887E+02 -0.13312737562E+03  0.19105560750E+03  0.12509000000E+03 0.  0.
         25    1    4    4    0    0  0.77193223569E+02  0.21474621484E+02 -0.79018452054E+02  0.16825984963E+03  0.12509000000E+03 0.  0.
         25    1    3    3    0    0 -0.97852076870E+02 -0.73484723372E+02 -0.28584003576E+03  0.33515230517E+03  0.12509000000E+03 0.  0.
<mgrwt>
<rscale>  2 0.48404086E+03</rscale>
<asrwt>0</asrwt>
<pdfrwt beam="1">  1       21 0.14447198E-01 0.48404086E+03</pdfrwt>
<pdfrwt beam="2">  1       21 0.87680416E-01 0.48404086E+03</pdfrwt>
<totfact> 0.42591616E+04</totfact>
</mgrwt>
</event>
<event>
 7    0  0.4707675E-002  0.4665879E+03  0.7546771E-02  0.1022888E+00
         21   -1    0    0  502  501  0.00000000000E+00  0.00000000000E+00  0.10630133233E+03  0.10630133233E+03  0.00000000000E+00 0.  1.
         21   -1    0    0  501  502 -0.00000000000E+00 -0.00000000000E+00 -0.51199794497E+03  0.51199794497E+03  0.00000000000E+00 0.  1.
      99926    2    1    2    0    0  0.00000000000E+00  0.00000000000E+00 -0.40569661264E+03  0.61829927730E+03  0.46658788540E+03 0.  0.
      99925    2    3    3    0    0 -0.40072000145E+02  0.72949949387E+02 -0.37280558955E+03  0.46449164481E+03  0.26427451672E+03 0.  0.
         25    1    4    4    0    0  0.13894012898E+02  0.45108254872E+02 -0.14200347260E+03  0.19503920781E+03  0.12509000000E+03 0.  0.
         25    1    4    4    0    0 -0.53966013043E+02  0.27841694515E+02 -0.23080211695E+03  0.26945243700E+03  0.12509000000E+03 0.  0.
         25    1    3    3    0    0  0.40072000145E+02 -0.72949949387E+02 -0.32891023088E+02  0.15380763249E+03  0.12509000000E+03 0.  0.
<mgrwt>
<rscale>  2 0.46658789E+03</rscale>
<asrwt>0</asrwt>
<pdfrwt beam="1">  1       21 0.15632549E-01 0.46658789E+03</pdfrwt>
<pdfrwt beam="2">  1       21 0.75293814E-01 0.46658789E+03</pdfrwt>
<totfact> 0.52585624E+04</totfact>
</mgrwt>
</event>
<event>
 6    0  0.4707675E-002  0.4662535E+03  0.7546771E-02  0.1022983E+00
         21   -1    0    0  502  501  0.00000000000E+00  0.00000000000E+00  0.86332770920E+02  0.86332770920E+02  0.00000000000E+00 0. -1.
         21   -1    0    0  501  502 -0.00000000000E+00 -0.00000000000E+00 -0.62951866432E+03  0.62951866432E+03  0.00000000000E+00 0. -1.
      99926    2    1    2    0    0  0.00000000000E+00  0.71054273576E-14 -0.54318589340E+03  0.71585143524E+03  0.46625353891E+03 0.  0.
         25    1    3    3    0    0  0.61111457732E+02 -0.47586115783E+02 -0.29838567263E+03  0.33268688945E+03  0.12509000000E+03 0.  0.
         25    1    3    3    0    0 -0.42129377363E+01  0.56918373848E+01 -0.19368391929E+03  0.23067534447E+03  0.12509000000E+03 0.  0.
         25    1    3    3    0    0 -0.56898519996E+02  0.41894278398E+02 -0.51116301479E+02  0.15248920131E+03  0.12509000000E+03 0.  0.
<mgrwt>
<rscale>  2 0.46625354E+03</rscale>
<asrwt>0</asrwt>
<pdfrwt beam="1">  1       21 0.12695996E-01 0.46625354E+03</pdfrwt>
<pdfrwt beam="2">  1       21 0.92576275E-01 0.46625354E+03</pdfrwt>
<totfact> 0.47686833E+04</totfact>
</mgrwt>
</event>
<event>
 7    0  0.4707675E-002  0.4601584E+03  0.7546771E-02  0.1024735E+00
         21   -1    0    0  502  501  0.00000000000E+00  0.00000000000E+00  0.85334574359E+02  0.85334574359E+02  0.00000000000E+00 0.  1.
         21   -1    0    0  501  502 -0.00000000000E+00 -0.00000000000E+00 -0.62033991519E+03  0.62033991519E+03  0.00000000000E+00 0.  1.
      99926    2    1    2    0    0  0.00000000000E+00  0.00000000000E+00 -0.53500534083E+03  0.70567448955E+03  0.46015841890E+03 0.  0.
      99925    2    3    3    0    0 -0.87897634587E+02 -0.76109329482E+02 -0.30442596268E+03  0.41873724567E+03  0.26295834262E+03 0.  0.
         25    1    4    4    0    0 -0.59313807520E+02 -0.30251449975E+01 -0.16781242224E+03  0.21756791221E+03  0.12509000000E+03 0.  0.
         25    1    4    4    0    0 -0.28583827067E+02 -0.73084184485E+02 -0.13661354045E+03  0.20116933346E+03  0.12509000000E+03 0.  0.
         25    1    3    3    0    0  0.87897634587E+02  0.76109329482E+02 -0.23057937814E+03  0.28693724388E+03  0.12509000000E+03 0.  0.
<mgrwt>
<rscale>  2 0.46015842E+03</rscale>
<asrwt>0</asrwt>
<pdfrwt beam="1">  1       21 0.12549202E-01 0.46015842E+03</pdfrwt>
<pdfrwt beam="2">  1       21 0.91226456E-01 0.46015842E+03</pdfrwt>
<totfact> 0.50514139E+04</totfact>
</mgrwt>
</event>
<event>
 7    0  0.4707675E-002  0.4558395E+03  0.7546771E-02  0.1025995E+00
         21   -1    0    0  502  501  0.00000000000E+00  0.00000000000E+00  0.14230119971E+03  0.14230119971E+03  0.00000000000E+00 0. -1.
         21   -1    0    0  501  502 -0.00000000000E+00 -0.00000000000E+00 -0.36505247167E+03  0.36505247167E+03  0.00000000000E+00 0. -1.
      99926    2    1    2    0    0  0.00000000000E+00  0.53290705182E-14 -0.22275127196E+03  0.50735367138E+03  0.45583946593E+03 0.  0.
      99925    2    3    3    0    0  0.11111223850E+03 -0.12373942378E+02 -0.11538890101E+03  0.30817226966E+03  0.26297624478E+03 0.  0.
         25    1    4    4    0    0  0.50855082358E+02 -0.45356333214E+02 -0.67601412938E+02  0.15767338233E+03  0.12509000000E+03 0.  0.
         25    1    4    4    0    0  0.60257156139E+02  0.32982390835E+02 -0.47787488070E+02  0.15049888733E+03  0.12509000000E+03 0.  0.
         25    1    3    3    0    0 -0.11111223850E+03  0.12373942378E+02 -0.10736237095E+03  0.19918140172E+03  0.12509000000E+03 0.  0.
<mgrwt>
<rscale>  2 0.45583947E+03</rscale>
<asrwt>0</asrwt>
<pdfrwt beam="1">  1       21 0.20926647E-01 0.45583947E+03</pdfrwt>
<pdfrwt beam="2">  1       21 0.53684187E-01 0.45583947E+03</pdfrwt>
<totfact> 0.64327401E+04</totfact>
</mgrwt>
</event>
<event>
 7    0  0.4707675E-002  0.4555574E+03  0.7546771E-02  0.1026078E+00
         21   -1    0    0  502  501  0.00000000000E+00  0.00000000000E+00  0.39651384110E+03  0.39651384110E+03  0.00000000000E+00 0.  1.
         21   -1    0    0  501  502 -0.00000000000E+00 -0.00000000000E+00 -0.13084825524E+03  0.13084825524E+03  0.00000000000E+00 0.  1.
      99926    2    1    2    0    0  0.00000000000E+00  0.71054273576E-14  0.26566558586E+03  0.52736209635E+03  0.45555743563E+03 0.  0.
      99925    2    3    3    0    0  0.65806807991E+02 -0.50622371760E+02  0.25761165433E+03  0.37701072651E+03  0.26245030568E+03 0.  0.
         25    1    3    3    0    0 -0.65806807991E+02  0.50622371760E+02  0.80539315288E+01  0.15035136984E+03  0.12509000000E+03 0.  0.
         25    1    4    4    0    0  0.31815479277E+02  0.95858593721E+01  0.14988473984E+03  0.19803296887E+03  0.12509000000E+03 0.  0.
         25    1    4    4    0    0  0.33991328714E+02 -0.60208231132E+02  0.10772691449E+03  0.17897775764E+03  0.12509000000E+03 0.  0.
<mgrwt>
<rscale>  2 0.45555744E+03</rscale>
<asrwt>0</asrwt>
<pdfrwt beam="1">  1       21 0.58310859E-01 0.45555744E+03</pdfrwt>
<pdfrwt beam="2">  1       21 0.19242391E-01 0.45555744E+03</pdfrwt>
<totfact> 0.63106156E+04</totfact>
</mgrwt>
</event>
<event>
 7    0  0.4707675E-002  0.4154595E+03  0.7546771E-02  0.1038554E+00
         21   -1    0    0  502  501  0.00000000000E+00  0.00000000000E+00  0.25535253100E+03  0.25535253100E+03  0.00000000000E+00 0.  1.
         21   -1    0    0  501  502 -0.00000000000E+00 -0.00000000000E+00 -0.16898850268E+03  0.16898850268E+03  0.00000000000E+00 0.  1.
      99926    2    1    2    0    0  0.00000000000E+00  0.00000000000E+00  0.86364028321E+02  0.42434103368E+03  0.41545946551E+03 0.  0.
      99925    2    3    3    0    0 -0.64964966677E+02 -0.22758522438E+01  0.82361139298E+02  0.28331210892E+03  0.26316680527E+03 0.  0.
         25    1    3    3    0    0  0.64964966677E+02  0.22758522438E+01  0.40028890233E+01  0.14102892476E+03  0.12509000000E+03 0.  0.
         25    1    4    4    0    0 -0.96504803270E+01 -0.40921074297E+01  0.75218639709E+02  0.14633943069E+03  0.12509000000E+03 0.  0.
         25    1    4    4    0    0 -0.55314486350E+02  0.18162551858E+01  0.71424995886E+01  0.13697267824E+03  0.12509000000E+03 0.  0.
<mgrwt>
<rscale>  2 0.41545947E+03</rscale>
<asrwt>0</asrwt>
<pdfrwt beam="1">  1       21 0.37551843E-01 0.41545947E+03</pdfrwt>
<pdfrwt beam="2">  1       21 0.24851250E-01 0.41545947E+03</pdfrwt>
<totfact> 0.98405972E+04</totfact>
</mgrwt>
</event>
<event>
 7    0  0.4707675E-002  0.4589685E+03  0.7546771E-02  0.1025081E+00
         21   -1    0    0  502  501  0.00000000000E+00  0.00000000000E+00  0.80243968950E+03  0.80243968950E+03  0.00000000000E+00 0. -1.
         21   -1    0    0  501  502 -0.00000000000E+00 -0.00000000000E+00 -0.65628620671E+02  0.65628620671E+02  0.00000000000E+00 0. -1.
      99926    2    1    2    0    0  0.14210854715E-13  0.00000000000E+00  0.73681106883E+03  0.86806831017E+03  0.45896845205E+03 0.  0.
      99925    2    3    3    0    0 -0.85727342648E+02 -0.65150450450E+02  0.37540024949E+03  0.47075351444E+03  0.26284932104E+03 0.  0.
         25    1    4    4    0    0 -0.75525793105E+02 -0.54152920978E+02  0.23653139826E+03  0.28325129256E+03  0.12509000000E+03 0.  0.
         25    1    4    4    0    0 -0.10201549543E+02 -0.10997529472E+02  0.13886885122E+03  0.18750222187E+03  0.12509000000E+03 0.  0.
         25    1    3    3    0    0  0.85727342648E+02  0.65150450450E+02  0.36141081934E+03  0.39731479574E+03  0.12509000000E+03 0.  0.
<mgrwt>
<rscale>  2 0.45896845E+03</rscale>
<asrwt>0</asrwt>
<pdfrwt beam="1">  1       21 0.11800583E+00 0.45896845E+03</pdfrwt>
<pdfrwt beam="2">  1       21 0.96512682E-02 0.45896845E+03</pdfrwt>
<totfact> 0.43278700E+04</totfact>
</mgrwt>
</event>
<event>
 7    0  0.4707675E-002  0.4489437E+03  0.7546771E-02  0.1028038E+00
         21   -1    0    0  502  501  0.00000000000E+00  0.00000000000E+00  0.56578767743E+02  0.56578767743E+02  0.00000000000E+00 0. -1.
         21   -1    0    0  501  502 -0.00000000000E+00 -0.00000000000E+00 -0.89057460237E+03  0.89057460237E+03  0.00000000000E+00 0. -1.
      99926    2    1    2    0    0  0.00000000000E+00  0.00000000000E+00 -0.83399583463E+03  0.94715337011E+03  0.44894370955E+03 0.  0.
      99925    2    3    3    0    0  0.45706239541E+02  0.64488636270E+02 -0.67995374061E+03  0.73355486972E+03  0.26366230860E+03 0.  0.
         25    1    3    3    0    0 -0.45706239541E+02 -0.64488636270E+02 -0.15404209401E+03  0.21359850039E+03  0.12509000000E+03 0.  0.
         25    1    4    4    0    0  0.37136600484E+02  0.65254323727E+02 -0.42689149102E+03  0.45113313674E+03  0.12509000000E+03 0.  0.
         25    1    4    4    0    0  0.85696390576E+01 -0.76568745662E+00 -0.25306224960E+03  0.28242173298E+03  0.12509000000E+03 0.  0.
<mgrwt>
<rscale>  2 0.44894371E+03</rscale>
<asrwt>0</asrwt>
<pdfrwt beam="1">  1       21 0.83204079E-02 0.44894371E+03</pdfrwt>
<pdfrwt beam="2">  1       21 0.13096684E+00 0.44894371E+03</pdfrwt>
<totfact> 0.43269465E+04</totfact>
</mgrwt>
</event>
<event>
 7    0  0.4707675E-002  0.4651883E+03  0.7546771E-02  0.1023287E+00
         21   -1    0    0  502  501  0.00000000000E+00  0.00000000000E+00  0.29294296738E+03  0.29294296738E+03  0.00000000000E+00 0.  1.
         21   -1    0    0  501  502 -0.00000000000E+00 -0.00000000000E+00 -0.18467771714E+03  0.18467771714E+03  0.00000000000E+00 0.  1.
      99926    2    1    2    0    0  0.39968028887E-14 -0.14210854715E-13  0.10826525024E+03  0.47762068451E+03  0.46518829937E+03 0.  0.
      99925    2    3    3    0    0  0.33450745227E+01  0.11819673366E+03  0.10033690709E+03  0.30530694712E+03  0.26298893449E+03 0.  0.
         25    1    3    3    0    0 -0.33450745227E+01 -0.11819673366E+03  0.79283431504E+01  0.17231373740E+03  0.12509000000E+03 0.  0.
         25    1    4    4    0    0 -0.35331346591E+02  0.41239118833E+02  0.43356149968E+02  0.14309518795E+03  0.12509000000E+03 0.  0.
         25    1    4    4    0    0  0.38676421114E+02  0.76957614825E+02  0.56980757125E+02  0.16221175917E+03  0.12509000000E+03 0.  0.
<mgrwt>
<rscale>  2 0.46518830E+03</rscale>
<asrwt>0</asrwt>
<pdfrwt beam="1">  1       21 0.43079848E-01 0.46518830E+03</pdfrwt>
<pdfrwt beam="2">  1       21 0.27158488E-01 0.46518830E+03</pdfrwt>
<totfact> 0.61730852E+04</totfact>
</mgrwt>
</event>
<event>
 7    0  0.4707675E-002  0.4853881E+03  0.7546771E-02  0.1017665E+00
         21   -1    0    0  502  501  0.00000000000E+00  0.00000000000E+00  0.49386420052E+03  0.49386420052E+03  0.00000000000E+00 0.  1.
         21   -1    0    0  501  502 -0.00000000000E+00 -0.00000000000E+00 -0.11926436195E+03  0.11926436195E+03  0.00000000000E+00 0.  1.
      99926    2    1    2    0    0  0.00000000000E+00  0.00000000000E+00  0.37459983857E+03  0.61312856246E+03  0.48538808705E+03 0.  0.
      99925    2    3    3    0    0 -0.21502161645E+02  0.12228785836E+03  0.14886072176E+03  0.32673317106E+03  0.26301784604E+03 0.  0.
         25    1    4    4    0    0 -0.49038612476E+02  0.47362131697E+02  0.72879320993E+02  0.16002143782E+03  0.12509000000E+03 0.  0.
         25    1    3    3    0    0  0.21502161645E+02 -0.12228785836E+03  0.22573911681E+03  0.28639539140E+03  0.12509000000E+03 0.  0.
         25    1    4    4    0    0  0.27536450831E+02  0.74925726658E+02  0.75981400768E+02  0.16671173325E+03  0.12509000000E+03 0.  0.
<mgrwt>
<rscale>  2 0.48538809E+03</rscale>
<asrwt>0</asrwt>
<pdfrwt beam="1">  1       21 0.72627087E-01 0.48538809E+03</pdfrwt>
<pdfrwt beam="2">  1       21 0.17538877E-01 0.48538809E+03</pdfrwt>
<totfact> 0.45841285E+04</totfact>
</mgrwt>
</event>
<event>
 7    0  0.4707675E-002  0.4653532E+03  0.7546771E-02  0.1023240E+00
         21   -1    0    0  502  501  0.00000000000E+00  0.00000000000E+00  0.46541474392E+03  0.46541474392E+03  0.00000000000E+00 0. -1.
         21   -1    0    0  501  502 -0.00000000000E+00 -0.00000000000E+00 -0.11632291694E+03  0.11632291694E+03  0.00000000000E+00 0. -1.
      99926    2    1    2    0    0 -0.14210854715E-13  0.00000000000E+00  0.34909182698E+03  0.58173766086E+03  0.46535320178E+03 0.  0.
      99925    2    3    3    0    0 -0.10901167755E+03 -0.54887926022E+02  0.23377939853E+03  0.37235596510E+03  0.26286865029E+03 0.  0.
         25    1    4    4    0    0 -0.77379865339E+02 -0.12495953048E+02  0.82701345738E+02  0.16920642154E+03  0.12509000000E+03 0.  0.
         25    1    4    4    0    0 -0.31631812210E+02 -0.42391972973E+02  0.15107805279E+03  0.20314954357E+03  0.12509000000E+03 0.  0.
         25    1    3    3    0    0  0.10901167755E+03  0.54887926022E+02  0.11531242845E+03  0.20938169576E+03  0.12509000000E+03 0.  0.
<mgrwt>
<rscale>  2 0.46535320E+03</rscale>
<asrwt>0</asrwt>
<pdfrwt beam="1">  1       21 0.68443344E-01 0.46535320E+03</pdfrwt>
<pdfrwt beam="2">  1       21 0.17106312E-01 0.46535320E+03</pdfrwt>
<totfact> 0.55161255E+04</totfact>
</mgrwt>
</event>
<event>
 7    0  0.4707675E-002  0.4558236E+03  0.7546771E-02  0.1025999E+00
         21   -1    0    0  502  501  0.00000000000E+00  0.00000000000E+00  0.62455409604E+02  0.62455409604E+02  0.00000000000E+00 0.  1.
         21   -1    0    0  501  502 -0.00000000000E+00 -0.00000000000E+00 -0.83169391761E+03  0.83169391761E+03  0.00000000000E+00 0.  1.
      99926    2    1    2    0    0  0.00000000000E+00  0.00000000000E+00 -0.76923850801E+03  0.89414932722E+03  0.45582358118E+03 0.  0.
      99925    2    3    3    0    0 -0.33775960576E+02 -0.66065515264E+02 -0.31403470171E+03  0.41627540955E+03  0.26298660592E+03 0.  0.
         25    1    4    4    0    0  0.43217522480E+01  0.64694323336E+00 -0.12451191959E+03  0.17654977286E+03  0.12509000000E+03 0.  0.
         25    1    3    3    0    0  0.33775960576E+02  0.66065515264E+02 -0.45520380630E+03  0.47787391767E+03  0.12509000000E+03 0.  0.
         25    1    4    4    0    0 -0.38097712824E+02 -0.66712458497E+02 -0.18952278212E+03  0.23972563668E+03  0.12509000000E+03 0.  0.
<mgrwt>
<rscale>  2 0.45582358E+03</rscale>
<asrwt>0</asrwt>
<pdfrwt beam="1">  1       21 0.91846194E-02 0.45582358E+03</pdfrwt>
<pdfrwt beam="2">  1       21 0.12230792E+00 0.45582358E+03</pdfrwt>
<totfact> 0.43208299E+04</totfact>
</mgrwt>
</event>
<event>
 7    0  0.4707675E-002  0.4538176E+03  0.7546771E-02  0.1026590E+00
         21   -1    0    0  502  501  0.00000000000E+00  0.00000000000E+00  0.72400731332E+02  0.72400731332E+02  0.00000000000E+00 0. -1.
         21   -1    0    0  501  502 -0.00000000000E+00 -0.00000000000E+00 -0.71114745077E+03  0.71114745077E+03  0.00000000000E+00 0. -1.
      99926    2    1    2    0    0  0.00000000000E+00  0.88817841970E-15 -0.63874671943E+03  0.78354818210E+03  0.45381756476E+03 0.  0.
      99925    2    3    3    0    0 -0.80077146132E+02  0.79612240984E+01 -0.53689491282E+03  0.60327885849E+03  0.26308459338E+03 0.  0.
         25    1    4    4    0    0 -0.17099027794E+02  0.11226657889E+02 -0.18247498137E+03  0.22217795014E+03  0.12509000000E+03 0.  0.
         25    1    4    4    0    0 -0.62978118339E+02 -0.32654337907E+01 -0.35441993144E+03  0.38110090836E+03  0.12509000000E+03 0.  0.
         25    1    3    3    0    0  0.80077146132E+02 -0.79612240984E+01 -0.10185180662E+03  0.18026932361E+03  0.12509000000E+03 0.  0.
<mgrwt>
<rscale>  2 0.45381756E+03</rscale>
<asrwt>0</asrwt>
<pdfrwt beam="1">  1       21 0.10647167E-01 0.45381756E+03</pdfrwt>
<pdfrwt beam="2">  1       21 0.10458051E+00 0.45381756E+03</pdfrwt>
<totfact> 0.49024302E+04</totfact>
</mgrwt>
</event>
<event>
 7    0  0.4707675E-002  0.4607803E+03  0.7546771E-02  0.1024555E+00
         21   -1    0    0  502  501  0.00000000000E+00  0.00000000000E+00  0.61053011120E+02  0.61053011120E+02  0.00000000000E+00 0. -1.
         21   -1    0    0  501  502 -0.00000000000E+00 -0.00000000000E+00 -0.86940205850E+03  0.86940205850E+03  0.00000000000E+00 0. -1.
      99926    2    1    2    0    0 -0.35527136788E-14  0.00000000000E+00 -0.80834904738E+03  0.93045506962E+03  0.46078026670E+03 0.  0.
      99925    2    3    3    0    0  0.12051336123E+02 -0.11605843590E+03 -0.46323463280E+03  0.54527165552E+03  0.26290693799E+03 0.  0.
         25    1    4    4    0    0 -0.18480931046E+02 -0.58664849233E+02 -0.16947437778E+03  0.21943605486E+03  0.12509000000E+03 0.  0.
         25    1    4    4    0    0  0.30532267169E+02 -0.57393586669E+02 -0.29376025501E+03  0.32583560066E+03  0.12509000000E+03 0.  0.
         25    1    3    3    0    0 -0.12051336123E+02  0.11605843590E+03 -0.34511441459E+03  0.38518341411E+03  0.12509000000E+03 0.  0.
<mgrwt>
<rscale>  2 0.46078027E+03</rscale>
<asrwt>0</asrwt>
<pdfrwt beam="1">  1       21 0.89783847E-02 0.46078027E+03</pdfrwt>
<pdfrwt beam="2">  1       21 0.12785323E+00 0.46078027E+03</pdfrwt>
<totfact> 0.40098370E+04</totfact>
</mgrwt>
</event>
<event>
 7    0  0.4707675E-002  0.4453145E+03  0.7546771E-02  0.1029129E+00
         21   -1    0    0  502  501  0.00000000000E+00  0.00000000000E+00  0.12404761575E+03  0.12404761575E+03  0.00000000000E+00 0.  1.
         21   -1    0    0  501  502 -0.00000000000E+00 -0.00000000000E+00 -0.39965498988E+03  0.39965498988E+03  0.00000000000E+00 0.  1.
      99926    2    1    2    0    0  0.00000000000E+00  0.14210854715E-13 -0.27560737413E+03  0.52370260563E+03  0.44531448940E+03 0.  0.
      99925    2    3    3    0    0 -0.78978392377E+02 -0.66024737829E+02 -0.15907802401E+03  0.32414446872E+03  0.26299613383E+03 0.  0.
         25    1    4    4    0    0 -0.20712793228E+02  0.52815345381E+01 -0.77500785381E+02  0.14869698802E+03  0.12509000000E+03 0.  0.
         25    1    3    3    0    0  0.78978392377E+02  0.66024737829E+02 -0.11652935012E+03  0.19955813691E+03  0.12509000000E+03 0.  0.
         25    1    4    4    0    0 -0.58265599149E+02 -0.71306272367E+02 -0.81577238633E+02  0.17544748071E+03  0.12509000000E+03 0.  0.
<mgrwt>
<rscale>  2 0.44531449E+03</rscale>
<asrwt>0</asrwt>
<pdfrwt beam="1">  1       21 0.18242296E-01 0.44531449E+03</pdfrwt>
<pdfrwt beam="2">  1       21 0.58772793E-01 0.44531449E+03</pdfrwt>
<totfact> 0.68761372E+04</totfact>
</mgrwt>
</event>
<event>
 7    0  0.4707675E-002  0.4529533E+03  0.7546771E-02  0.1026845E+00
         21   -1    0    0  502  501  0.00000000000E+00  0.00000000000E+00  0.95760327873E+02  0.95760327873E+02  0.00000000000E+00 0. -1.
         21   -1    0    0  501  502 -0.00000000000E+00 -0.00000000000E+00 -0.53562558136E+03  0.53562558136E+03  0.00000000000E+00 0. -1.
      99926    2    1    2    0    0 -0.35527136788E-14  0.00000000000E+00 -0.43986525349E+03  0.63138590923E+03  0.45295333662E+03 0.  0.
      99925    2    3    3    0    0  0.16189872081E+02 -0.10175203434E+03 -0.21892611550E+03  0.35738372084E+03  0.26301880431E+03 0.  0.
         25    1    3    3    0    0 -0.16189872081E+02  0.10175203434E+03 -0.22093913799E+03  0.27400218840E+03  0.12509000000E+03 0.  0.
         25    1    4    4    0    0  0.34401788773E+02 -0.25570826427E+02 -0.79143001310E+02  0.15410539572E+03  0.12509000000E+03 0.  0.
         25    1    4    4    0    0 -0.18211916692E+02 -0.76181207912E+02 -0.13978311419E+03  0.20327832511E+03  0.12509000000E+03 0.  0.
<mgrwt>
<rscale>  2 0.45295334E+03</rscale>
<asrwt>0</asrwt>
<pdfrwt beam="1">  1       21 0.14082402E-01 0.45295334E+03</pdfrwt>
<pdfrwt beam="2">  1       21 0.78768465E-01 0.45295334E+03</pdfrwt>
<totfact> 0.57713557E+04</totfact>
</mgrwt>
</event>
<event>
 7    0  0.4707675E-002  0.4565847E+03  0.7546771E-02  0.1025776E+00
         21   -1    0    0  502  501  0.00000000000E+00  0.00000000000E+00  0.20198482526E+03  0.20198482526E+03  0.00000000000E+00 0.  1.
         21   -1    0    0  501  502 -0.00000000000E+00 -0.00000000000E+00 -0.25802628014E+03  0.25802628014E+03  0.00000000000E+00 0.  1.
      99926    2    1    2    0    0  0.00000000000E+00  0.00000000000E+00 -0.56041454875E+02  0.46001110540E+03  0.45658468264E+03 0.  0.
      99925    2    3    3    0    0 -0.89963777444E+02 -0.16867308717E+02  0.34667985209E+02  0.28041795972E+03  0.26278199249E+03 0.  0.
         25    1    3    3    0    0  0.89963777444E+02  0.16867308717E+02 -0.90709440084E+02  0.17959314568E+03  0.12509000000E+03 0.  0.
         25    1    4    4    0    0 -0.75444070746E+02 -0.21447778984E+02 -0.66732320766E+01  0.14779666830E+03  0.12509000000E+03 0.  0.
         25    1    4    4    0    0 -0.14519706698E+02  0.45804702674E+01  0.41341217285E+02  0.13262129142E+03  0.12509000000E+03 0.  0.
<mgrwt>
<rscale>  2 0.45658468E+03</rscale>
<asrwt>0</asrwt>
<pdfrwt beam="1">  1       21 0.29703651E-01 0.45658468E+03</pdfrwt>
<pdfrwt beam="2">  1       21 0.37945041E-01 0.45658468E+03</pdfrwt>
<totfact> 0.67324854E+04</totfact>
</mgrwt>
</event>
<event>
 7    0  0.4707675E-002  0.4604097E+03  0.7546771E-02  0.1024662E+00
         21   -1    0    0  502  501  0.00000000000E+00  0.00000000000E+00  0.29888216118E+02  0.29888216118E+02  0.00000000000E+00 0. -1.
         21   -1    0    0  501  502 -0.00000000000E+00 -0.00000000000E+00 -0.17730827123E+04  0.17730827123E+04  0.00000000000E+00 0. -1.
      99926    2    1    2    0    0  0.00000000000E+00  0.00000000000E+00 -0.17431944961E+04  0.18029709284E+04  0.46040972752E+03 0.  0.
      99925    2    3    3    0    0  0.33547006154E+02 -0.90179389840E+02 -0.13601755367E+04  0.13887140571E+04  0.26304280621E+03 0.  0.
         25    1    4    4    0    0  0.31358525748E+02 -0.39202613465E+02 -0.49365034832E+03  0.51172099482E+03  0.12509000000E+03 0.  0.
         25    1    4    4    0    0  0.21884804063E+01 -0.50976776375E+02 -0.86652518833E+03  0.87699306228E+03  0.12509000000E+03 0.  0.
         25    1    3    3    0    0 -0.33547006154E+02  0.90179389840E+02 -0.38301895949E+03  0.41425687128E+03  0.12509000000E+03 0.  0.
<mgrwt>
<rscale>  2 0.46040973E+03</rscale>
<asrwt>0</asrwt>
<pdfrwt beam="1">  1       21 0.43953258E-02 0.46040973E+03</pdfrwt>
<pdfrwt beam="2">  1       21 0.26074746E+00 0.46040973E+03</pdfrwt>
<totfact> 0.16498568E+04</totfact>
</mgrwt>
</event>
<event>
 7    0  0.4707675E-002  0.4582874E+03  0.7546771E-02  0.1025279E+00
         21   -1    0    0  502  501  0.00000000000E+00  0.00000000000E+00  0.19473919540E+03  0.19473919540E+03  0.00000000000E+00 0.  1.
         21   -1    0    0  501  502 -0.00000000000E+00 -0.00000000000E+00 -0.26962639093E+03  0.26962639093E+03  0.00000000000E+00 0.  1.
      99926    2    1    2    0    0  0.00000000000E+00  0.00000000000E+00 -0.74887195527E+02  0.46436558633E+03  0.45828736151E+03 0.  0.
      99925    2    3    3    0    0  0.96204599140E+02 -0.65222119680E+02 -0.45751833940E+02  0.29114426205E+03  0.26298764462E+03 0.  0.
         25    1    4    4    0    0  0.77952883421E+02 -0.44017953165E+02 -0.53158244642E+02  0.16274992875E+03  0.12509000000E+03 0.  0.
         25    1    3    3    0    0 -0.96204599140E+02  0.65222119680E+02 -0.29135361587E+02  0.17322132428E+03  0.12509000000E+03 0.  0.
         25    1    4    4    0    0  0.18251715719E+02 -0.21204166515E+02  0.74064107025E+01  0.12839433330E+03  0.12509000000E+03 0.  0.
<mgrwt>
<rscale>  2 0.45828736E+03</rscale>
<asrwt>0</asrwt>
<pdfrwt beam="1">  1       21 0.28638117E-01 0.45828736E+03</pdfrwt>
<pdfrwt beam="2">  1       21 0.39650940E-01 0.45828736E+03</pdfrwt>
<totfact> 0.66112554E+04</totfact>
</mgrwt>
</event>
<event>
 7    0  0.4707675E-002  0.4564305E+03  0.7546771E-02  0.1025822E+00
         21   -1    0    0  502  501  0.00000000000E+00  0.00000000000E+00  0.69161328687E+03  0.69161328687E+03  0.00000000000E+00 0.  1.
         21   -1    0    0  501  502 -0.00000000000E+00 -0.00000000000E+00 -0.75305386636E+02  0.75305386636E+02  0.00000000000E+00 0.  1.
      99926    2    1    2    0    0  0.14210854715E-13 -0.17763568394E-14  0.61630790023E+03  0.76691867350E+03  0.45643052470E+03 0.  0.
      99925    2    3    3    0    0  0.83831662788E+02 -0.10533955874E+02  0.25729466762E+03  0.37746171670E+03  0.26294122856E+03 0.  0.
         25    1    4    4    0    0  0.26505265116E+01 -0.14267824155E+01  0.13795666873E+03  0.18624878938E+03  0.12509000000E+03 0.  0.
         25    1    4    4    0    0  0.81181136276E+02 -0.91071734582E+01  0.11933799889E+03  0.19121292732E+03  0.12509000000E+03 0.  0.
         25    1    3    3    0    0 -0.83831662788E+02  0.10533955874E+02  0.35901323261E+03  0.38945695680E+03  0.12509000000E+03 0.  0.
<mgrwt>
<rscale>  2 0.45643052E+03</rscale>
<asrwt>0</asrwt>
<pdfrwt beam="1">  1       21 0.10170783E+00 0.45643052E+03</pdfrwt>
<pdfrwt beam="2">  1       21 0.11074322E-01 0.45643052E+03</pdfrwt>
<totfact> 0.48855430E+04</totfact>
</mgrwt>
</event>
<event>
 7    0  0.4707675E-002  0.4588685E+03  0.7546771E-02  0.1025110E+00
         21   -1    0    0  502  501  0.00000000000E+00  0.00000000000E+00  0.11515651356E+03  0.11515651356E+03  0.00000000000E+00 0.  1.
         21   -1    0    0  501  502 -0.00000000000E+00 -0.00000000000E+00 -0.45711756626E+03  0.45711756626E+03  0.00000000000E+00 0.  1.
      99926    2    1    2    0    0  0.17763568394E-14 -0.14210854715E-13 -0.34196105270E+03  0.57227407982E+03  0.45886845704E+03 0.  0.
      99925    2    3    3    0    0  0.15840303315E+02 -0.10339434764E+03 -0.14911693445E+03  0.31973167075E+03  0.26277590226E+03 0.  0.
         25    1    4    4    0    0  0.27658992987E+01 -0.10842520226E+02 -0.52622652369E+02  0.13616850622E+03  0.12509000000E+03 0.  0.
         25    1    3    3    0    0 -0.15840303315E+02  0.10339434764E+03 -0.19284411825E+03  0.25254240907E+03  0.12509000000E+03 0.  0.
         25    1    4    4    0    0  0.13074404016E+02 -0.92551827415E+02 -0.96494282076E+02  0.18356316453E+03  0.12509000000E+03 0.  0.
<mgrwt>
<rscale>  2 0.45886846E+03</rscale>
<asrwt>0</asrwt>
<pdfrwt beam="1">  1       21 0.16934782E-01 0.45886846E+03</pdfrwt>
<pdfrwt beam="2">  1       21 0.67223171E-01 0.45886846E+03</pdfrwt>
<totfact> 0.58604798E+04</totfact>
</mgrwt>
</event>
<event>
 7    0  0.4707675E-002  0.4447052E+03  0.7546771E-02  0.1029313E+00
         21   -1    0    0  502  501  0.00000000000E+00  0.00000000000E+00  0.57386893244E+03  0.57386893244E+03  0.00000000000E+00 0.  1.
         21   -1    0    0  501  502 -0.00000000000E+00 -0.00000000000E+00 -0.86153250875E+02  0.86153250875E+02  0.00000000000E+00 0.  1.
      99926    2    1    2    0    0  0.00000000000E+00  0.00000000000E+00  0.48771568157E+03  0.66002218332E+03  0.44470517922E+03 0.  0.
      99925    2    3    3    0    0  0.79699174662E+02 -0.46317344686E+02  0.37918785539E+03  0.47048840792E+03  0.26282818999E+03 0.  0.
         25    1    3    3    0    0 -0.79699174662E+02  0.46317344686E+02  0.10852782618E+03  0.18953377540E+03  0.12509000000E+03 0.  0.
         25    1    4    4    0    0  0.71521574104E+02 -0.12128861317E+02  0.15983251987E+03  0.21553743839E+03  0.12509000000E+03 0.  0.
         25    1    4    4    0    0  0.81776005576E+01 -0.34188483369E+02  0.21935533552E+03  0.25495096954E+03  0.12509000000E+03 0.  0.
<mgrwt>
<rscale>  2 0.44470518E+03</rscale>
<asrwt>0</asrwt>
<pdfrwt beam="1">  1       21 0.84392488E-01 0.44470518E+03</pdfrwt>
<pdfrwt beam="2">  1       21 0.12669596E-01 0.44470518E+03</pdfrwt>
<totfact> 0.59837322E+04</totfact>
</mgrwt>
</event>
<event>
 7    0  0.4707675E-002  0.4363154E+03  0.7546771E-02  0.1031883E+00
         21   -1    0    0  502  501  0.00000000000E+00  0.00000000000E+00  0.10214664998E+03  0.10214664998E+03  0.00000000000E+00 0.  1.
         21   -1    0    0  501  502 -0.00000000000E+00 -0.00000000000E+00 -0.46592604075E+03  0.46592604075E+03  0.00000000000E+00 0.  1.
      99926    2    1    2    0    0  0.00000000000E+00  0.00000000000E+00 -0.36377939077E+03  0.56807269073E+03  0.43631540977E+03 0.  0.
      99925    2    3    3    0    0  0.77017387525E+02 -0.11648604197E+02 -0.16324754459E+03  0.31921952640E+03  0.26302847234E+03 0.  0.
         25    1    4    4    0    0 -0.12744003548E+01  0.84061711579E+01 -0.76223368103E+02  0.14673035730E+03  0.12509000000E+03 0.  0.
         25    1    3    3    0    0 -0.77017387525E+02  0.11648604197E+02 -0.20053184618E+03  0.24885316433E+03  0.12509000000E+03 0.  0.
         25    1    4    4    0    0  0.78291787880E+02 -0.20054775355E+02 -0.87024176483E+02  0.17248916910E+03  0.12509000000E+03 0.  0.
<mgrwt>
<rscale>  2 0.43631541E+03</rscale>
<asrwt>0</asrwt>
<pdfrwt beam="1">  1       21 0.15021566E-01 0.43631541E+03</pdfrwt>
<pdfrwt beam="2">  1       21 0.68518535E-01 0.43631541E+03</pdfrwt>
<totfact> 0.70548043E+04</totfact>
</mgrwt>
</event>
<event>
 7    0  0.4707675E-002  0.4550217E+03  0.7546771E-02  0.1026235E+00
         21   -1    0    0  502  501  0.00000000000E+00  0.00000000000E+00  0.99838555487E+03  0.99838555487E+03  0.00000000000E+00 0. -1.
         21   -1    0    0  501  502 -0.00000000000E+00 -0.00000000000E+00 -0.51844891805E+02  0.51844891805E+02  0.00000000000E+00 0. -1.
      99926    2    1    2    0    0  0.00000000000E+00  0.00000000000E+00  0.94654066306E+03  0.10502304467E+04  0.45502171848E+03 0.  0.
      99925    2    3    3    0    0 -0.11283816285E+03  0.49093177914E+01  0.61285254578E+03  0.67639649942E+03  0.26299701361E+03 0.  0.
         25    1    3    3    0    0  0.11283816285E+03 -0.49093177914E+01  0.33368811728E+03  0.37383394725E+03  0.12509000000E+03 0.  0.
         25    1    4    4    0    0 -0.15322920917E+02  0.90873579064E+01  0.24114325842E+03  0.27224061262E+03  0.12509000000E+03 0.  0.
         25    1    4    4    0    0 -0.97515241938E+02 -0.41780401150E+01  0.37170928736E+03  0.40415588680E+03  0.12509000000E+03 0.  0.
<mgrwt>
<rscale>  2 0.45502172E+03</rscale>
<asrwt>0</asrwt>
<pdfrwt beam="1">  1       21 0.14682139E+00 0.45502172E+03</pdfrwt>
<pdfrwt beam="2">  1       21 0.76242494E-02 0.45502172E+03</pdfrwt>
<totfact> 0.37262616E+04</totfact>
</mgrwt>
</event>
<event>
 7    0  0.4707675E-002  0.4554198E+03  0.7546771E-02  0.1026118E+00
         21   -1    0    0  502  501  0.00000000000E+00  0.00000000000E+00  0.33791928452E+02  0.33791928452E+02  0.00000000000E+00 0. -1.
         21   -1    0    0  501  502 -0.00000000000E+00 -0.00000000000E+00 -0.15344431429E+04  0.15344431429E+04  0.00000000000E+00 0. -1.
      99926    2    1    2    0    0 -0.71054273576E-14  0.35527136788E-14 -0.15006512144E+04  0.15682350713E+04  0.45541977515E+03 0.  0.
      99925    2    3    3    0    0  0.43208840811E+02 -0.19696028644E+02 -0.58859387209E+03  0.64641565231E+03  0.26297435583E+03 0.  0.
         25    1    3    3    0    0 -0.43208840811E+02  0.19696028644E+02 -0.91205734234E+03  0.92181941902E+03  0.12509000000E+03 0.  0.
         25    1    4    4    0    0  0.22593703339E+02 -0.40868454032E+02 -0.23641586243E+03  0.27151551350E+03  0.12509000000E+03 0.  0.
         25    1    4    4    0    0  0.20615137472E+02  0.21172425389E+02 -0.35217800966E+03  0.37490013881E+03  0.12509000000E+03 0.  0.
<mgrwt>
<rscale>  2 0.45541978E+03</rscale>
<asrwt>0</asrwt>
<pdfrwt beam="1">  1       21 0.49694004E-02 0.45541978E+03</pdfrwt>
<pdfrwt beam="2">  1       21 0.22565344E+00 0.45541978E+03</pdfrwt>
<totfact> 0.22083176E+04</totfact>
</mgrwt>
</event>
<event>
 7    0  0.4707675E-002  0.4486245E+03  0.7546771E-02  0.1028133E+00
         21   -1    0    0  502  501  0.00000000000E+00  0.00000000000E+00  0.26409395621E+03  0.26409395621E+03  0.00000000000E+00 0. -1.
         21   -1    0    0  501  502 -0.00000000000E+00 -0.00000000000E+00 -0.19052304116E+03  0.19052304116E+03  0.00000000000E+00 0. -1.
      99926    2    1    2    0    0  0.00000000000E+00  0.00000000000E+00  0.73570915048E+02  0.45461699737E+03  0.44862449192E+03 0.  0.
      99925    2    3    3    0    0  0.70870789184E+02  0.30073746262E+02 -0.28560583867E+02  0.27571632620E+03  0.26320464777E+03 0.  0.
         25    1    4    4    0    0  0.32732789546E+02 -0.23974919289E+02 -0.76120335832E+00  0.13150786971E+03  0.12509000000E+03 0.  0.
         25    1    3    3    0    0 -0.70870789184E+02 -0.30073746262E+02  0.10213149892E+03  0.17890067117E+03  0.12509000000E+03 0.  0.
         25    1    4    4    0    0  0.38137999638E+02  0.54048665551E+02 -0.27799380509E+02  0.14420845648E+03  0.12509000000E+03 0.  0.
<mgrwt>
<rscale>  2 0.44862449E+03</rscale>
<asrwt>0</asrwt>
<pdfrwt beam="1">  1       21 0.38837347E-01 0.44862449E+03</pdfrwt>
<pdfrwt beam="2">  1       21 0.28018094E-01 0.44862449E+03</pdfrwt>
<totfact> 0.72174855E+04</totfact>
</mgrwt>
</event>
<event>
 7    0  0.4707675E-002  0.4445158E+03  0.7546771E-02  0.1029370E+00
         21   -1    0    0  502  501  0.00000000000E+00  0.00000000000E+00  0.75696186740E+02  0.75696186740E+02  0.00000000000E+00 0. -1.
         21   -1    0    0  501  502 -0.00000000000E+00 -0.00000000000E+00 -0.65258989593E+03  0.65258989593E+03  0.00000000000E+00 0. -1.
      99926    2    1    2    0    0  0.00000000000E+00  0.00000000000E+00 -0.57689370920E+03  0.72828608267E+03  0.44451576632E+03 0.  0.
      99925    2    3    3    0    0  0.96942873345E+02 -0.38009211644E+02 -0.36416758420E+03  0.46043811606E+03  0.26180643323E+03 0.  0.
         25    1    4    4    0    0  0.52826377434E+02  0.18548678385E+02 -0.19130611776E+03  0.23533002022E+03  0.12509000000E+03 0.  0.
         25    1    4    4    0    0  0.44116495911E+02 -0.56557890030E+02 -0.17286146644E+03  0.22510809584E+03  0.12509000000E+03 0.  0.
         25    1    3    3    0    0 -0.96942873345E+02  0.38009211644E+02 -0.21272612500E+03  0.26784796661E+03  0.12509000000E+03 0.  0.
<mgrwt>
<rscale>  2 0.44451577E+03</rscale>
<asrwt>0</asrwt>
<pdfrwt beam="1">  1       21 0.11131792E-01 0.44451577E+03</pdfrwt>
<pdfrwt beam="2">  1       21 0.95969102E-01 0.44451577E+03</pdfrwt>
<totfact> 0.55858832E+04</totfact>
</mgrwt>
</event>
<event>
 7    0  0.4707675E-002  0.4556216E+03  0.7546771E-02  0.1026059E+00
         21   -1    0    0  502  501  0.00000000000E+00  0.00000000000E+00  0.79540692676E+02  0.79540692676E+02  0.00000000000E+00 0. -1.
         21   -1    0    0  501  502 -0.00000000000E+00 -0.00000000000E+00 -0.65246807548E+03  0.65246807548E+03  0.00000000000E+00 0. -1.
      99926    2    1    2    0    0  0.00000000000E+00  0.00000000000E+00 -0.57292738281E+03  0.73200876816E+03  0.45562160911E+03 0.  0.
      99925    2    3    3    0    0  0.54134311382E+01  0.41821238709E+02 -0.53004472640E+03  0.59321124814E+03  0.26300922357E+03 0.  0.
         25    1    3    3    0    0 -0.54134311382E+01 -0.41821238709E+02 -0.42882656403E+02  0.13879752002E+03  0.12509000000E+03 0.  0.
         25    1    4    4    0    0  0.86775972241E+01  0.92972907938E+01 -0.17600823516E+03  0.21630568013E+03  0.12509000000E+03 0.  0.
         25    1    4    4    0    0 -0.32641660859E+01  0.32523947915E+02 -0.35403649124E+03  0.37690556801E+03  0.12509000000E+03 0.  0.
<mgrwt>
<rscale>  2 0.45562161E+03</rscale>
<asrwt>0</asrwt>
<pdfrwt beam="1">  1       21 0.11697161E-01 0.45562161E+03</pdfrwt>
<pdfrwt beam="2">  1       21 0.95951186E-01 0.45562161E+03</pdfrwt>
<totfact> 0.50949847E+04</totfact>
</mgrwt>
</event>
<event>
 7    0  0.4707675E-002  0.4567009E+03  0.7546771E-02  0.1025742E+00
         21   -1    0    0  502  501  0.00000000000E+00  0.00000000000E+00  0.37924861949E+03  0.37924861949E+03  0.00000000000E+00 0.  1.
         21   -1    0    0  501  502 -0.00000000000E+00 -0.00000000000E+00 -0.13749270645E+03  0.13749270645E+03  0.00000000000E+00 0.  1.
      99926    2    1    2    0    0  0.00000000000E+00  0.00000000000E+00  0.24175591305E+03  0.51674132594E+03  0.45670086100E+03 0.  0.
      99925    2    3    3    0    0  0.52349389490E+02  0.84043083781E+02  0.21750810416E+03  0.35537477784E+03  0.26301665125E+03 0.  0.
         25    1    4    4    0    0  0.15227936788E+02  0.35718584359E+02  0.56697437942E+02  0.14272286046E+03  0.12509000000E+03 0.  0.
         25    1    4    4    0    0  0.37121452702E+02  0.48324499422E+02  0.16081066622E+03  0.21265191738E+03  0.12509000000E+03 0.  0.
         25    1    3    3    0    0 -0.52349389490E+02 -0.84043083781E+02  0.24247808883E+02  0.16136654810E+03  0.12509000000E+03 0.  0.
<mgrwt>
<rscale>  2 0.45670086E+03</rscale>
<asrwt>0</asrwt>
<pdfrwt beam="1">  1       21 0.55771856E-01 0.45670086E+03</pdfrwt>
<pdfrwt beam="2">  1       21 0.20219516E-01 0.45670086E+03</pdfrwt>
<totfact> 0.63251856E+04</totfact>
</mgrwt>
</event>
<event>
 7    0  0.4707675E-002  0.4556966E+03  0.7546771E-02  0.1026037E+00
         21   -1    0    0  502  501  0.00000000000E+00  0.00000000000E+00  0.16557597546E+03  0.16557597546E+03  0.00000000000E+00 0.  1.
         21   -1    0    0  501  502 -0.00000000000E+00 -0.00000000000E+00 -0.31354089603E+03  0.31354089603E+03  0.00000000000E+00 0.  1.
      99926    2    1    2    0    0  0.00000000000E+00  0.00000000000E+00 -0.14796492057E+03  0.47911687149E+03  0.45569656443E+03 0.  0.
      99925    2    3    3    0    0 -0.42943706195E+01 -0.11380235076E+03 -0.94342659193E+02  0.30165625143E+03  0.26291926523E+03 0.  0.
         25    1    4    4    0    0 -0.61727755645E+01 -0.56628830834E+02 -0.89502371824E+02  0.16402167632E+03  0.12509000000E+03 0.  0.
         25    1    3    3    0    0  0.42943706195E+01  0.11380235076E+03 -0.53622261379E+02  0.17746062006E+03  0.12509000000E+03 0.  0.
         25    1    4    4    0    0  0.18784049450E+01 -0.57173519924E+02 -0.48402873692E+01  0.13763457512E+03  0.12509000000E+03 0.  0.
<mgrwt>
<rscale>  2 0.45569656E+03</rscale>
<asrwt>0</asrwt>
<pdfrwt beam="1">  1       21 0.24349409E-01 0.45569656E+03</pdfrwt>
<pdfrwt beam="2">  1       21 0.46108954E-01 0.45569656E+03</pdfrwt>
<totfact> 0.66396590E+04</totfact>
</mgrwt>
</event>
<event>
 7    0  0.4707675E-002  0.4622144E+03  0.7546771E-02  0.1024141E+00
         21   -1    0    0  502  501  0.00000000000E+00  0.00000000000E+00  0.62521483219E+03  0.62521483219E+03  0.00000000000E+00 0. -1.
         21   -1    0    0  501  502 -0.00000000000E+00 -0.00000000000E+00 -0.85427502140E+02  0.85427502140E+02  0.00000000000E+00 0. -1.
      99926    2    1    2    0    0  0.00000000000E+00  0.00000000000E+00  0.53978733005E+03  0.71064233433E+03  0.46221441524E+03 0.  0.
      99925    2    3    3    0    0  0.91771824679E+02 -0.40872551653E+02  0.43754515703E+03  0.52039616925E+03  0.26319911711E+03 0.  0.
         25    1    3    3    0    0 -0.91771824679E+02  0.40872551653E+02  0.10224217302E+03  0.19024616508E+03  0.12509000000E+03 0.  0.
         25    1    4    4    0    0  0.51382543636E+02 -0.44241883917E+02  0.28822485031E+03  0.32143208073E+03  0.12509000000E+03 0.  0.
         25    1    4    4    0    0  0.40389281044E+02  0.33693322635E+01  0.14932030672E+03  0.19896408852E+03  0.12509000000E+03 0.  0.
<mgrwt>
<rscale>  2 0.46221442E+03</rscale>
<asrwt>0</asrwt>
<pdfrwt beam="1">  1       21 0.91943355E-01 0.46221442E+03</pdfrwt>
<pdfrwt beam="2">  1       21 0.12562868E-01 0.46221442E+03</pdfrwt>
<totfact> 0.49461148E+04</totfact>
</mgrwt>
</event>
<event>
 7    0  0.4707675E-002  0.4382040E+03  0.7546771E-02  0.1031299E+00
         21   -1    0    0  502  501  0.00000000000E+00  0.00000000000E+00  0.26481041448E+03  0.26481041448E+03  0.00000000000E+00 0. -1.
         21   -1    0    0  501  502 -0.00000000000E+00 -0.00000000000E+00 -0.18128320310E+03  0.18128320310E+03  0.00000000000E+00 0. -1.
      99926    2    1    2    0    0  0.00000000000E+00  0.00000000000E+00  0.83527211378E+02  0.44609361757E+03  0.43820397146E+03 0.  0.
      99925    2    3    3    0    0 -0.32427344123E+02 -0.88377975037E+02  0.75075344135E+02  0.28930987710E+03  0.26306215724E+03 0.  0.
         25    1    3    3    0    0  0.32427344123E+02  0.88377975037E+02  0.84518672432E+01  0.15678374048E+03  0.12509000000E+03 0.  0.
         25    1    4    4    0    0 -0.29367365232E+02 -0.55889078468E+01  0.24104260625E+02  0.13085183037E+03  0.12509000000E+03 0.  0.
         25    1    4    4    0    0 -0.30599788907E+01 -0.82789067190E+02  0.50971083509E+02  0.15845804672E+03  0.12509000000E+03 0.  0.
<mgrwt>
<rscale>  2 0.43820397E+03</rscale>
<asrwt>0</asrwt>
<pdfrwt beam="1">  1       21 0.38942708E-01 0.43820397E+03</pdfrwt>
<pdfrwt beam="2">  1       21 0.26659294E-01 0.43820397E+03</pdfrwt>
<totfact> 0.79304462E+04</totfact>
</mgrwt>
</event>
<event>
 7    0  0.4707675E-002  0.4561501E+03  0.7546771E-02  0.1025904E+00
         21   -1    0    0  502  501  0.00000000000E+00  0.00000000000E+00  0.98168095739E+02  0.98168095739E+02  0.00000000000E+00 0. -1.
         21   -1    0    0  501  502 -0.00000000000E+00 -0.00000000000E+00 -0.52988945372E+03  0.52988945372E+03  0.00000000000E+00 0. -1.
      99926    2    1    2    0    0  0.00000000000E+00  0.00000000000E+00 -0.43172135798E+03  0.62805754946E+03  0.45615014469E+03 0.  0.
      99925    2    3    3    0    0  0.68708895061E+02  0.87633331305E+02 -0.23507029396E+03  0.36975605489E+03  0.26279456617E+03 0.  0.
         25    1    4    4    0    0  0.85197100930E+01  0.51635481539E+02 -0.15333618303E+03  0.20469074611E+03  0.12509000000E+03 0.  0.
         25    1    3    3    0    0 -0.68708895061E+02 -0.87633331305E+02 -0.19665106402E+03  0.25830149457E+03  0.12509000000E+03 0.  0.
         25    1    4    4    0    0  0.60189184968E+02  0.35997849766E+02 -0.81734110921E+02  0.16506530878E+03  0.12509000000E+03 0.  0.
<mgrwt>
<rscale>  2 0.45615014E+03</rscale>
<asrwt>0</asrwt>
<pdfrwt beam="1">  1       21 0.14436485E-01 0.45615014E+03</pdfrwt>
<pdfrwt beam="2">  1       21 0.77924921E-01 0.45615014E+03</pdfrwt>
<totfact> 0.56469163E+04</totfact>
</mgrwt>
</event>
<event>
 7    0  0.4707675E-002  0.4083930E+03  0.7546771E-02  0.1040912E+00
         21   -1    0    0  502  501  0.00000000000E+00  0.00000000000E+00  0.49057650099E+02  0.49057650099E+02  0.00000000000E+00 0. -1.
         21   -1    0    0  501  502 -0.00000000000E+00 -0.00000000000E+00 -0.84994325007E+03  0.84994325007E+03  0.00000000000E+00 0. -1.
      99926    2    1    2    0    0  0.00000000000E+00  0.00000000000E+00 -0.80088559997E+03  0.89900090017E+03  0.40839303895E+03 0.  0.
      99925    2    3    3    0    0 -0.17298466448E+02  0.99419060202E+01 -0.65303783747E+03  0.70430999793E+03  0.26305147326E+03 0.  0.
         25    1    4    4    0    0 -0.41700740586E+02  0.15775231514E+01 -0.26885540804E+03  0.29945313302E+03  0.12509000000E+03 0.  0.
         25    1    3    3    0    0  0.17298466448E+02 -0.99419060202E+01 -0.14784776251E+03  0.19469090224E+03  0.12509000000E+03 0.  0.
         25    1    4    4    0    0  0.24402274138E+02  0.83643828688E+01 -0.38418242942E+03  0.40485686491E+03  0.12509000000E+03 0.  0.
<mgrwt>
<rscale>  2 0.40839304E+03</rscale>
<asrwt>0</asrwt>
<pdfrwt beam="1">  1       21 0.72143604E-02 0.40839304E+03</pdfrwt>
<pdfrwt beam="2">  1       21 0.12499165E+00 0.40839304E+03</pdfrwt>
<totfact> 0.63443050E+04</totfact>
</mgrwt>
</event>
<event>
 7    0  0.4707675E-002  0.4513241E+03  0.7546771E-02  0.1027328E+00
         21   -1    0    0  502  501  0.00000000000E+00  0.00000000000E+00  0.37944856668E+03  0.37944856668E+03  0.00000000000E+00 0.  1.
         21   -1    0    0  501  502 -0.00000000000E+00 -0.00000000000E+00 -0.13420359208E+03  0.13420359208E+03  0.00000000000E+00 0.  1.
      99926    2    1    2    0    0  0.71054273576E-14  0.00000000000E+00  0.24524497461E+03  0.51365215876E+03  0.45132409933E+03 0.  0.
      99925    2    3    3    0    0  0.61022656880E+02 -0.89769748866E+02  0.17269969488E+03  0.33284093628E+03  0.26301241756E+03 0.  0.
         25    1    4    4    0    0  0.34019345690E+02 -0.73194604132E+02  0.56622925592E+02  0.15927469905E+03  0.12509000000E+03 0.  0.
         25    1    4    4    0    0  0.27003311190E+02 -0.16575144734E+02  0.11607676929E+03  0.17356623723E+03  0.12509000000E+03 0.  0.
         25    1    3    3    0    0 -0.61022656880E+02  0.89769748866E+02  0.72545279723E+02  0.18081122248E+03  0.12509000000E+03 0.  0.
<mgrwt>
<rscale>  2 0.45132410E+03</rscale>
<asrwt>0</asrwt>
<pdfrwt beam="1">  1       21 0.55801259E-01 0.45132410E+03</pdfrwt>
<pdfrwt beam="2">  1       21 0.19735822E-01 0.45132410E+03</pdfrwt>
<totfact> 0.66232694E+04</totfact>
</mgrwt>
</event>
<event>
 7    0  0.4707675E-002  0.4580814E+03  0.7546771E-02  0.1025339E+00
         21   -1    0    0  502  501  0.00000000000E+00  0.00000000000E+00  0.42982898056E+03  0.42982898056E+03  0.00000000000E+00 0.  1.
         21   -1    0    0  501  502 -0.00000000000E+00 -0.00000000000E+00 -0.12204769965E+03  0.12204769965E+03  0.00000000000E+00 0.  1.
      99926    2    1    2    0    0  0.00000000000E+00  0.00000000000E+00  0.30778128090E+03  0.55187668021E+03  0.45808138282E+03 0.  0.
      99925    2    3    3    0    0  0.10072153465E+03  0.49257581956E+02  0.22967410411E+03  0.36662178529E+03  0.26285015205E+03 0.  0.
         25    1    4    4    0    0  0.90125040849E+02  0.27483022572E+02  0.14662595965E+03  0.21453326004E+03  0.12509000000E+03 0.  0.
         25    1    4    4    0    0  0.10596493805E+02  0.21774559383E+02  0.83048144454E+02  0.15208852526E+03  0.12509000000E+03 0.  0.
         25    1    3    3    0    0 -0.10072153465E+03 -0.49257581956E+02  0.78107176795E+02  0.18525489492E+03  0.12509000000E+03 0.  0.
<mgrwt>
<rscale>  2 0.45808138E+03</rscale>
<asrwt>0</asrwt>
<pdfrwt beam="1">  1       21 0.63210144E-01 0.45808138E+03</pdfrwt>
<pdfrwt beam="2">  1       21 0.17948191E-01 0.45808138E+03</pdfrwt>
<totfact> 0.60260120E+04</totfact>
</mgrwt>
</event>
<event>
 7    0  0.4707675E-002  0.4516345E+03  0.7546771E-02  0.1027236E+00
         21   -1    0    0  502  501  0.00000000000E+00  0.00000000000E+00  0.27803781812E+03  0.27803781812E+03  0.00000000000E+00 0.  1.
         21   -1    0    0  501  502 -0.00000000000E+00 -0.00000000000E+00 -0.18340464665E+03  0.18340464665E+03  0.00000000000E+00 0.  1.
      99926    2    1    2    0    0  0.00000000000E+00 -0.71054273576E-14  0.94633171474E+02  0.46144246477E+03  0.45163448844E+03 0.  0.
      99925    2    3    3    0    0  0.78689897388E+02  0.41922293709E+02 -0.59794176434E+01  0.27781245674E+03  0.26304833971E+03 0.  0.
         25    1    4    4    0    0  0.26633030291E+02  0.48646356156E+02  0.23899610150E+02  0.13890459220E+03  0.12509000000E+03 0.  0.
         25    1    3    3    0    0 -0.78689897388E+02 -0.41922293709E+02  0.10061258912E+03  0.18363000803E+03  0.12509000000E+03 0.  0.
         25    1    4    4    0    0  0.52056867097E+02 -0.67240624469E+01 -0.29879027793E+02  0.13890786453E+03  0.12509000000E+03 0.  0.
<mgrwt>
<rscale>  2 0.45163449E+03</rscale>
<asrwt>0</asrwt>
<pdfrwt beam="1">  1       21 0.40887915E-01 0.45163449E+03</pdfrwt>
<pdfrwt beam="2">  1       21 0.26971271E-01 0.45163449E+03</pdfrwt>
<totfact> 0.69926355E+04</totfact>
</mgrwt>
</event>
<event>
 7    0  0.4707675E-002  0.4430027E+03  0.7546771E-02  0.1029829E+00
         21   -1    0    0  502  501  0.00000000000E+00  0.00000000000E+00  0.48603557066E+03  0.48603557066E+03  0.00000000000E+00 0.  1.
         21   -1    0    0  501  502 -0.00000000000E+00 -0.00000000000E+00 -0.10094497353E+03  0.10094497353E+03  0.00000000000E+00 0.  1.
      99926    2    1    2    0    0  0.00000000000E+00  0.00000000000E+00  0.38509059713E+03  0.58698054419E+03  0.44300269893E+03 0.  0.
      99925    2    3    3    0    0  0.52577802840E+02 -0.42894734150E+02  0.14505645193E+03  0.30793165505E+03  0.26301358590E+03 0.  0.
         25    1    4    4    0    0  0.34440666473E+02 -0.61875924455E+02  0.73377916372E+02  0.16138964107E+03  0.12509000000E+03 0.  0.
         25    1    4    4    0    0  0.18137136367E+02  0.18981190305E+02  0.71678535554E+02  0.14654201398E+03  0.12509000000E+03 0.  0.
         25    1    3    3    0    0 -0.52577802840E+02  0.42894734150E+02  0.24003414520E+03  0.27904888914E+03  0.12509000000E+03 0.  0.
<mgrwt>
<rscale>  2 0.44300270E+03</rscale>
<asrwt>0</asrwt>
<pdfrwt beam="1">  1       21 0.71475818E-01 0.44300270E+03</pdfrwt>
<pdfrwt beam="2">  1       21 0.14844849E-01 0.44300270E+03</pdfrwt>
<totfact> 0.65478461E+04</totfact>
</mgrwt>
</event>
<event>
 7    0  0.4707675E-002  0.4432870E+03  0.7546771E-02  0.1029743E+00
         21   -1    0    0  502  501  0.00000000000E+00  0.00000000000E+00  0.31967594417E+03  0.31967594417E+03  0.00000000000E+00 0.  1.
         21   -1    0    0  501  502 -0.00000000000E+00 -0.00000000000E+00 -0.15367386909E+03  0.15367386909E+03  0.00000000000E+00 0.  1.
      99926    2    1    2    0    0  0.00000000000E+00  0.00000000000E+00  0.16600207508E+03  0.47334981325E+03  0.44328699144E+03 0.  0.
      99925    2    3    3    0    0  0.76343099481E+02  0.54829984909E+02  0.14647581205E+03  0.31566855523E+03  0.26335693870E+03 0.  0.
         25    1    4    4    0    0  0.58536899697E+01  0.87683352062E+01  0.42612523363E+02  0.13256879209E+03  0.12509000000E+03 0.  0.
         25    1    4    4    0    0  0.70489409511E+02  0.46061649703E+02  0.10386328869E+03  0.18309976314E+03  0.12509000000E+03 0.  0.
         25    1    3    3    0    0 -0.76343099481E+02 -0.54829984909E+02  0.19526263026E+02  0.15768125802E+03  0.12509000000E+03 0.  0.
<mgrwt>
<rscale>  2 0.44328699E+03</rscale>
<asrwt>0</asrwt>
<pdfrwt beam="1">  1       21 0.47011168E-01 0.44328699E+03</pdfrwt>
<pdfrwt beam="2">  1       21 0.22599098E-01 0.44328699E+03</pdfrwt>
<totfact> 0.73815045E+04</totfact>
</mgrwt>
</event>
<event>
 7    0  0.4707675E-002  0.4500528E+03  0.7546771E-02  0.1027706E+00
         21   -1    0    0  502  501  0.00000000000E+00  0.00000000000E+00  0.82859401438E+02  0.82859401438E+02  0.00000000000E+00 0. -1.
         21   -1    0    0  501  502 -0.00000000000E+00 -0.00000000000E+00 -0.61111800352E+03  0.61111800352E+03  0.00000000000E+00 0. -1.
      99926    2    1    2    0    0  0.00000000000E+00  0.00000000000E+00 -0.52825860208E+03  0.69397740496E+03  0.45005276126E+03 0.  0.
      99925    2    3    3    0    0  0.48178818056E+02  0.97135222517E+02 -0.32784424285E+03  0.43403534709E+03  0.26296080505E+03 0.  0.
         25    1    3    3    0    0 -0.48178818056E+02 -0.97135222517E+02 -0.20041435923E+03  0.25994205787E+03  0.12509000000E+03 0.  0.
         25    1    4    4    0    0 -0.99743765929E+01  0.69850231308E+02 -0.17380112735E+03  0.22546148888E+03  0.12509000000E+03 0.  0.
         25    1    4    4    0    0  0.58153194649E+02  0.27284991209E+02 -0.15404311551E+03  0.20857385821E+03  0.12509000000E+03 0.  0.
<mgrwt>
<rscale>  2 0.45005276E+03</rscale>
<asrwt>0</asrwt>
<pdfrwt beam="1">  1       21 0.12185206E-01 0.45005276E+03</pdfrwt>
<pdfrwt beam="2">  1       21 0.89870297E-01 0.45005276E+03</pdfrwt>
<totfact> 0.55355442E+04</totfact>
</mgrwt>
</event>
<event>
 7    0  0.4707675E-002  0.4548202E+03  0.7546771E-02  0.1026294E+00
         21   -1    0    0  502  501  0.00000000000E+00  0.00000000000E+00  0.19738505236E+02  0.19738505236E+02  0.00000000000E+00 0.  1.
         21   -1    0    0  501  502 -0.00000000000E+00 -0.00000000000E+00 -0.26200239591E+04  0.26200239591E+04  0.00000000000E+00 0.  1.
      99926    2    1    2    0    0  0.00000000000E+00 -0.14210854715E-13 -0.26002854538E+04  0.26397624643E+04  0.45482021343E+03 0.  0.
      99925    2    3    3    0    0 -0.12651897591E+02  0.10993730018E+03 -0.15034224399E+04  0.15302570520E+04  0.26298542153E+03 0.  0.
         25    1    4    4    0    0 -0.39156331111E+02  0.31937329443E+02 -0.76338414345E+03  0.77521356402E+03  0.12509000000E+03 0.  0.
         25    1    3    3    0    0  0.12651897591E+02 -0.10993730018E+03 -0.10968630140E+04  0.11095054123E+04  0.12509000000E+03 0.  0.
         25    1    4    4    0    0  0.26504433519E+02  0.77999970740E+02 -0.74003829644E+03  0.75504348797E+03  0.12509000000E+03 0.  0.
<mgrwt>
<rscale>  2 0.45482021E+03</rscale>
<asrwt>0</asrwt>
<pdfrwt beam="1">  1       21 0.29027209E-02 0.45482021E+03</pdfrwt>
<pdfrwt beam="2">  1       21 0.38529770E+00 0.45482021E+03</pdfrwt>
<totfact> 0.58130813E+03</totfact>
</mgrwt>
</event>
<event>
 7    0  0.4707675E-002  0.4332419E+03  0.7546771E-02  0.1032841E+00
         21   -1    0    0  502  501  0.00000000000E+00  0.00000000000E+00  0.22674680005E+03  0.22674680005E+03  0.00000000000E+00 0. -1.
         21   -1    0    0  501  502 -0.00000000000E+00 -0.00000000000E+00 -0.20694733262E+03  0.20694733262E+03  0.00000000000E+00 0. -1.
      99926    2    1    2    0    0  0.00000000000E+00 -0.14210854715E-13  0.19799467426E+02  0.43369413266E+03  0.43324194372E+03 0.  0.
      99925    2    3    3    0    0  0.18837369554E+01 -0.78980276282E+02  0.59493200484E+02  0.28051275961E+03  0.26250054265E+03 0.  0.
         25    1    4    4    0    0 -0.46365540704E+01 -0.42903512149E+02 -0.10168768386E+02  0.13271443380E+03  0.12509000000E+03 0.  0.
         25    1    4    4    0    0  0.65202910258E+01 -0.36076764134E+02  0.69661968870E+02  0.14779832581E+03  0.12509000000E+03 0.  0.
         25    1    3    3    0    0 -0.18837369554E+01  0.78980276282E+02 -0.39693733058E+02  0.15318137305E+03  0.12509000000E+03 0.  0.
<mgrwt>
<rscale>  2 0.43324194E+03</rscale>
<asrwt>0</asrwt>
<pdfrwt beam="1">  1       21 0.33345118E-01 0.43324194E+03</pdfrwt>
<pdfrwt beam="2">  1       21 0.30433431E-01 0.43324194E+03</pdfrwt>
<totfact> 0.83759344E+04</totfact>
</mgrwt>
</event>
<event>
 7    0  0.4707675E-002  0.4595412E+03  0.7546771E-02  0.1024914E+00
         21   -1    0    0  502  501  0.00000000000E+00  0.00000000000E+00  0.42166068711E+03  0.42166068711E+03  0.00000000000E+00 0.  1.
         21   -1    0    0  501  502 -0.00000000000E+00 -0.00000000000E+00 -0.12520620036E+03  0.12520620036E+03  0.00000000000E+00 0.  1.
      99926    2    1    2    0    0  0.00000000000E+00 -0.44408920985E-15  0.29645448675E+03  0.54686688747E+03  0.45954121675E+03 0.  0.
      99925    2    3    3    0    0  0.75129231135E+02  0.23340201684E+01  0.29307585460E+03  0.40089164204E+03  0.26300342790E+03 0.  0.
         25    1    4    4    0    0  0.49369996278E+02 -0.53740649021E+01  0.20620535387E+03  0.24624060017E+03  0.12509000000E+03 0.  0.
         25    1    3    3    0    0 -0.75129231135E+02 -0.23340201684E+01  0.33786321448E+01  0.14597524542E+03  0.12509000000E+03 0.  0.
         25    1    4    4    0    0  0.25759234858E+02  0.77080850705E+01  0.86870500728E+02  0.15465104187E+03  0.12509000000E+03 0.  0.
<mgrwt>
<rscale>  2 0.45954122E+03</rscale>
<asrwt>0</asrwt>
<pdfrwt beam="1">  1       21 0.62008924E-01 0.45954122E+03</pdfrwt>
<pdfrwt beam="2">  1       21 0.18412677E-01 0.45954122E+03</pdfrwt>
<totfact> 0.59892716E+04</totfact>
</mgrwt>
</event>
<event>
 7    0  0.4707675E-002  0.4548168E+03  0.7546771E-02  0.1026295E+00
         21   -1    0    0  502  501  0.00000000000E+00  0.00000000000E+00  0.12284666719E+04  0.12284666719E+04  0.00000000000E+00 0. -1.
         21   -1    0    0  501  502 -0.00000000000E+00 -0.00000000000E+00 -0.42096844578E+02  0.42096844578E+02  0.00000000000E+00 0. -1.
      99926    2    1    2    0    0  0.71054273576E-14  0.00000000000E+00  0.11863698273E+04  0.12705635165E+04  0.45481675675E+03 0.  0.
      99925    2    3    3    0    0 -0.63657377360E+02  0.26813173227E+02  0.99720271082E+03  0.10334919787E+04  0.26252850446E+03 0.  0.
         25    1    4    4    0    0 -0.31098042724E+02 -0.21266303354E+02  0.40991988137E+03  0.43023384474E+03  0.12509000000E+03 0.  0.
         25    1    3    3    0    0  0.63657377360E+02 -0.26813173227E+02  0.18916711651E+03  0.23707153777E+03  0.12509000000E+03 0.  0.
         25    1    4    4    0    0 -0.32559334636E+02  0.48079476581E+02  0.58728282945E+03  0.60325813397E+03  0.12509000000E+03 0.  0.
<mgrwt>
<rscale>  2 0.45481676E+03</rscale>
<asrwt>0</asrwt>
<pdfrwt beam="1">  1       21 0.18065684E+00 0.45481676E+03</pdfrwt>
<pdfrwt beam="2">  1       21 0.61907132E-02 0.45481676E+03</pdfrwt>
<totfact> 0.30024541E+04</totfact>
</mgrwt>
</event>
<event>
 7    0  0.4707675E-002  0.4556891E+03  0.7546771E-02  0.1026039E+00
         21   -1    0    0  502  501  0.00000000000E+00  0.00000000000E+00  0.76868288475E+02  0.76868288475E+02  0.00000000000E+00 0.  1.
         21   -1    0    0  501  502 -0.00000000000E+00 -0.00000000000E+00 -0.67535184427E+03  0.67535184427E+03  0.00000000000E+00 0.  1.
      99926    2    1    2    0    0  0.71054273576E-14  0.00000000000E+00 -0.59848355580E+03  0.75222013275E+03  0.45568910625E+03 0.  0.
      99925    2    3    3    0    0  0.32554442046E+02 -0.68531994788E+02 -0.51628439474E+03  0.58440882150E+03  0.26311151320E+03 0.  0.
         25    1    4    4    0    0  0.56606658999E+02 -0.29040251180E+02 -0.27371868608E+03  0.30759889018E+03  0.12509000000E+03 0.  0.
         25    1    4    4    0    0 -0.24052216953E+02 -0.39491743609E+02 -0.24256570867E+03  0.27680993131E+03  0.12509000000E+03 0.  0.
         25    1    3    3    0    0 -0.32554442046E+02  0.68531994788E+02 -0.82199161052E+02  0.16781131125E+03  0.12509000000E+03 0.  0.
<mgrwt>
<rscale>  2 0.45568911E+03</rscale>
<asrwt>0</asrwt>
<pdfrwt beam="1">  1       21 0.11304160E-01 0.45568911E+03</pdfrwt>
<pdfrwt beam="2">  1       21 0.99316448E-01 0.45568911E+03</pdfrwt>
<totfact> 0.49887041E+04</totfact>
</mgrwt>
</event>
<event>
 7    0  0.4707675E-002  0.4544363E+03  0.7546771E-02  0.1026407E+00
         21   -1    0    0  502  501  0.00000000000E+00  0.00000000000E+00  0.83513467951E+02  0.83513467951E+02  0.00000000000E+00 0. -1.
         21   -1    0    0  501  502 -0.00000000000E+00 -0.00000000000E+00 -0.61820080202E+03  0.61820080202E+03  0.00000000000E+00 0. -1.
      99926    2    1    2    0    0  0.00000000000E+00  0.00000000000E+00 -0.53468733407E+03  0.70171426998E+03  0.45443632279E+03 0.  0.
      99925    2    3    3    0    0 -0.74823181150E+02 -0.83927926917E+02 -0.34799956842E+03  0.45043308227E+03  0.26295219456E+03 0.  0.
         25    1    3    3    0    0  0.74823181150E+02  0.83927926917E+02 -0.18668776565E+03  0.25128118771E+03  0.12509000000E+03 0.  0.
         25    1    4    4    0    0 -0.66100276683E+01 -0.48516577939E+02 -0.12532799229E+03  0.18371762178E+03  0.12509000000E+03 0.  0.
         25    1    4    4    0    0 -0.68213153482E+02 -0.35411348978E+02 -0.22267157613E+03  0.26671546049E+03  0.12509000000E+03 0.  0.
<mgrwt>
<rscale>  2 0.45443632E+03</rscale>
<asrwt>0</asrwt>
<pdfrwt beam="1">  1       21 0.12281393E-01 0.45443632E+03</pdfrwt>
<pdfrwt beam="2">  1       21 0.90911881E-01 0.45443632E+03</pdfrwt>
<totfact> 0.53044884E+04</totfact>
</mgrwt>
</event>
<event>
 7    0  0.4707675E-002  0.4369054E+03  0.7546771E-02  0.1031701E+00
         21   -1    0    0  502  501  0.00000000000E+00  0.00000000000E+00  0.16444138532E+03  0.16444138532E+03  0.00000000000E+00 0. -1.
         21   -1    0    0  501  502 -0.00000000000E+00 -0.00000000000E+00 -0.29020426033E+03  0.29020426033E+03  0.00000000000E+00 0. -1.
      99926    2    1    2    0    0  0.00000000000E+00  0.00000000000E+00 -0.12576287501E+03  0.45464564564E+03  0.43690543871E+03 0.  0.
      99925    2    3    3    0    0  0.25034699472E+02  0.90022011934E+02 -0.61081463587E+02  0.28564300693E+03  0.26292638400E+03 0.  0.
         25    1    4    4    0    0  0.29793407970E+02  0.11171006464E+02 -0.45595225088E+02  0.13688999669E+03  0.12509000000E+03 0.  0.
         25    1    4    4    0    0 -0.47587084985E+01  0.78851005470E+02 -0.15486238499E+02  0.14875301023E+03  0.12509000000E+03 0.  0.
         25    1    3    3    0    0 -0.25034699472E+02 -0.90022011934E+02 -0.64681411421E+02  0.16900263872E+03  0.12509000000E+03 0.  0.
<mgrwt>
<rscale>  2 0.43690544E+03</rscale>
<asrwt>0</asrwt>
<pdfrwt beam="1">  1       21 0.24182557E-01 0.43690544E+03</pdfrwt>
<pdfrwt beam="2">  1       21 0.42677096E-01 0.43690544E+03</pdfrwt>
<totfact> 0.79393579E+04</totfact>
</mgrwt>
</event>
<event>
 7    0  0.4707675E-002  0.4567918E+03  0.7546771E-02  0.1025716E+00
         21   -1    0    0  502  501  0.00000000000E+00  0.00000000000E+00  0.23500905097E+04  0.23500905097E+04  0.00000000000E+00 0. -1.
         21   -1    0    0  501  502 -0.00000000000E+00 -0.00000000000E+00 -0.22196884695E+02  0.22196884695E+02  0.00000000000E+00 0. -1.
      99926    2    1    2    0    0  0.17763568394E-14  0.00000000000E+00  0.23278936250E+04  0.23722873944E+04  0.45679180408E+03 0.  0.
      99925    2    3    3    0    0  0.85019574226E+01 -0.28777235896E+02  0.20382170332E+04  0.20553324315E+04  0.26298729405E+03 0.  0.
         25    1    4    4    0    0 -0.28409903732E+02 -0.21248665239E+02  0.83811723023E+03  0.84814304696E+03  0.12509000000E+03 0.  0.
         25    1    3    3    0    0 -0.85019574226E+01  0.28777235896E+02  0.28967659182E+03  0.31695496294E+03  0.12509000000E+03 0.  0.
         25    1    4    4    0    0  0.36911861154E+02 -0.75285706572E+01  0.12000998030E+04  0.12071893845E+04  0.12509000000E+03 0.  0.
<mgrwt>
<rscale>  2 0.45679180E+03</rscale>
<asrwt>0</asrwt>
<pdfrwt beam="1">  1       21 0.34560138E+00 0.45679180E+03</pdfrwt>
<pdfrwt beam="2">  1       21 0.32642494E-02 0.45679180E+03</pdfrwt>
<totfact> 0.84105879E+03</totfact>
</mgrwt>
</event>
<event>
 7    0  0.4707675E-002  0.4528585E+03  0.7546771E-02  0.1026873E+00
         21   -1    0    0  502  501  0.00000000000E+00  0.00000000000E+00  0.29221506193E+03  0.29221506193E+03  0.00000000000E+00 0. -1.
         21   -1    0    0  501  502 -0.00000000000E+00 -0.00000000000E+00 -0.17545364022E+03  0.17545364022E+03  0.00000000000E+00 0. -1.
      99926    2    1    2    0    0 -0.14210854715E-13  0.17763568394E-14  0.11676142171E+03  0.46766870215E+03  0.45285846063E+03 0.  0.
      99925    2    3    3    0    0 -0.66288631019E+02  0.11741855413E+02  0.16461323426E+03  0.31777087749E+03  0.26334152715E+03 0.  0.
         25    1    4    4    0    0 -0.35438674832E+02 -0.10152424939E+02  0.12640009430E+03  0.18161349990E+03  0.12509000000E+03 0.  0.
         25    1    4    4    0    0 -0.30849956187E+02  0.21894280352E+02  0.38213139955E+02  0.13615737760E+03  0.12509000000E+03 0.  0.
         25    1    3    3    0    0  0.66288631019E+02 -0.11741855413E+02 -0.47851812547E+02  0.14989782465E+03  0.12509000000E+03 0.  0.
<mgrwt>
<rscale>  2 0.45285846E+03</rscale>
<asrwt>0</asrwt>
<pdfrwt beam="1">  1       21 0.42972803E-01 0.45285846E+03</pdfrwt>
<pdfrwt beam="2">  1       21 0.25802006E-01 0.45285846E+03</pdfrwt>
<totfact> 0.68770411E+04</totfact>
</mgrwt>
</event>
<event>
 7    0  0.4707675E-002  0.4482172E+03  0.7546771E-02  0.1028255E+00
         21   -1    0    0  502  501  0.00000000000E+00  0.00000000000E+00  0.21335804654E+03  0.21335804654E+03  0.00000000000E+00 0. -1.
         21   -1    0    0  501  502 -0.00000000000E+00 -0.00000000000E+00 -0.23540086520E+03  0.23540086520E+03  0.00000000000E+00 0. -1.
      99926    2    1    2    0    0  0.00000000000E+00  0.00000000000E+00 -0.22042818652E+02  0.44875891174E+03  0.44821721856E+03 0.  0.
      99925    2    3    3    0    0  0.10013782342E+03 -0.33479887111E+01 -0.50537765761E+02  0.28597604158E+03  0.26303885241E+03 0.  0.
         25    1    4    4    0    0  0.53383379575E+02  0.30236720755E+02 -0.89786518832E-01  0.13932537694E+03  0.12509000000E+03 0.  0.
         25    1    3    3    0    0 -0.10013782342E+03  0.33479887111E+01  0.28494947109E+02  0.16278287017E+03  0.12509000000E+03 0.  0.
         25    1    4    4    0    0  0.46754443849E+02 -0.33584709466E+02 -0.50447979242E+02  0.14665066464E+03  0.12509000000E+03 0.  0.
<mgrwt>
<rscale>  2 0.44821722E+03</rscale>
<asrwt>0</asrwt>
<pdfrwt beam="1">  1       21 0.31376183E-01 0.44821722E+03</pdfrwt>
<pdfrwt beam="2">  1       21 0.34617774E-01 0.44821722E+03</pdfrwt>
<totfact> 0.72869986E+04</totfact>
</mgrwt>
</event>
<event>
 7    0  0.4707675E-002  0.4583881E+03  0.7546771E-02  0.1025250E+00
         21   -1    0    0  502  501  0.00000000000E+00  0.00000000000E+00  0.56703634720E+03  0.56703634720E+03  0.00000000000E+00 0.  1.
         21   -1    0    0  501  502 -0.00000000000E+00 -0.00000000000E+00 -0.92639419168E+02  0.92639419168E+02  0.00000000000E+00 0.  1.
      99926    2    1    2    0    0  0.71054273576E-14  0.14210854715E-13  0.47439692803E+03  0.65967576637E+03  0.45838812311E+03 0.  0.
      99925    2    3    3    0    0  0.44201252314E+02  0.10705923624E+03  0.28437558175E+03  0.40438955266E+03  0.26314636237E+03 0.  0.
         25    1    4    4    0    0 -0.10441422513E+02  0.42171777485E+02  0.99734679985E+02  0.16577694837E+03  0.12509000000E+03 0.  0.
         25    1    4    4    0    0  0.54642674827E+02  0.64887458755E+02  0.18464090177E+03  0.23861260428E+03  0.12509000000E+03 0.  0.
         25    1    3    3    0    0 -0.44201252314E+02 -0.10705923624E+03  0.19002134628E+03  0.25528621371E+03  0.12509000000E+03 0.  0.
<mgrwt>
<rscale>  2 0.45838812E+03</rscale>
<asrwt>0</asrwt>
<pdfrwt beam="1">  1       21 0.83387697E-01 0.45838812E+03</pdfrwt>
<pdfrwt beam="2">  1       21 0.13623444E-01 0.45838812E+03</pdfrwt>
<totfact> 0.53697941E+04</totfact>
</mgrwt>
</event>
<event>
 7    0  0.4707675E-002  0.4522416E+03  0.7546771E-02  0.1027056E+00
         21   -1    0    0  502  501  0.00000000000E+00  0.00000000000E+00  0.42322570773E+02  0.42322570773E+02  0.00000000000E+00 0.  1.
         21   -1    0    0  501  502 -0.00000000000E+00 -0.00000000000E+00 -0.12081169778E+04  0.12081169778E+04  0.00000000000E+00 0.  1.
      99926    2    1    2    0    0  0.35527136788E-14  0.00000000000E+00 -0.11657944070E+04  0.12504395485E+04  0.45224160045E+03 0.  0.
      99925    2    3    3    0    0 -0.22978925394E+02 -0.10781854529E+03 -0.71545811735E+03  0.77022797893E+03  0.26309304840E+03 0.  0.
         25    1    3    3    0    0  0.22978925394E+02  0.10781854529E+03 -0.45033628964E+03  0.48021156961E+03  0.12509000000E+03 0.  0.
         25    1    4    4    0    0  0.24604807596E+02 -0.72617912168E+02 -0.38069432602E+03  0.40798827886E+03  0.12509000000E+03 0.  0.
         25    1    4    4    0    0 -0.47583732990E+02 -0.35200633122E+02 -0.33476379133E+03  0.36223970007E+03  0.12509000000E+03 0.  0.
<mgrwt>
<rscale>  2 0.45224160E+03</rscale>
<asrwt>0</asrwt>
<pdfrwt beam="1">  1       21 0.62239080E-02 0.45224160E+03</pdfrwt>
<pdfrwt beam="2">  1       21 0.17766425E+00 0.45224160E+03</pdfrwt>
<totfact> 0.31254401E+04</totfact>
</mgrwt>
</event>
<event>
 7    0  0.4707675E-002  0.4555858E+03  0.7546771E-02  0.1026069E+00
         21   -1    0    0  502  501  0.00000000000E+00  0.00000000000E+00  0.27673972751E+03  0.27673972751E+03  0.00000000000E+00 0. -1.
         21   -1    0    0  501  502 -0.00000000000E+00 -0.00000000000E+00 -0.18750329527E+03  0.18750329527E+03  0.00000000000E+00 0. -1.
      99926    2    1    2    0    0  0.00000000000E+00  0.00000000000E+00  0.89236432236E+02  0.46424302278E+03  0.45558582436E+03 0.  0.
      99925    2    3    3    0    0 -0.55632723657E+02 -0.99112807194E+02  0.53494452958E+02  0.29149075601E+03  0.26303394429E+03 0.  0.
         25    1    3    3    0    0  0.55632723657E+02  0.99112807194E+02  0.35741979277E+02  0.17275226677E+03  0.12509000000E+03 0.  0.
         25    1    4    4    0    0 -0.54427771012E+01 -0.53498385896E+02  0.60567751465E+02  0.14902235313E+03  0.12509000000E+03 0.  0.
         25    1    4    4    0    0 -0.50189946556E+02 -0.45614421298E+02 -0.70732985070E+01  0.14246840287E+03  0.12509000000E+03 0.  0.
<mgrwt>
<rscale>  2 0.45558582E+03</rscale>
<asrwt>0</asrwt>
<pdfrwt beam="1">  1       21 0.40697019E-01 0.45558582E+03</pdfrwt>
<pdfrwt beam="2">  1       21 0.27574014E-01 0.45558582E+03</pdfrwt>
<totfact> 0.67551312E+04</totfact>
</mgrwt>
</event>
<event>
 7    0  0.4707675E-002  0.4760706E+03  0.7546771E-02  0.1020221E+00
         21   -1    0    0  502  501  0.00000000000E+00  0.00000000000E+00  0.94087955090E+02  0.94087955090E+02  0.00000000000E+00 0. -1.
         21   -1    0    0  501  502 -0.00000000000E+00 -0.00000000000E+00 -0.60221114101E+03  0.60221114101E+03  0.00000000000E+00 0. -1.
      99926    2    1    2    0    0 -0.14210854715E-13  0.71054273576E-14 -0.50812318592E+03  0.69629909610E+03  0.47607064514E+03 0.  0.
      99925    2    3    3    0    0 -0.12460127709E+03  0.38908843461E+02 -0.28566559087E+03  0.40963855461E+03  0.26298201320E+03 0.  0.
         25    1    4    4    0    0 -0.61610149466E+02 -0.21464069816E+02 -0.13657816175E+03  0.19636094107E+03  0.12509000000E+03 0.  0.
         25    1    3    3    0    0  0.12460127709E+03 -0.38908843461E+02 -0.22245759505E+03  0.28666054149E+03  0.12509000000E+03 0.  0.
         25    1    4    4    0    0 -0.62991127624E+02  0.60372913277E+02 -0.14908742912E+03  0.21327761354E+03  0.12509000000E+03 0.  0.
<mgrwt>
<rscale>  2 0.47607065E+03</rscale>
<asrwt>0</asrwt>
<pdfrwt beam="1">  1       21 0.13836464E-01 0.47607065E+03</pdfrwt>
<pdfrwt beam="2">  1       21 0.88560460E-01 0.47607065E+03</pdfrwt>
<totfact> 0.45134809E+04</totfact>
</mgrwt>
</event>
<event>
 7    0  0.4707675E-002  0.4657330E+03  0.7546771E-02  0.1023131E+00
         21   -1    0    0  502  501  0.00000000000E+00  0.00000000000E+00  0.92292374691E+02  0.92292374691E+02  0.00000000000E+00 0.  1.
         21   -1    0    0  501  502 -0.00000000000E+00 -0.00000000000E+00 -0.58755463231E+03  0.58755463231E+03  0.00000000000E+00 0.  1.
      99926    2    1    2    0    0  0.35527136788E-14 -0.35527136788E-14 -0.49526225762E+03  0.67984700700E+03  0.46573302342E+03 0.  0.
      99925    2    3    3    0    0 -0.19252636950E+02  0.28214938542E+02 -0.13611338358E+03  0.29800650547E+03  0.26289594391E+03 0.  0.
         25    1    4    4    0    0 -0.93298385137E+01 -0.23547239911E+02 -0.83011066972E+02  0.15224934724E+03  0.12509000000E+03 0.  0.
         25    1    3    3    0    0  0.19252636950E+02 -0.28214938542E+02 -0.35914887403E+03  0.38184050153E+03  0.12509000000E+03 0.  0.
         25    1    4    4    0    0 -0.99227984361E+01  0.51762178453E+02 -0.53102316610E+02  0.14575715823E+03  0.12509000000E+03 0.  0.
<mgrwt>
<rscale>  2 0.46573302E+03</rscale>
<asrwt>0</asrwt>
<pdfrwt beam="1">  1       21 0.13572408E-01 0.46573302E+03</pdfrwt>
<pdfrwt beam="2">  1       21 0.86405094E-01 0.46573302E+03</pdfrwt>
<totfact> 0.49674399E+04</totfact>
</mgrwt>
</event>
<event>
 7    0  0.4707675E-002  0.4548899E+03  0.7546771E-02  0.1026274E+00
         21   -1    0    0  502  501  0.00000000000E+00  0.00000000000E+00  0.18837425724E+03  0.18837425724E+03  0.00000000000E+00 0. -1.
         21   -1    0    0  501  502 -0.00000000000E+00 -0.00000000000E+00 -0.27461933685E+03  0.27461933685E+03  0.00000000000E+00 0. -1.
      99926    2    1    2    0    0 -0.71054273576E-14  0.00000000000E+00 -0.86245079616E+02  0.46299359409E+03  0.45488993659E+03 0.  0.
      99925    2    3    3    0    0  0.40387613411E+02  0.16301334656E+02 -0.16090409476E+03  0.31094633344E+03  0.26248924119E+03 0.  0.
         25    1    4    4    0    0  0.51032473643E+02  0.67519310759E+01 -0.11292832131E+03  0.17621071418E+03  0.12509000000E+03 0.  0.
         25    1    3    3    0    0 -0.40387613411E+02 -0.16301334656E+02  0.74659015144E+02  0.15204726065E+03  0.12509000000E+03 0.  0.
         25    1    4    4    0    0 -0.10644860232E+02  0.95494035800E+01 -0.47975773449E+02  0.13473561926E+03  0.12509000000E+03 0.  0.
<mgrwt>
<rscale>  2 0.45488994E+03</rscale>
<asrwt>0</asrwt>
<pdfrwt beam="1">  1       21 0.27702097E-01 0.45488994E+03</pdfrwt>
<pdfrwt beam="2">  1       21 0.40385196E-01 0.45488994E+03</pdfrwt>
<totfact> 0.68018861E+04</totfact>
</mgrwt>
</event>
<event>
 7    0  0.4707675E-002  0.4579682E+03  0.7546771E-02  0.1025372E+00
         21   -1    0    0  502  501  0.00000000000E+00  0.00000000000E+00  0.21273829198E+03  0.21273829198E+03  0.00000000000E+00 0. -1.
         21   -1    0    0  501  502 -0.00000000000E+00 -0.00000000000E+00 -0.24647050558E+03  0.24647050558E+03  0.00000000000E+00 0. -1.
      99926    2    1    2    0    0  0.14210854715E-13  0.00000000000E+00 -0.33732213600E+02  0.45920879756E+03  0.45796818397E+03 0.  0.
      99925    2    3    3    0    0 -0.86205016754E+02  0.59388354847E+02 -0.71182999521E+02  0.29185184052E+03  0.26296805089E+03 0.  0.
         25    1    4    4    0    0 -0.82566303456E+02  0.24042060709E+02 -0.51703828126E+02  0.16036211863E+03  0.12509000000E+03 0.  0.
         25    1    4    4    0    0 -0.36387132985E+01  0.35346294138E+02 -0.19479171395E+02  0.13148972189E+03  0.12509000000E+03 0.  0.
         25    1    3    3    0    0  0.86205016754E+02 -0.59388354847E+02  0.37450785922E+02  0.16735695704E+03  0.12509000000E+03 0.  0.
<mgrwt>
<rscale>  2 0.45796818E+03</rscale>
<asrwt>0</asrwt>
<pdfrwt beam="1">  1       21 0.31285043E-01 0.45796818E+03</pdfrwt>
<pdfrwt beam="2">  1       21 0.36245662E-01 0.45796818E+03</pdfrwt>
<totfact> 0.66646208E+04</totfact>
</mgrwt>
</event>
<event>
 7    0  0.4707675E-002  0.4510785E+03  0.7546771E-02  0.1027401E+00
         21   -1    0    0  502  501  0.00000000000E+00  0.00000000000E+00  0.54728055116E+02  0.54728055116E+02  0.00000000000E+00 0.  1.
         21   -1    0    0  501  502 -0.00000000000E+00 -0.00000000000E+00 -0.92946755804E+03  0.92946755804E+03  0.00000000000E+00 0.  1.
      99926    2    1    2    0    0 -0.22204460493E-15  0.00000000000E+00 -0.87473950293E+03  0.98419561316E+03  0.45107849315E+03 0.  0.
      99925    2    3    3    0    0  0.38488555824E+00 -0.10877798029E+03 -0.52643333881E+03  0.59845283721E+03  0.26302270059E+03 0.  0.
         25    1    4    4    0    0  0.14883872626E+02 -0.52939027137E+02 -0.18271708079E+03  0.22816027255E+03  0.12509000000E+03 0.  0.
         25    1    4    4    0    0 -0.14498987068E+02 -0.55838953155E+02 -0.34371625802E+03  0.37029256466E+03  0.12509000000E+03 0.  0.
         25    1    3    3    0    0 -0.38488555824E+00  0.10877798029E+03 -0.34830616412E+03  0.38574277595E+03  0.12509000000E+03 0.  0.
<mgrwt>
<rscale>  2 0.45107849E+03</rscale>
<asrwt>0</asrwt>
<pdfrwt beam="1">  1       21 0.80482437E-02 0.45107849E+03</pdfrwt>
<pdfrwt beam="2">  1       21 0.13668640E+00 0.45107849E+03</pdfrwt>
<totfact> 0.41029281E+04</totfact>
</mgrwt>
</event>
<event>
 7    0  0.4707675E-002  0.4386792E+03  0.7546771E-02  0.1031153E+00
         21   -1    0    0  502  501  0.00000000000E+00  0.00000000000E+00  0.20534693365E+03  0.20534693365E+03  0.00000000000E+00 0.  1.
         21   -1    0    0  501  502 -0.00000000000E+00 -0.00000000000E+00 -0.23428573768E+03  0.23428573768E+03  0.00000000000E+00 0.  1.
      99926    2    1    2    0    0  0.71054273576E-14  0.35527136788E-14 -0.28938804030E+02  0.43963267133E+03  0.43867918953E+03 0.  0.
      99925    2    3    3    0    0 -0.60644585119E+02  0.21236819200E+02  0.54444403458E+02  0.27614250164E+03  0.26298615924E+03 0.  0.
         25    1    3    3    0    0  0.60644585119E+02 -0.21236819200E+02 -0.83383207488E+02  0.16349016969E+03  0.12509000000E+03 0.  0.
         25    1    4    4    0    0 -0.55589746319E+02  0.40483227260E+02  0.15275833508E+02  0.14356173158E+03  0.12509000000E+03 0.  0.
         25    1    4    4    0    0 -0.50548388000E+01 -0.19246408060E+02  0.39168569950E+02  0.13258077006E+03  0.12509000000E+03 0.  0.
<mgrwt>
<rscale>  2 0.43867919E+03</rscale>
<asrwt>0</asrwt>
<pdfrwt beam="1">  1       21 0.30198079E-01 0.43867919E+03</pdfrwt>
<pdfrwt beam="2">  1       21 0.34453785E-01 0.43867919E+03</pdfrwt>
<totfact> 0.79552064E+04</totfact>
</mgrwt>
</event>
<event>
 7    0  0.4707675E-002  0.4576807E+03  0.7546771E-02  0.1025456E+00
         21   -1    0    0  502  501  0.00000000000E+00  0.00000000000E+00  0.29384493138E+03  0.29384493138E+03  0.00000000000E+00 0.  1.
         21   -1    0    0  501  502 -0.00000000000E+00 -0.00000000000E+00 -0.17821612735E+03  0.17821612735E+03  0.00000000000E+00 0.  1.
      99926    2    1    2    0    0  0.35527136788E-14  0.00000000000E+00  0.11562880403E+03  0.47206105873E+03  0.45768069967E+03 0.  0.
      99925    2    3    3    0    0  0.29345645043E+02  0.89662802835E+02  0.14166516929E+03  0.31323415449E+03  0.26295632766E+03 0.  0.
         25    1    3    3    0    0 -0.29345645043E+02 -0.89662802835E+02 -0.26036365260E+02  0.15882690424E+03  0.12509000000E+03 0.  0.
         25    1    4    4    0    0  0.28715347586E+01  0.13116637778E+02  0.37027878528E+02  0.13114443864E+03  0.12509000000E+03 0.  0.
         25    1    4    4    0    0  0.26474110285E+02  0.76546165057E+02  0.10463729076E+03  0.18208971585E+03  0.12509000000E+03 0.  0.
<mgrwt>
<rscale>  2 0.45768070E+03</rscale>
<asrwt>0</asrwt>
<pdfrwt beam="1">  1       21 0.43212490E-01 0.45768070E+03</pdfrwt>
<pdfrwt beam="2">  1       21 0.26208254E-01 0.45768070E+03</pdfrwt>
<totfact> 0.65870736E+04</totfact>
</mgrwt>
</event>
<event>
 7    0  0.4707675E-002  0.4572408E+03  0.7546771E-02  0.1025584E+00
         21   -1    0    0  502  501  0.00000000000E+00  0.00000000000E+00  0.48525199963E+02  0.48525199963E+02  0.00000000000E+00 0.  1.
         21   -1    0    0  501  502 -0.00000000000E+00 -0.00000000000E+00 -0.10771165612E+04  0.10771165612E+04  0.00000000000E+00 0.  1.
      99926    2    1    2    0    0  0.17763568394E-14  0.00000000000E+00 -0.10285913612E+04  0.11256417612E+04  0.45724084033E+03 0.  0.
      99925    2    3    3    0    0 -0.10975980996E+02  0.23697869178E+02 -0.92231433512E+03  0.95943593834E+03  0.26300480192E+03 0.  0.
         25    1    3    3    0    0  0.10975980996E+02 -0.23697869178E+02 -0.10627702612E+03  0.16620582283E+03  0.12509000000E+03 0.  0.
         25    1    4    4    0    0 -0.36437980567E+02  0.30870566532E+02 -0.40519232892E+03  0.42674236938E+03  0.12509000000E+03 0.  0.
         25    1    4    4    0    0  0.25461999570E+02 -0.71726973537E+01 -0.51712200620E+03  0.53269356895E+03  0.12509000000E+03 0.  0.
<mgrwt>
<rscale>  2 0.45724084E+03</rscale>
<asrwt>0</asrwt>
<pdfrwt beam="1">  1       21 0.71360594E-02 0.45724084E+03</pdfrwt>
<pdfrwt beam="2">  1       21 0.15839948E+00 0.45724084E+03</pdfrwt>
<totfact> 0.34008142E+04</totfact>
</mgrwt>
</event>
<event>
 7    0  0.4707675E-002  0.4782824E+03  0.7546771E-02  0.1019608E+00
         21   -1    0    0  502  501  0.00000000000E+00  0.00000000000E+00  0.33450060434E+03  0.33450060434E+03  0.00000000000E+00 0.  1.
         21   -1    0    0  501  502 -0.00000000000E+00 -0.00000000000E+00 -0.17096681292E+03  0.17096681292E+03  0.00000000000E+00 0.  1.
      99926    2    1    2    0    0  0.00000000000E+00 -0.14210854715E-13  0.16353379143E+03  0.50546741726E+03  0.47828235277E+03 0.  0.
      99925    2    3    3    0    0  0.80180592404E+02  0.10589996469E+03  0.84049878043E+02  0.30644749236E+03  0.26306264208E+03 0.  0.
         25    1    3    3    0    0 -0.80180592404E+02 -0.10589996469E+03  0.79483913382E+02  0.19901992490E+03  0.12509000000E+03 0.  0.
         25    1    4    4    0    0  0.74697356060E+02  0.33278308396E+02  0.33757104716E+02  0.15321289447E+03  0.12509000000E+03 0.  0.
         25    1    4    4    0    0  0.54832363440E+01  0.72621656295E+02  0.50292773327E+02  0.15323459790E+03  0.12509000000E+03 0.  0.
<mgrwt>
<rscale>  2 0.47828235E+03</rscale>
<asrwt>0</asrwt>
<pdfrwt beam="1">  1       21 0.49191265E-01 0.47828235E+03</pdfrwt>
<pdfrwt beam="2">  1       21 0.25142178E-01 0.47828235E+03</pdfrwt>
<totfact> 0.54163713E+04</totfact>
</mgrwt>
</event>
<event>
 7    0  0.4707675E-002  0.4499392E+03  0.7546771E-02  0.1027740E+00
         21   -1    0    0  502  501  0.00000000000E+00  0.00000000000E+00  0.20402336437E+03  0.20402336437E+03  0.00000000000E+00 0. -1.
         21   -1    0    0  501  502 -0.00000000000E+00 -0.00000000000E+00 -0.24806634291E+03  0.24806634291E+03  0.00000000000E+00 0. -1.
      99926    2    1    2    0    0  0.00000000000E+00  0.00000000000E+00 -0.44042978539E+02  0.45208970728E+03  0.44993923975E+03 0.  0.
      99925    2    3    3    0    0 -0.10517170325E+03 -0.14155127938E+02 -0.49842651753E+02  0.28794769827E+03  0.26299835017E+03 0.  0.
         25    1    4    4    0    0 -0.88565688908E+02 -0.11953170636E+02 -0.50256169509E+02  0.16174037905E+03  0.12509000000E+03 0.  0.
         25    1    4    4    0    0 -0.16606014346E+02 -0.22019573023E+01  0.41351775562E+00  0.12620731922E+03  0.12509000000E+03 0.  0.
         25    1    3    3    0    0  0.10517170325E+03  0.14155127938E+02  0.57996732144E+01  0.16414200901E+03  0.12509000000E+03 0.  0.
<mgrwt>
<rscale>  2 0.44993924E+03</rscale>
<asrwt>0</asrwt>
<pdfrwt beam="1">  1       21 0.30003436E-01 0.44993924E+03</pdfrwt>
<pdfrwt beam="2">  1       21 0.36480344E-01 0.44993924E+03</pdfrwt>
<totfact> 0.71607479E+04</totfact>
</mgrwt>
</event>
<event>
 7    0  0.4707675E-002  0.4556854E+03  0.7546771E-02  0.1026040E+00
         21   -1    0    0  502  501  0.00000000000E+00  0.00000000000E+00  0.99873846158E+02  0.99873846158E+02  0.00000000000E+00 0. -1.
         21   -1    0    0  501  502 -0.00000000000E+00 -0.00000000000E+00 -0.51977870580E+03  0.51977870580E+03  0.00000000000E+00 0. -1.
      99926    2    1    2    0    0  0.14210854715E-13  0.53290705182E-14 -0.41990485964E+03  0.61965255196E+03  0.45568541122E+03 0.  0.
      99925    2    3    3    0    0 -0.10167968030E+03  0.10276584030E+02 -0.19658100199E+03  0.34403430318E+03  0.26319412200E+03 0.  0.
         25    1    3    3    0    0  0.10167968030E+03 -0.10276584030E+02 -0.22332385764E+03  0.27561824878E+03  0.12509000000E+03 0.  0.
         25    1    4    4    0    0 -0.56011425757E+02 -0.34298961619E+02 -0.87130004408E+02  0.16599049476E+03  0.12509000000E+03 0.  0.
         25    1    4    4    0    0 -0.45668254543E+02  0.44575545649E+02 -0.10945099759E+03  0.17804380842E+03  0.12509000000E+03 0.  0.
<mgrwt>
<rscale>  2 0.45568541E+03</rscale>
<asrwt>0</asrwt>
<pdfrwt beam="1">  1       21 0.14687330E-01 0.45568541E+03</pdfrwt>
<pdfrwt beam="2">  1       21 0.76438045E-01 0.45568541E+03</pdfrwt>
<totfact> 0.57174538E+04</totfact>
</mgrwt>
</event>
<event>
 7    0  0.4707675E-002  0.4563707E+03  0.7546771E-02  0.1025839E+00
         21   -1    0    0  502  501  0.00000000000E+00  0.00000000000E+00  0.18152992776E+03  0.18152992776E+03  0.00000000000E+00 0. -1.
         21   -1    0    0  501  502 -0.00000000000E+00 -0.00000000000E+00 -0.28683176396E+03  0.28683176396E+03  0.00000000000E+00 0. -1.
      99926    2    1    2    0    0  0.35527136788E-14 -0.71054273576E-14 -0.10530183620E+03  0.46836169172E+03  0.45637068000E+03 0.  0.
      99925    2    3    3    0    0 -0.29659718283E+02  0.50148770564E+02 -0.16723507371E+03  0.31710749480E+03  0.26304941608E+03 0.  0.
         25    1    3    3    0    0  0.29659718283E+02 -0.50148770564E+02  0.61933237504E+02  0.15125419692E+03  0.12509000000E+03 0.  0.
         25    1    4    4    0    0  0.22420572843E+02  0.38156834140E+02 -0.71095566324E+02  0.15053475921E+03  0.12509000000E+03 0.  0.
         25    1    4    4    0    0 -0.52080291126E+02  0.11991936424E+02 -0.96139507383E+02  0.16657273559E+03  0.12509000000E+03 0.  0.
<mgrwt>
<rscale>  2 0.45637068E+03</rscale>
<asrwt>0</asrwt>
<pdfrwt beam="1">  1       21 0.26695578E-01 0.45637068E+03</pdfrwt>
<pdfrwt beam="2">  1       21 0.42181141E-01 0.45637068E+03</pdfrwt>
<totfact> 0.66828429E+04</totfact>
</mgrwt>
</event>
<event>
 7    0  0.4707675E-002  0.4593540E+03  0.7546771E-02  0.1024969E+00
         21   -1    0    0  502  501  0.00000000000E+00  0.00000000000E+00  0.11613991199E+04  0.11613991199E+04  0.00000000000E+00 0. -1.
         21   -1    0    0  501  502 -0.00000000000E+00 -0.00000000000E+00 -0.45420669424E+02  0.45420669424E+02  0.00000000000E+00 0. -1.
      99926    2    1    2    0    0  0.00000000000E+00  0.00000000000E+00  0.11159784505E+04  0.12068197893E+04  0.45935400507E+03 0.  0.
      99925    2    3    3    0    0 -0.66165552653E+02 -0.95916313561E+02  0.66449576896E+03  0.72405489895E+03  0.26291262839E+03 0.  0.
         25    1    3    3    0    0  0.66165552653E+02  0.95916313561E+02  0.45148268151E+03  0.48276489036E+03  0.12509000000E+03 0.  0.
         25    1    4    4    0    0 -0.31673809209E+02 -0.62121345794E+02  0.43828905688E+03  0.46109337154E+03  0.12509000000E+03 0.  0.
         25    1    4    4    0    0 -0.34491743443E+02 -0.33794967767E+02  0.22620671208E+03  0.26296152742E+03  0.12509000000E+03 0.  0.
<mgrwt>
<rscale>  2 0.45935401E+03</rscale>
<asrwt>0</asrwt>
<pdfrwt beam="1">  1       21 0.17079397E+00 0.45935401E+03</pdfrwt>
<pdfrwt beam="2">  1       21 0.66795109E-02 0.45935401E+03</pdfrwt>
<totfact> 0.30879879E+04</totfact>
</mgrwt>
</event>
<event>
 7    0  0.4707675E-002  0.4477465E+03  0.7546771E-02  0.1028396E+00
         21   -1    0    0  502  501  0.00000000000E+00  0.00000000000E+00  0.34996733442E+03  0.34996733442E+03  0.00000000000E+00 0.  1.
         21   -1    0    0  501  502 -0.00000000000E+00 -0.00000000000E+00 -0.14321114727E+03  0.14321114727E+03  0.00000000000E+00 0.  1.
      99926    2    1    2    0    0  0.00000000000E+00  0.00000000000E+00  0.20675618716E+03  0.49317848169E+03  0.44774646160E+03 0.  0.
      99925    2    3    3    0    0  0.91721702118E+02  0.46554366790E+02  0.16009539560E+03  0.32464089753E+03  0.26302280690E+03 0.  0.
         25    1    4    4    0    0  0.10782222678E+02  0.21288660758E+02  0.10037762111E+03  0.16215004879E+03  0.12509000000E+03 0.  0.
         25    1    4    4    0    0  0.80939479440E+02  0.25265706032E+02  0.59717774492E+02  0.16249084874E+03  0.12509000000E+03 0.  0.
         25    1    3    3    0    0 -0.91721702118E+02 -0.46554366790E+02  0.46660791555E+02  0.16853758416E+03  0.12509000000E+03 0.  0.
<mgrwt>
<rscale>  2 0.44774646E+03</rscale>
<asrwt>0</asrwt>
<pdfrwt beam="1">  1       21 0.51465784E-01 0.44774646E+03</pdfrwt>
<pdfrwt beam="2">  1       21 0.21060463E-01 0.44774646E+03</pdfrwt>
<totfact> 0.69679185E+04</totfact>
</mgrwt>
</event>
<event>
 7    0  0.4707675E-002  0.4654174E+03  0.7546771E-02  0.1023222E+00
         21   -1    0    0  502  501  0.00000000000E+00  0.00000000000E+00  0.52487502778E+03  0.52487502778E+03  0.00000000000E+00 0.  1.
         21   -1    0    0  501  502 -0.00000000000E+00 -0.00000000000E+00 -0.10317376298E+03  0.10317376298E+03  0.00000000000E+00 0.  1.
      99926    2    1    2    0    0  0.00000000000E+00  0.44408920985E-15  0.42170126481E+03  0.62804879076E+03  0.46541736843E+03 0.  0.
      99925    2    3    3    0    0  0.90980046027E+02  0.20139897456E+01  0.37384941220E+03  0.46612679464E+03  0.26311476725E+03 0.  0.
         25    1    4    4    0    0  0.68473450172E+01  0.18443586932E+02  0.17740440221E+03  0.21796073512E+03  0.12509000000E+03 0.  0.
         25    1    4    4    0    0  0.84132701010E+02 -0.16429597187E+02  0.19644501000E+03  0.24816605951E+03  0.12509000000E+03 0.  0.
         25    1    3    3    0    0 -0.90980046027E+02 -0.20139897456E+01  0.47851852604E+02  0.16192199612E+03  0.12509000000E+03 0.  0.
<mgrwt>
<rscale>  2 0.46541737E+03</rscale>
<asrwt>0</asrwt>
<pdfrwt beam="1">  1       21 0.77187503E-01 0.46541737E+03</pdfrwt>
<pdfrwt beam="2">  1       21 0.15172612E-01 0.46541737E+03</pdfrwt>
<totfact> 0.52528710E+04</totfact>
</mgrwt>
</event>
<event>
 7    0  0.4707675E-002  0.4620557E+03  0.7546771E-02  0.1024187E+00
         21   -1    0    0  502  501  0.00000000000E+00  0.00000000000E+00  0.19981145257E+03  0.19981145257E+03  0.00000000000E+00 0. -1.
         21   -1    0    0  501  502 -0.00000000000E+00 -0.00000000000E+00 -0.26712115673E+03  0.26712115673E+03  0.00000000000E+00 0. -1.
      99926    2    1    2    0    0 -0.14210854715E-13  0.00000000000E+00 -0.67309704162E+02  0.46693260930E+03  0.46205569507E+03 0.  0.
      99925    2    3    3    0    0  0.64514957040E+02 -0.90779076129E+02 -0.86301447441E+02  0.29837634345E+03  0.26301612527E+03 0.  0.
         25    1    4    4    0    0  0.22564704923E+02 -0.64602298226E+01 -0.22250580426E+02  0.12920331616E+03  0.12509000000E+03 0.  0.
         25    1    4    4    0    0  0.41950252117E+02 -0.84318846307E+02 -0.64050867015E+02  0.16917302728E+03  0.12509000000E+03 0.  0.
         25    1    3    3    0    0 -0.64514957040E+02  0.90779076129E+02  0.18991743280E+02  0.16855626585E+03  0.12509000000E+03 0.  0.
<mgrwt>
<rscale>  2 0.46205570E+03</rscale>
<asrwt>0</asrwt>
<pdfrwt beam="1">  1       21 0.29384037E-01 0.46205570E+03</pdfrwt>
<pdfrwt beam="2">  1       21 0.39282523E-01 0.46205570E+03</pdfrwt>
<totfact> 0.64000610E+04</totfact>
</mgrwt>
</event>
<event>
 7    0  0.4707675E-002  0.4575324E+03  0.7546771E-02  0.1025499E+00
         21   -1    0    0  502  501  0.00000000000E+00  0.00000000000E+00  0.81066415123E+03  0.81066415123E+03  0.00000000000E+00 0.  1.
         21   -1    0    0  501  502 -0.00000000000E+00 -0.00000000000E+00 -0.64556907985E+02  0.64556907985E+02  0.00000000000E+00 0.  1.
      99926    2    1    2    0    0  0.71054273576E-14  0.13322676296E-14  0.74610724325E+03  0.87522105922E+03  0.45753238582E+03 0.  0.
      99925    2    3    3    0    0  0.50826425964E+02 -0.35557983703E+01  0.66675854307E+03  0.71856955556E+03  0.26301954707E+03 0.  0.
         25    1    3    3    0    0 -0.50826425964E+02  0.35557983703E+01  0.79348700173E+02  0.15665150366E+03  0.12509000000E+03 0.  0.
         25    1    4    4    0    0  0.59686400394E+02 -0.16932913221E+02  0.30455092235E+03  0.33503427040E+03  0.12509000000E+03 0.  0.
         25    1    4    4    0    0 -0.88599744294E+01  0.13377114851E+02  0.36220762073E+03  0.38353528516E+03  0.12509000000E+03 0.  0.
<mgrwt>
<rscale>  2 0.45753239E+03</rscale>
<asrwt>0</asrwt>
<pdfrwt beam="1">  1       21 0.11921531E+00 0.45753239E+03</pdfrwt>
<pdfrwt beam="2">  1       21 0.94936634E-02 0.45753239E+03</pdfrwt>
<totfact> 0.43454071E+04</totfact>
</mgrwt>
</event>
<event>
 7    0  0.4707675E-002  0.4484348E+03  0.7546771E-02  0.1028190E+00
         21   -1    0    0  502  501  0.00000000000E+00  0.00000000000E+00  0.29996397823E+02  0.29996397823E+02  0.00000000000E+00 0.  1.
         21   -1    0    0  501  502 -0.00000000000E+00 -0.00000000000E+00 -0.16759826730E+04  0.16759826730E+04  0.00000000000E+00 0.  1.
      99926    2    1    2    0    0 -0.44408920985E-15  0.00000000000E+00 -0.16459862752E+04  0.17059790708E+04  0.44843480241E+03 0.  0.
      99925    2    3    3    0    0  0.21596862844E+01 -0.75414574585E+02 -0.75397715983E+03  0.80208759932E+03  0.26300368272E+03 0.  0.
         25    1    4    4    0    0  0.15563102283E+02  0.84480385145E+00 -0.37067108785E+03  0.39151945969E+03  0.12509000000E+03 0.  0.
         25    1    4    4    0    0 -0.13403415998E+02 -0.76259378436E+02 -0.38330607198E+03  0.41056813963E+03  0.12509000000E+03 0.  0.
         25    1    3    3    0    0 -0.21596862844E+01  0.75414574585E+02 -0.89200911534E+03  0.90389147150E+03  0.12509000000E+03 0.  0.
<mgrwt>
<rscale>  2 0.44843480E+03</rscale>
<asrwt>0</asrwt>
<pdfrwt beam="1">  1       21 0.44112355E-02 0.44843480E+03</pdfrwt>
<pdfrwt beam="2">  1       21 0.24646801E+00 0.44843480E+03</pdfrwt>
<totfact> 0.20145091E+04</totfact>
</mgrwt>
</event>
<event>
 7    0  0.4707675E-002  0.4545525E+03  0.7546771E-02  0.1026373E+00
         21   -1    0    0  502  501  0.00000000000E+00  0.00000000000E+00  0.21154911204E+03  0.21154911204E+03  0.00000000000E+00 0. -1.
         21   -1    0    0  501  502 -0.00000000000E+00 -0.00000000000E+00 -0.24417260029E+03  0.24417260029E+03  0.00000000000E+00 0. -1.
      99926    2    1    2    0    0  0.35527136788E-14  0.00000000000E+00 -0.32623488252E+02  0.45572171233E+03  0.45455251303E+03 0.  0.
      99925    2    3    3    0    0  0.22031178774E+02 -0.11021341226E+03 -0.11762377585E+02  0.28626651731E+03  0.26301672252E+03 0.  0.
         25    1    4    4    0    0 -0.10004143209E+02 -0.19671797187E+02  0.82767321965E+01  0.12729129932E+03  0.12509000000E+03 0.  0.
         25    1    4    4    0    0  0.32035321983E+02 -0.90541615076E+02 -0.20039109781E+02  0.15897521799E+03  0.12509000000E+03 0.  0.
         25    1    3    3    0    0 -0.22031178774E+02  0.11021341226E+03 -0.20861110667E+02  0.16945519502E+03  0.12509000000E+03 0.  0.
<mgrwt>
<rscale>  2 0.45455251E+03</rscale>
<asrwt>0</asrwt>
<pdfrwt beam="1">  1       21 0.31110164E-01 0.45455251E+03</pdfrwt>
<pdfrwt beam="2">  1       21 0.35907735E-01 0.45455251E+03</pdfrwt>
<totfact> 0.68738083E+04</totfact>
</mgrwt>
</event>
<event>
 7    0  0.4707675E-002  0.4482818E+03  0.7546771E-02  0.1028236E+00
         21   -1    0    0  502  501  0.00000000000E+00  0.00000000000E+00  0.42408071363E+03  0.42408071363E+03  0.00000000000E+00 0. -1.
         21   -1    0    0  501  502 -0.00000000000E+00 -0.00000000000E+00 -0.11846598945E+03  0.11846598945E+03  0.00000000000E+00 0. -1.
      99926    2    1    2    0    0  0.00000000000E+00 -0.14210854715E-13  0.30561472418E+03  0.54254670307E+03  0.44828179238E+03 0.  0.
      99925    2    3    3    0    0  0.38014115889E+02  0.94537995792E+02  0.15655514066E+03  0.32289066925E+03  0.26337495433E+03 0.  0.
         25    1    3    3    0    0 -0.38014115889E+02 -0.94537995792E+02  0.14905958352E+03  0.21965603382E+03  0.12509000000E+03 0.  0.
         25    1    4    4    0    0  0.46383270657E+01  0.82070260348E+02  0.61643794439E+02  0.16187806276E+03  0.12509000000E+03 0.  0.
         25    1    4    4    0    0  0.33375788823E+02  0.12467735444E+02  0.94911346222E+02  0.16101260649E+03  0.12509000000E+03 0.  0.
<mgrwt>
<rscale>  2 0.44828179E+03</rscale>
<asrwt>0</asrwt>
<pdfrwt beam="1">  1       21 0.62364810E-01 0.44828179E+03</pdfrwt>
<pdfrwt beam="2">  1       21 0.17421469E-01 0.44828179E+03</pdfrwt>
<totfact> 0.65790217E+04</totfact>
</mgrwt>
</event>
<event>
 7    0  0.4707675E-002  0.4543064E+03  0.7546771E-02  0.1026446E+00
         21   -1    0    0  502  501  0.00000000000E+00  0.00000000000E+00  0.41384650251E+02  0.41384650251E+02  0.00000000000E+00 0.  1.
         21   -1    0    0  501  502 -0.00000000000E+00 -0.00000000000E+00 -0.12468045075E+04  0.12468045075E+04  0.00000000000E+00 0.  1.
      99926    2    1    2    0    0 -0.14210854715E-13  0.71054273576E-14 -0.12054198573E+04  0.12881891578E+04  0.45430636568E+03 0.  0.
      99925    2    3    3    0    0  0.10548350904E+03 -0.32673522105E+02 -0.69796053868E+03  0.75400117789E+03  0.26301051876E+03 0.  0.
         25    1    4    4    0    0  0.36936294909E+02  0.84641368534E+01 -0.25036281294E+03  0.28242694223E+03  0.12509000000E+03 0.  0.
         25    1    3    3    0    0 -0.10548350904E+03  0.32673522105E+02 -0.50745931860E+03  0.53418797989E+03  0.12509000000E+03 0.  0.
         25    1    4    4    0    0  0.68547214135E+02 -0.41137658958E+02 -0.44759772573E+03  0.47157423565E+03  0.12509000000E+03 0.  0.
<mgrwt>
<rscale>  2 0.45430637E+03</rscale>
<asrwt>0</asrwt>
<pdfrwt beam="1">  1       21 0.60859781E-02 0.45430637E+03</pdfrwt>
<pdfrwt beam="2">  1       21 0.18335360E+00 0.45430637E+03</pdfrwt>
<totfact> 0.29619169E+04</totfact>
</mgrwt>
</event>
<event>
 7    0  0.4707675E-002  0.4597290E+03  0.7546771E-02  0.1024860E+00
         21   -1    0    0  502  501  0.00000000000E+00  0.00000000000E+00  0.79132566127E+02  0.79132566127E+02  0.00000000000E+00 0. -1.
         21   -1    0    0  501  502 -0.00000000000E+00 -0.00000000000E+00 -0.66771090900E+03  0.66771090900E+03  0.00000000000E+00 0. -1.
      99926    2    1    2    0    0  0.00000000000E+00  0.00000000000E+00 -0.58857834288E+03  0.74684347513E+03  0.45972895345E+03 0.  0.
      99925    2    3    3    0    0  0.66359220982E+02  0.95768705078E+02 -0.39391072739E+03  0.48777170959E+03  0.26302165014E+03 0.  0.
         25    1    4    4    0    0  0.15485201588E+02  0.25596671883E+02 -0.12839685642E+03  0.18173673794E+03  0.12509000000E+03 0.  0.
         25    1    3    3    0    0 -0.66359220982E+02 -0.95768705078E+02 -0.19466761549E+03  0.25907176554E+03  0.12509000000E+03 0.  0.
         25    1    4    4    0    0  0.50874019394E+02  0.70172033195E+02 -0.26551387097E+03  0.30603497164E+03  0.12509000000E+03 0.  0.
<mgrwt>
<rscale>  2 0.45972895E+03</rscale>
<asrwt>0</asrwt>
<pdfrwt beam="1">  1       21 0.11637142E-01 0.45972895E+03</pdfrwt>
<pdfrwt beam="2">  1       21 0.98192783E-01 0.45972895E+03</pdfrwt>
<totfact> 0.48600496E+04</totfact>
</mgrwt>
</event>
<event>
 7    0  0.4707675E-002  0.4676684E+03  0.7546771E-02  0.1022580E+00
         21   -1    0    0  502  501  0.00000000000E+00  0.00000000000E+00  0.44259448543E+02  0.44259448543E+02  0.00000000000E+00 0.  1.
         21   -1    0    0  501  502 -0.00000000000E+00 -0.00000000000E+00 -0.12354071263E+04  0.12354071263E+04  0.00000000000E+00 0.  1.
      99926    2    1    2    0    0  0.00000000000E+00  0.00000000000E+00 -0.11911476778E+04  0.12796665748E+04  0.46766842158E+03 0.  0.
      99925    2    3    3    0    0  0.45598517677E+02  0.90796636473E+02 -0.54406115134E+03  0.61281446622E+03  0.26308891957E+03 0.  0.
         25    1    4    4    0    0 -0.35965715376E+01  0.18860006497E+02 -0.20280834956E+03  0.23905516084E+03  0.12509000000E+03 0.  0.
         25    1    3    3    0    0 -0.45598517677E+02 -0.90796636473E+02 -0.64708652641E+03  0.66685210862E+03  0.12509000000E+03 0.  0.
         25    1    4    4    0    0  0.49195089215E+02  0.71936629977E+02 -0.34125280178E+03  0.37375930538E+03  0.12509000000E+03 0.  0.
<mgrwt>
<rscale>  2 0.46766842E+03</rscale>
<asrwt>0</asrwt>
<pdfrwt beam="1">  1       21 0.65087424E-02 0.46766842E+03</pdfrwt>
<pdfrwt beam="2">  1       21 0.18167752E+00 0.46766842E+03</pdfrwt>
<totfact> 0.26953961E+04</totfact>
</mgrwt>
</event>
<event>
 7    0  0.4707675E-002  0.4589911E+03  0.7546771E-02  0.1025074E+00
         21   -1    0    0  502  501  0.00000000000E+00  0.00000000000E+00  0.97808809323E+03  0.97808809323E+03  0.00000000000E+00 0.  1.
         21   -1    0    0  501  502 -0.00000000000E+00 -0.00000000000E+00 -0.53848122678E+02  0.53848122678E+02  0.00000000000E+00 0.  1.
      99926    2    1    2    0    0  0.00000000000E+00  0.00000000000E+00  0.92423997055E+03  0.10319362159E+04  0.45899110071E+03 0.  0.
      99925    2    3    3    0    0  0.75607809018E+02 -0.77015330712E+02  0.68031234641E+03  0.73732444447E+03  0.26301054311E+03 0.  0.
         25    1    4    4    0    0  0.66335069412E+02 -0.62844052860E+02  0.31963032798E+03  0.35519117539E+03  0.12509000000E+03 0.  0.
         25    1    3    3    0    0 -0.75607809018E+02  0.77015330712E+02  0.24392762414E+03  0.29461177143E+03  0.12509000000E+03 0.  0.
         25    1    4    4    0    0  0.92727396062E+01 -0.14171277852E+02  0.36068201843E+03  0.38213326908E+03  0.12509000000E+03 0.  0.
<mgrwt>
<rscale>  2 0.45899110E+03</rscale>
<asrwt>0</asrwt>
<pdfrwt beam="1">  1       21 0.14383647E+00 0.45899110E+03</pdfrwt>
<pdfrwt beam="2">  1       21 0.79188422E-02 0.45899110E+03</pdfrwt>
<totfact> 0.36787621E+04</totfact>
</mgrwt>
</event>
<event>
 7    0  0.4707675E-002  0.4571953E+03  0.7546771E-02  0.1025598E+00
         21   -1    0    0  502  501  0.00000000000E+00  0.00000000000E+00  0.10343159152E+03  0.10343159152E+03  0.00000000000E+00 0. -1.
         21   -1    0    0  501  502 -0.00000000000E+00 -0.00000000000E+00 -0.50523134873E+03  0.50523134873E+03  0.00000000000E+00 0. -1.
      99926    2    1    2    0    0  0.00000000000E+00  0.00000000000E+00 -0.40179975721E+03  0.60866294025E+03  0.45719528645E+03 0.  0.
      99925    2    3    3    0    0 -0.34348123778E+02  0.54775573145E+02 -0.37931399652E+03  0.46606814878E+03  0.26298337274E+03 0.  0.
         25    1    4    4    0    0 -0.36552725783E+02  0.13437498790E+02 -0.13278560901E+03  0.18653738016E+03  0.12509000000E+03 0.  0.
         25    1    3    3    0    0  0.34348123778E+02 -0.54775573145E+02 -0.22485760686E+02  0.14259479147E+03  0.12509000000E+03 0.  0.
         25    1    4    4    0    0  0.22046020047E+01  0.41338074356E+02 -0.24652838751E+03  0.27953076863E+03  0.12509000000E+03 0.  0.
<mgrwt>
<rscale>  2 0.45719529E+03</rscale>
<asrwt>0</asrwt>
<pdfrwt beam="1">  1       21 0.15210528E-01 0.45719529E+03</pdfrwt>
<pdfrwt beam="2">  1       21 0.74298728E-01 0.45719529E+03</pdfrwt>
<totfact> 0.57150653E+04</totfact>
</mgrwt>
</event>
<event>
 7    0  0.4707675E-002  0.4463736E+03  0.7546771E-02  0.1028809E+00
         21   -1    0    0  502  501  0.00000000000E+00  0.00000000000E+00  0.86086637860E+02  0.86086637860E+02  0.00000000000E+00 0.  1.
         21   -1    0    0  501  502 -0.00000000000E+00 -0.00000000000E+00 -0.57863039963E+03  0.57863039963E+03  0.00000000000E+00 0.  1.
      99926    2    1    2    0    0  0.44408920985E-14  0.00000000000E+00 -0.49254376177E+03  0.66471703749E+03  0.44637359092E+03 0.  0.
      99925    2    3    3    0    0  0.55814598441E+01  0.79148969017E+02 -0.20946959123E+03  0.34522649598E+03  0.26269395098E+03 0.  0.
         25    1    3    3    0    0 -0.55814598441E+01 -0.79148969017E+02 -0.28307417054E+03  0.31949054151E+03  0.12509000000E+03 0.  0.
         25    1    4    4    0    0  0.35295184336E+02  0.63106620061E+02 -0.10155159648E+03  0.17660246425E+03  0.12509000000E+03 0.  0.
         25    1    4    4    0    0 -0.29713724491E+02  0.16042348957E+02 -0.10791799476E+03  0.16862403173E+03  0.12509000000E+03 0.  0.
<mgrwt>
<rscale>  2 0.44637359E+03</rscale>
<asrwt>0</asrwt>
<pdfrwt beam="1">  1       21 0.12659800E-01 0.44637359E+03</pdfrwt>
<pdfrwt beam="2">  1       21 0.85092706E-01 0.44637359E+03</pdfrwt>
<totfact> 0.58754242E+04</totfact>
</mgrwt>
</event>
<event>
 7    0  0.4707675E-002  0.4444483E+03  0.7546771E-02  0.1029391E+00
         21   -1    0    0  502  501  0.00000000000E+00  0.00000000000E+00  0.41338121958E+03  0.41338121958E+03  0.00000000000E+00 0. -1.
         21   -1    0    0  501  502 -0.00000000000E+00 -0.00000000000E+00 -0.11946253426E+03  0.11946253426E+03  0.00000000000E+00 0. -1.
      99926    2    1    2    0    0  0.00000000000E+00  0.00000000000E+00  0.29391868532E+03  0.53284375385E+03  0.44444827869E+03 0.  0.
      99925    2    3    3    0    0  0.25659513137E+02 -0.46806958094E+02  0.29240058841E+03  0.39683230338E+03  0.26292293731E+03 0.  0.
         25    1    3    3    0    0 -0.25659513137E+02  0.46806958094E+02  0.15180969150E+01  0.13601145047E+03  0.12509000000E+03 0.  0.
         25    1    4    4    0    0  0.42595083883E+02  0.37945457101E+01  0.14936213933E+03  0.19946251907E+03  0.12509000000E+03 0.  0.
         25    1    4    4    0    0 -0.16935570746E+02 -0.50601503804E+02  0.14303844908E+03  0.19736978431E+03  0.12509000000E+03 0.  0.
<mgrwt>
<rscale>  2 0.44444828E+03</rscale>
<asrwt>0</asrwt>
<pdfrwt beam="1">  1       21 0.60791355E-01 0.44444828E+03</pdfrwt>
<pdfrwt beam="2">  1       21 0.17568020E-01 0.44444828E+03</pdfrwt>
<totfact> 0.68564145E+04</totfact>
</mgrwt>
</event>
<event>
 7    0  0.4707675E-002  0.4560510E+03  0.7546771E-02  0.1025933E+00
         21   -1    0    0  502  501  0.00000000000E+00  0.00000000000E+00  0.53449980068E+03  0.53449980068E+03  0.00000000000E+00 0. -1.
         21   -1    0    0  501  502 -0.00000000000E+00 -0.00000000000E+00 -0.97279031328E+02  0.97279031328E+02  0.00000000000E+00 0. -1.
      99926    2    1    2    0    0 -0.71054273576E-14  0.35527136788E-14  0.43722076936E+03  0.63177883201E+03  0.45605097459E+03 0.  0.
      99925    2    3    3    0    0  0.45429757552E+02 -0.26343283443E+02  0.13471927175E+03  0.30024829705E+03  0.26313860654E+03 0.  0.
         25    1    3    3    0    0 -0.45429757552E+02  0.26343283443E+02  0.30250149761E+03  0.33153053496E+03  0.12509000000E+03 0.  0.
         25    1    4    4    0    0  0.53415599734E+00 -0.93820284603E+01  0.26953158503E+02  0.12830545052E+03  0.12509000000E+03 0.  0.
         25    1    4    4    0    0  0.44895601555E+02 -0.16961254983E+02  0.10776611324E+03  0.17194284653E+03  0.12509000000E+03 0.  0.
<mgrwt>
<rscale>  2 0.45605097E+03</rscale>
<asrwt>0</asrwt>
<pdfrwt beam="1">  1       21 0.78602911E-01 0.45605097E+03</pdfrwt>
<pdfrwt beam="2">  1       21 0.14305740E-01 0.45605097E+03</pdfrwt>
<totfact> 0.56295134E+04</totfact>
</mgrwt>
</event>
<event>
 7    0  0.4707675E-002  0.4511641E+03  0.7546771E-02  0.1027375E+00
         21   -1    0    0  502  501  0.00000000000E+00  0.00000000000E+00  0.33773256574E+03  0.33773256574E+03  0.00000000000E+00 0.  1.
         21   -1    0    0  501  502 -0.00000000000E+00 -0.00000000000E+00 -0.15067322264E+03  0.15067322264E+03  0.00000000000E+00 0.  1.
      99926    2    1    2    0    0 -0.35527136788E-14  0.00000000000E+00  0.18705934310E+03  0.48840578838E+03  0.45116406803E+03 0.  0.
      99925    2    3    3    0    0  0.14710440174E+02  0.10344755680E+03  0.82839897996E+02  0.29494521127E+03  0.26308256289E+03 0.  0.
         25    1    4    4    0    0 -0.25773423063E+02  0.75225383520E+02  0.35849582822E+02  0.15249861754E+03  0.12509000000E+03 0.  0.
         25    1    3    3    0    0 -0.14710440174E+02 -0.10344755680E+03  0.10421944510E+03  0.19346057711E+03  0.12509000000E+03 0.  0.
         25    1    4    4    0    0  0.40483863236E+02  0.28222173278E+02  0.46990315174E+02  0.14244659374E+03  0.12509000000E+03 0.  0.
<mgrwt>
<rscale>  2 0.45116407E+03</rscale>
<asrwt>0</asrwt>
<pdfrwt beam="1">  1       21 0.49666554E-01 0.45116407E+03</pdfrwt>
<pdfrwt beam="2">  1       21 0.22157827E-01 0.45116407E+03</pdfrwt>
<totfact> 0.68144761E+04</totfact>
</mgrwt>
</event>
<event>
 7    0  0.4707675E-002  0.4556330E+03  0.7546771E-02  0.1026055E+00
         21   -1    0    0  502  501  0.00000000000E+00  0.00000000000E+00  0.97519709554E+03  0.97519709554E+03  0.00000000000E+00 0. -1.
         21   -1    0    0  501  502 -0.00000000000E+00 -0.00000000000E+00 -0.53220381916E+02  0.53220381916E+02  0.00000000000E+00 0. -1.
      99926    2    1    2    0    0  0.00000000000E+00 -0.35527136788E-14  0.92197671362E+03  0.10284174775E+04  0.45563301842E+03 0.  0.
      99925    2    3    3    0    0 -0.57446303440E+02  0.23332481979E+02  0.79508287269E+03  0.83975365617E+03  0.26303031406E+03 0.  0.
         25    1    4    4    0    0 -0.41599812948E+01 -0.19527386511E+02  0.41035762557E+03  0.42946421648E+03  0.12509000000E+03 0.  0.
         25    1    4    4    0    0 -0.53286322145E+02  0.42859868491E+02  0.38472524712E+03  0.41028943970E+03  0.12509000000E+03 0.  0.
         25    1    3    3    0    0  0.57446303440E+02 -0.23332481979E+02  0.12689384093E+03  0.18866382128E+03  0.12509000000E+03 0.  0.
<mgrwt>
<rscale>  2 0.45563302E+03</rscale>
<asrwt>0</asrwt>
<pdfrwt beam="1">  1       21 0.14341133E+00 0.45563302E+03</pdfrwt>
<pdfrwt beam="2">  1       21 0.78265274E-02 0.45563302E+03</pdfrwt>
<totfact> 0.37891819E+04</totfact>
</mgrwt>
</event>
<event>
 7    0  0.4707675E-002  0.4548015E+03  0.7546771E-02  0.1026300E+00
         21   -1    0    0  502  501  0.00000000000E+00  0.00000000000E+00  0.11170227849E+03  0.11170227849E+03  0.00000000000E+00 0.  1.
         21   -1    0    0  501  502 -0.00000000000E+00 -0.00000000000E+00 -0.46293692714E+03  0.46293692714E+03  0.00000000000E+00 0.  1.
      99926    2    1    2    0    0  0.00000000000E+00  0.35527136788E-14 -0.35123464864E+03  0.57463920563E+03  0.45480153720E+03 0.  0.
      99925    2    3    3    0    0  0.61234547196E+02  0.24836719796E+02 -0.33683740682E+03  0.43243751403E+03  0.26301374962E+03 0.  0.
         25    1    4    4    0    0  0.35595381793E+02  0.46729187462E+02 -0.20802006506E+03  0.24974087318E+03  0.12509000000E+03 0.  0.
         25    1    4    4    0    0  0.25639165403E+02 -0.21892467666E+02 -0.12881734176E+03  0.18269664086E+03  0.12509000000E+03 0.  0.
         25    1    3    3    0    0 -0.61234547196E+02 -0.24836719796E+02 -0.14397241822E+02  0.14220169160E+03  0.12509000000E+03 0.  0.
<mgrwt>
<rscale>  2 0.45480154E+03</rscale>
<asrwt>0</asrwt>
<pdfrwt beam="1">  1       21 0.16426805E-01 0.45480154E+03</pdfrwt>
<pdfrwt beam="2">  1       21 0.68078961E-01 0.45480154E+03</pdfrwt>
<totfact> 0.60361756E+04</totfact>
</mgrwt>
</event>
<event>
 7    0  0.4707675E-002  0.4520390E+03  0.7546771E-02  0.1027116E+00
         21   -1    0    0  502  501  0.00000000000E+00  0.00000000000E+00  0.15177399488E+03  0.15177399488E+03  0.00000000000E+00 0. -1.
         21   -1    0    0  501  502 -0.00000000000E+00 -0.00000000000E+00 -0.33658476256E+03  0.33658476256E+03  0.00000000000E+00 0. -1.
      99926    2    1    2    0    0  0.00000000000E+00  0.00000000000E+00 -0.18481076768E+03  0.48835875744E+03  0.45203899844E+03 0.  0.
      99925    2    3    3    0    0 -0.33604566235E+02  0.92455979655E+02 -0.62555436966E+02  0.28768178060E+03  0.26300237479E+03 0.  0.
         25    1    4    4    0    0 -0.42886932911E+02  0.70899338922E+02 -0.11280354947E+02  0.15046846773E+03  0.12509000000E+03 0.  0.
         25    1    4    4    0    0  0.92823666763E+01  0.21556640733E+02 -0.51275082019E+02  0.13721331286E+03  0.12509000000E+03 0.  0.
         25    1    3    3    0    0  0.33604566235E+02 -0.92455979655E+02 -0.12225533072E+03  0.20067697684E+03  0.12509000000E+03 0.  0.
<mgrwt>
<rscale>  2 0.45203900E+03</rscale>
<asrwt>0</asrwt>
<pdfrwt beam="1">  1       21 0.22319706E-01 0.45203900E+03</pdfrwt>
<pdfrwt beam="2">  1       21 0.49497758E-01 0.45203900E+03</pdfrwt>
<totfact> 0.67673317E+04</totfact>
</mgrwt>
</event>
<event>
 7    0  0.4707675E-002  0.4534083E+03  0.7546771E-02  0.1026711E+00
         21   -1    0    0  502  501  0.00000000000E+00  0.00000000000E+00  0.33782100263E+03  0.33782100263E+03  0.00000000000E+00 0.  1.
         21   -1    0    0  501  502 -0.00000000000E+00 -0.00000000000E+00 -0.15213610079E+03  0.15213610079E+03  0.00000000000E+00 0.  1.
      99926    2    1    2    0    0  0.35527136788E-14  0.35527136788E-14  0.18568490183E+03  0.48995710342E+03  0.45340829328E+03 0.  0.
      99925    2    3    3    0    0 -0.22010672585E+02  0.21818440494E+02  0.23293389973E+03  0.35269643915E+03  0.26301342645E+03 0.  0.
         25    1    3    3    0    0  0.22010672585E+02 -0.21818440494E+02 -0.47248997892E+02  0.13726066427E+03  0.12509000000E+03 0.  0.
         25    1    4    4    0    0 -0.33939365194E+02  0.44306124637E+02  0.12746774810E+03  0.18711079096E+03  0.12509000000E+03 0.  0.
         25    1    4    4    0    0  0.11928692610E+02 -0.22487684143E+02  0.10546615163E+03  0.16558564819E+03  0.12509000000E+03 0.  0.
<mgrwt>
<rscale>  2 0.45340829E+03</rscale>
<asrwt>0</asrwt>
<pdfrwt beam="1">  1       21 0.49679559E-01 0.45340829E+03</pdfrwt>
<pdfrwt beam="2">  1       21 0.22372956E-01 0.45340829E+03</pdfrwt>
<totfact> 0.66822515E+04</totfact>
</mgrwt>
</event>
<event>
 7    0  0.4707675E-002  0.4587083E+03  0.7546771E-02  0.1025157E+00
         21   -1    0    0  502  501  0.00000000000E+00  0.00000000000E+00  0.44588670281E+02  0.44588670281E+02  0.00000000000E+00 0. -1.
         21   -1    0    0  501  502 -0.00000000000E+00 -0.00000000000E+00 -0.11797464032E+04  0.11797464032E+04  0.00000000000E+00 0. -1.
      99926    2    1    2    0    0  0.14210854715E-13  0.00000000000E+00 -0.11351577329E+04  0.12243350735E+04  0.45870828807E+03 0.  0.
      99925    2    3    3    0    0 -0.11008039751E+03 -0.38401165665E+02 -0.71494673455E+03  0.77066433970E+03  0.26302537481E+03 0.  0.
         25    1    4    4    0    0 -0.16850511362E+02  0.31142746162E+01 -0.31095875100E+03  0.33561360426E+03  0.12509000000E+03 0.  0.
         25    1    4    4    0    0 -0.93229886147E+02 -0.41515440282E+02 -0.40398798355E+03  0.43505073544E+03  0.12509000000E+03 0.  0.
         25    1    3    3    0    0  0.11008039751E+03  0.38401165665E+02 -0.42021099834E+03  0.45367073375E+03  0.12509000000E+03 0.  0.
<mgrwt>
<rscale>  2 0.45870829E+03</rscale>
<asrwt>0</asrwt>
<pdfrwt beam="1">  1       21 0.65571582E-02 0.45870829E+03</pdfrwt>
<pdfrwt beam="2">  1       21 0.17349210E+00 0.45870829E+03</pdfrwt>
<totfact> 0.30503427E+04</totfact>
</mgrwt>
</event>
<event>
 7    0  0.4707675E-002  0.4509868E+03  0.7546771E-02  0.1027428E+00
         21   -1    0    0  502  501  0.00000000000E+00  0.00000000000E+00  0.79914205267E+02  0.79914205267E+02  0.00000000000E+00 0.  1.
         21   -1    0    0  501  502 -0.00000000000E+00 -0.00000000000E+00 -0.63627319352E+03  0.63627319352E+03  0.00000000000E+00 0.  1.
      99926    2    1    2    0    0  0.00000000000E+00  0.00000000000E+00 -0.55635898825E+03  0.71618739879E+03  0.45098676962E+03 0.  0.
      99925    2    3    3    0    0  0.72606483666E+02 -0.65958594219E+02 -0.27607586674E+03  0.39396329366E+03  0.26337607130E+03 0.  0.
         25    1    4    4    0    0  0.64493217154E+02 -0.14324144095E+02 -0.10772012744E+03  0.17780801478E+03  0.12509000000E+03 0.  0.
         25    1    3    3    0    0 -0.72606483666E+02  0.65958594219E+02 -0.28028312151E+03  0.32222410513E+03  0.12509000000E+03 0.  0.
         25    1    4    4    0    0  0.81132665126E+01 -0.51634450124E+02 -0.16835573930E+03  0.21615527888E+03  0.12509000000E+03 0.  0.
<mgrwt>
<rscale>  2 0.45098677E+03</rscale>
<asrwt>0</asrwt>
<pdfrwt beam="1">  1       21 0.11752089E-01 0.45098677E+03</pdfrwt>
<pdfrwt beam="2">  1       21 0.93569590E-01 0.45098677E+03</pdfrwt>
<totfact> 0.53708477E+04</totfact>
</mgrwt>
</event>
<event>
 7    0  0.4707675E-002  0.4565266E+03  0.7546771E-02  0.1025793E+00
         21   -1    0    0  502  501  0.00000000000E+00  0.00000000000E+00  0.20764289880E+03  0.20764289880E+03  0.00000000000E+00 0. -1.
         21   -1    0    0  501  502 -0.00000000000E+00 -0.00000000000E+00 -0.25093146478E+03  0.25093146478E+03  0.00000000000E+00 0. -1.
      99926    2    1    2    0    0  0.00000000000E+00 -0.17763568394E-14 -0.43288565985E+02  0.45857436358E+03  0.45652661147E+03 0.  0.
      99925    2    3    3    0    0  0.11056601309E+03 -0.13247987972E+02 -0.61836777475E+00  0.28574899984E+03  0.26315728395E+03 0.  0.
         25    1    4    4    0    0  0.66127359247E+02  0.16714104198E+02 -0.32141480887E+02  0.14605742642E+03  0.12509000000E+03 0.  0.
         25    1    3    3    0    0 -0.11056601309E+03  0.13247987972E+02 -0.42670198210E+02  0.17282536374E+03  0.12509000000E+03 0.  0.
         25    1    4    4    0    0  0.44438653843E+02 -0.29962092169E+02  0.31523113112E+02  0.13969157341E+03  0.12509000000E+03 0.  0.
<mgrwt>
<rscale>  2 0.45652661E+03</rscale>
<asrwt>0</asrwt>
<pdfrwt beam="1">  1       21 0.30535721E-01 0.45652661E+03</pdfrwt>
<pdfrwt beam="2">  1       21 0.36901686E-01 0.45652661E+03</pdfrwt>
<totfact> 0.67459312E+04</totfact>
</mgrwt>
</event>
<event>
 7    0  0.4707675E-002  0.4517408E+03  0.7546771E-02  0.1027204E+00
         21   -1    0    0  502  501  0.00000000000E+00  0.00000000000E+00  0.74572333417E+02  0.74572333417E+02  0.00000000000E+00 0. -1.
         21   -1    0    0  501  502 -0.00000000000E+00 -0.00000000000E+00 -0.68413350433E+03  0.68413350433E+03  0.00000000000E+00 0. -1.
      99926    2    1    2    0    0  0.00000000000E+00  0.00000000000E+00 -0.60956117091E+03  0.75870583774E+03  0.45174077428E+03 0.  0.
      99925    2    3    3    0    0 -0.86074876749E+02 -0.68430982375E+02 -0.37067773558E+03  0.46749373716E+03  0.26278646629E+03 0.  0.
         25    1    4    4    0    0 -0.66151889461E+02 -0.56773193293E+02 -0.24573886170E+03  0.28919606534E+03  0.12509000000E+03 0.  0.
         25    1    4    4    0    0 -0.19922987288E+02 -0.11657789082E+02 -0.12493887388E+03  0.17829767182E+03  0.12509000000E+03 0.  0.
         25    1    3    3    0    0  0.86074876749E+02  0.68430982375E+02 -0.23888343532E+03  0.29121210059E+03  0.12509000000E+03 0.  0.
<mgrwt>
<rscale>  2 0.45174077E+03</rscale>
<asrwt>0</asrwt>
<pdfrwt beam="1">  1       21 0.10966520E-01 0.45174077E+03</pdfrwt>
<pdfrwt beam="2">  1       21 0.10060786E+00 0.45174077E+03</pdfrwt>
<totfact> 0.51122183E+04</totfact>
</mgrwt>
</event>
<event>
 7    0  0.4707675E-002  0.4607830E+03  0.7546771E-02  0.1024554E+00
         21   -1    0    0  502  501  0.00000000000E+00  0.00000000000E+00  0.43315329315E+02  0.43315329315E+02  0.00000000000E+00 0.  1.
         21   -1    0    0  501  502 -0.00000000000E+00 -0.00000000000E+00 -0.12254377934E+04  0.12254377934E+04  0.00000000000E+00 0.  1.
      99926    2    1    2    0    0  0.00000000000E+00  0.00000000000E+00 -0.11821224641E+04  0.12687531228E+04  0.46078299265E+03 0.  0.
      99925    2    3    3    0    0 -0.84411480618E+02 -0.79963812354E+02 -0.68374766979E+03  0.74192824381E+03  0.26349029142E+03 0.  0.
         25    1    4    4    0    0 -0.29427289613E+02 -0.79952362865E+02 -0.35533187412E+03  0.38622091420E+03  0.12509000000E+03 0.  0.
         25    1    4    4    0    0 -0.54984191005E+02 -0.11449488555E-01 -0.32841579567E+03  0.35570732961E+03  0.12509000000E+03 0.  0.
         25    1    3    3    0    0  0.84411480618E+02  0.79963812354E+02 -0.49837479433E+03  0.52682487894E+03  0.12509000000E+03 0.  0.
<mgrwt>
<rscale>  2 0.46078299E+03</rscale>
<asrwt>0</asrwt>
<pdfrwt beam="1">  1       21 0.63699010E-02 0.46078299E+03</pdfrwt>
<pdfrwt beam="2">  1       21 0.18021145E+00 0.46078299E+03</pdfrwt>
<totfact> 0.28721182E+04</totfact>
</mgrwt>
</event>
<event>
 7    0  0.4707675E-002  0.4554170E+03  0.7546771E-02  0.1026119E+00
         21   -1    0    0  502  501  0.00000000000E+00  0.00000000000E+00  0.24066682397E+03  0.24066682397E+03  0.00000000000E+00 0.  1.
         21   -1    0    0  501  502 -0.00000000000E+00 -0.00000000000E+00 -0.21544792637E+03  0.21544792637E+03  0.00000000000E+00 0.  1.
      99926    2    1    2    0    0  0.00000000000E+00 -0.71054273576E-14  0.25218897601E+02  0.45611475034E+03  0.45541703161E+03 0.  0.
      99925    2    3    3    0    0 -0.75263322245E+02  0.54530510578E+02  0.81438175460E+02  0.29044562358E+03  0.26284660845E+03 0.  0.
         25    1    4    4    0    0 -0.18409420629E+02  0.59208125165E+02  0.57027714511E+02  0.15081172758E+03  0.12509000000E+03 0.  0.
         25    1    4    4    0    0 -0.56853901616E+02 -0.46776145872E+01  0.24410460949E+02  0.13963389600E+03  0.12509000000E+03 0.  0.
         25    1    3    3    0    0  0.75263322245E+02 -0.54530510578E+02 -0.56219277859E+02  0.16566912676E+03  0.12509000000E+03 0.  0.
<mgrwt>
<rscale>  2 0.45541703E+03</rscale>
<asrwt>0</asrwt>
<pdfrwt beam="1">  1       21 0.35392180E-01 0.45541703E+03</pdfrwt>
<pdfrwt beam="2">  1       21 0.31683519E-01 0.45541703E+03</pdfrwt>
<totfact> 0.68236899E+04</totfact>
</mgrwt>
</event>
<event>
 7    0  0.4707675E-002  0.4533251E+03  0.7546771E-02  0.1026735E+00
         21   -1    0    0  502  501  0.00000000000E+00  0.00000000000E+00  0.18583127045E+03  0.18583127045E+03  0.00000000000E+00 0. -1.
         21   -1    0    0  501  502 -0.00000000000E+00 -0.00000000000E+00 -0.27646536195E+03  0.27646536195E+03  0.00000000000E+00 0. -1.
      99926    2    1    2    0    0  0.00000000000E+00  0.00000000000E+00 -0.90634091504E+02  0.46229663240E+03  0.45332509062E+03 0.  0.
      99925    2    3    3    0    0 -0.52960063188E+02  0.35390582522E+02  0.36402313861E+02  0.27297410861E+03  0.26293054957E+03 0.  0.
         25    1    4    4    0    0 -0.25460551513E+02 -0.45290917998E+01 -0.16438630805E+02  0.12878854390E+03  0.12509000000E+03 0.  0.
         25    1    3    3    0    0  0.52960063188E+02 -0.35390582522E+02 -0.12703640536E+03  0.18932252378E+03  0.12509000000E+03 0.  0.
         25    1    4    4    0    0 -0.27499511675E+02  0.39919674322E+02  0.52840944666E+02  0.14418556472E+03  0.12509000000E+03 0.  0.
<mgrwt>
<rscale>  2 0.45332509E+03</rscale>
<asrwt>0</asrwt>
<pdfrwt beam="1">  1       21 0.27328128E-01 0.45332509E+03</pdfrwt>
<pdfrwt beam="2">  1       21 0.40656670E-01 0.45332509E+03</pdfrwt>
<totfact> 0.68924497E+04</totfact>
</mgrwt>
</event>
<event>
 7    0  0.4707675E-002  0.4644318E+03  0.7546771E-02  0.1023504E+00
         21   -1    0    0  502  501  0.00000000000E+00  0.00000000000E+00  0.17510009104E+04  0.17510009104E+04  0.00000000000E+00 0.  1.
         21   -1    0    0  501  502 -0.00000000000E+00 -0.00000000000E+00 -0.30796223123E+02  0.30796223123E+02  0.00000000000E+00 0.  1.
      99926    2    1    2    0    0  0.00000000000E+00  0.71054273576E-14  0.17202046872E+04  0.17817971335E+04  0.46443175914E+03 0.  0.
      99925    2    3    3    0    0  0.93829644738E+02  0.61684513639E+02  0.89341678245E+03  0.93809414721E+03  0.26309333021E+03 0.  0.
         25    1    3    3    0    0 -0.93829644738E+02 -0.61684513639E+02  0.82678790478E+03  0.84370298627E+03  0.12509000000E+03 0.  0.
         25    1    4    4    0    0  0.51188187478E+02  0.53404105415E+01  0.32993710745E+03  0.35658765191E+03  0.12509000000E+03 0.  0.
         25    1    4    4    0    0  0.42641457260E+02  0.56344103098E+02  0.56347967500E+03  0.58150649530E+03  0.12509000000E+03 0.  0.
<mgrwt>
<rscale>  2 0.46443176E+03</rscale>
<asrwt>0</asrwt>
<pdfrwt beam="1">  1       21 0.25750007E+00 0.46443176E+03</pdfrwt>
<pdfrwt beam="2">  1       21 0.45288575E-02 0.46443176E+03</pdfrwt>
<totfact> 0.16379286E+04</totfact>
</mgrwt>
</event>
<event>
 7    0  0.4707675E-002  0.4657036E+03  0.7546771E-02  0.1023140E+00
         21   -1    0    0  502  501  0.00000000000E+00  0.00000000000E+00  0.65417432274E+03  0.65417432274E+03  0.00000000000E+00 0.  1.
         21   -1    0    0  501  502 -0.00000000000E+00 -0.00000000000E+00 -0.82883032384E+02  0.82883032384E+02  0.00000000000E+00 0.  1.
      99926    2    1    2    0    0 -0.71054273576E-14  0.14210854715E-13  0.57129129035E+03  0.73705735512E+03  0.46570356055E+03 0.  0.
      99925    2    3    3    0    0  0.59000309609E+02 -0.10692994971E+03  0.33374698420E+03  0.44211692696E+03  0.26299292189E+03 0.  0.
         25    1    4    4    0    0  0.40902112158E+02 -0.80595597732E+02  0.22754790393E+03  0.27494397582E+03  0.12509000000E+03 0.  0.
         25    1    3    3    0    0 -0.59000309609E+02  0.10692994971E+03  0.23754430615E+03  0.29494042816E+03  0.12509000000E+03 0.  0.
         25    1    4    4    0    0  0.18098197451E+02 -0.26334351976E+02  0.10619908027E+03  0.16717295115E+03  0.12509000000E+03 0.  0.
<mgrwt>
<rscale>  2 0.46570356E+03</rscale>
<asrwt>0</asrwt>
<pdfrwt beam="1">  1       21 0.96202104E-01 0.46570356E+03</pdfrwt>
<pdfrwt beam="2">  1       21 0.12188682E-01 0.46570356E+03</pdfrwt>
<totfact> 0.46866437E+04</totfact>
</mgrwt>
</event>
<event>
 7    0  0.4707675E-002  0.4497726E+03  0.7546771E-02  0.1027790E+00
         21   -1    0    0  502  501  0.00000000000E+00  0.00000000000E+00  0.49325787435E+02  0.49325787435E+02  0.00000000000E+00 0. -1.
         21   -1    0    0  501  502 -0.00000000000E+00 -0.00000000000E+00 -0.10253022682E+04  0.10253022682E+04  0.00000000000E+00 0. -1.
      99926    2    1    2    0    0  0.00000000000E+00  0.35527136788E-14 -0.97597648075E+03  0.10746280556E+04  0.44977257247E+03 0.  0.
      99925    2    3    3    0    0 -0.10558326364E+03 -0.21679501563E+02 -0.59391267032E+03  0.65840925536E+03  0.26296893586E+03 0.  0.
         25    1    3    3    0    0  0.10558326364E+03  0.21679501563E+02 -0.38206381042E+03  0.41621880025E+03  0.12509000000E+03 0.  0.
         25    1    4    4    0    0 -0.75414432046E+02 -0.36532223844E+02 -0.37422519473E+03  0.40337816551E+03  0.12509000000E+03 0.  0.
         25    1    4    4    0    0 -0.30168831595E+02  0.14852722281E+02 -0.21968747560E+03  0.25503108986E+03  0.12509000000E+03 0.  0.
<mgrwt>
<rscale>  2 0.44977257E+03</rscale>
<asrwt>0</asrwt>
<pdfrwt beam="1">  1       21 0.72537927E-02 0.44977257E+03</pdfrwt>
<pdfrwt beam="2">  1       21 0.15077974E+00 0.44977257E+03</pdfrwt>
<totfact> 0.37909389E+04</totfact>
</mgrwt>
</event>
<event>
 7    0  0.4707675E-002  0.4465972E+03  0.7546771E-02  0.1028742E+00
         21   -1    0    0  502  501  0.00000000000E+00  0.00000000000E+00  0.14371322356E+04  0.14371322356E+04  0.00000000000E+00 0. -1.
         21   -1    0    0  501  502 -0.00000000000E+00 -0.00000000000E+00 -0.34695676619E+02  0.34695676619E+02  0.00000000000E+00 0. -1.
      99926    2    1    2    0    0  0.00000000000E+00  0.17763568394E-14  0.14024365589E+04  0.14718279122E+04  0.44659724721E+03 0.  0.
      99925    2    3    3    0    0  0.87445642372E+02 -0.12353749120E+02  0.70185825112E+03  0.75471088618E+03  0.26302882269E+03 0.  0.
         25    1    4    4    0    0  0.47406879795E+02  0.23480272900E+02  0.27576386122E+03  0.30739543055E+03  0.12509000000E+03 0.  0.
         25    1    4    4    0    0  0.40038762577E+02 -0.35834022021E+02  0.42609438990E+03  0.44731545563E+03  0.12509000000E+03 0.  0.
         25    1    3    3    0    0 -0.87445642372E+02  0.12353749120E+02  0.70057830781E+03  0.71711702599E+03  0.12509000000E+03 0.  0.
<mgrwt>
<rscale>  2 0.44659725E+03</rscale>
<asrwt>0</asrwt>
<pdfrwt beam="1">  1       21 0.21134294E+00 0.44659725E+03</pdfrwt>
<pdfrwt beam="2">  1       21 0.51023063E-02 0.44659725E+03</pdfrwt>
<totfact> 0.26143398E+04</totfact>
</mgrwt>
</event>
<event>
 7    0  0.4707675E-002  0.4449423E+03  0.7546771E-02  0.1029241E+00
         21   -1    0    0  502  501  0.00000000000E+00  0.00000000000E+00  0.13810675100E+04  0.13810675100E+04  0.00000000000E+00 0.  1.
         21   -1    0    0  501  502 -0.00000000000E+00 -0.00000000000E+00 -0.35837064475E+02  0.35837064475E+02  0.00000000000E+00 0.  1.
      99926    2    1    2    0    0  0.00000000000E+00  0.00000000000E+00  0.13452304456E+04  0.14169045745E+04  0.44494226772E+03 0.  0.
      99925    2    3    3    0    0 -0.54062346715E+02  0.70145411331E+02  0.10248982113E+04  0.10617942192E+04  0.26295913042E+03 0.  0.
         25    1    3    3    0    0  0.54062346715E+02 -0.70145411331E+02  0.32033223425E+03  0.35511035533E+03  0.12509000000E+03 0.  0.
         25    1    4    4    0    0 -0.38983715640E+02  0.12126057656E+02  0.37970734158E+03  0.40186060358E+03  0.12509000000E+03 0.  0.
         25    1    4    4    0    0 -0.15078631075E+02  0.58019353675E+02  0.64519086974E+03  0.65993361561E+03  0.12509000000E+03 0.  0.
<mgrwt>
<rscale>  2 0.44494227E+03</rscale>
<asrwt>0</asrwt>
<pdfrwt beam="1">  1       21 0.20309813E+00 0.44494227E+03</pdfrwt>
<pdfrwt beam="2">  1       21 0.52701575E-02 0.44494227E+03</pdfrwt>
<totfact> 0.28011110E+04</totfact>
</mgrwt>
</event>
<event>
 7    0  0.4707675E-002  0.4782186E+03  0.7546771E-02  0.1019626E+00
         21   -1    0    0  502  501  0.00000000000E+00  0.00000000000E+00  0.49103811939E+02  0.49103811939E+02  0.00000000000E+00 0. -1.
         21   -1    0    0  501  502 -0.00000000000E+00 -0.00000000000E+00 -0.11643343171E+04  0.11643343171E+04  0.00000000000E+00 0. -1.
      99926    2    1    2    0    0  0.00000000000E+00  0.35527136788E-14 -0.11152305052E+04  0.12134381291E+04  0.47821858326E+03 0.  0.
      99925    2    3    3    0    0  0.10785387468E+03 -0.28067278263E+02 -0.49987623568E+03  0.57568534351E+03  0.26290137568E+03 0.  0.
         25    1    4    4    0    0  0.73532143742E+02 -0.27218524710E+02 -0.33351706071E+03  0.36473135612E+03  0.12509000000E+03 0.  0.
         25    1    4    4    0    0  0.34321730940E+02 -0.84875355378E+00 -0.16635917497E+03  0.21095398739E+03  0.12509000000E+03 0.  0.
         25    1    3    3    0    0 -0.10785387468E+03  0.28067278263E+02 -0.61535426952E+03  0.63775278558E+03  0.12509000000E+03 0.  0.
<mgrwt>
<rscale>  2 0.47821858E+03</rscale>
<asrwt>0</asrwt>
<pdfrwt beam="1">  1       21 0.72211502E-02 0.47821858E+03</pdfrwt>
<pdfrwt beam="2">  1       21 0.17122560E+00 0.47821858E+03</pdfrwt>
<totfact> 0.26588802E+04</totfact>
</mgrwt>
</event>
<event>
 7    0  0.4707675E-002  0.4528011E+03  0.7546771E-02  0.1026890E+00
         21   -1    0    0  502  501  0.00000000000E+00  0.00000000000E+00  0.20282051328E+03  0.20282051328E+03  0.00000000000E+00 0.  1.
         21   -1    0    0  501  502 -0.00000000000E+00 -0.00000000000E+00 -0.25272202480E+03  0.25272202480E+03  0.00000000000E+00 0.  1.
      99926    2    1    2    0    0  0.00000000000E+00  0.00000000000E+00 -0.49901511520E+02  0.45554253809E+03  0.45280110772E+03 0.  0.
      99925    2    3    3    0    0 -0.17138662531E+02 -0.99906303672E+02  0.14559253402E+02  0.28211329724E+03  0.26287057149E+03 0.  0.
         25    1    4    4    0    0 -0.44395777594E+01 -0.47528750788E+02  0.47350968787E+02  0.14201519055E+03  0.12509000000E+03 0.  0.
         25    1    4    4    0    0 -0.12699084771E+02 -0.52377552884E+02 -0.32791715385E+02  0.14009810669E+03  0.12509000000E+03 0.  0.
         25    1    3    3    0    0  0.17138662531E+02  0.99906303672E+02 -0.64460764922E+02  0.17342924085E+03  0.12509000000E+03 0.  0.
<mgrwt>
<rscale>  2 0.45280111E+03</rscale>
<asrwt>0</asrwt>
<pdfrwt beam="1">  1       21 0.29826546E-01 0.45280111E+03</pdfrwt>
<pdfrwt beam="2">  1       21 0.37165004E-01 0.45280111E+03</pdfrwt>
<totfact> 0.69721180E+04</totfact>
</mgrwt>
</event>
<event>
 7    0  0.4707675E-002  0.4741359E+03  0.7546771E-02  0.1020759E+00
         21   -1    0    0  502  501  0.00000000000E+00  0.00000000000E+00  0.69303065079E+02  0.69303065079E+02  0.00000000000E+00 0. -1.
         21   -1    0    0  501  502 -0.00000000000E+00 -0.00000000000E+00 -0.81094857518E+03  0.81094857518E+03  0.00000000000E+00 0. -1.
      99926    2    1    2    0    0  0.14210854715E-13  0.00000000000E+00 -0.74164551010E+03  0.88025164025E+03  0.47413593781E+03 0.  0.
      99925    2    3    3    0    0  0.98922238370E+02 -0.78499867585E+02 -0.51699902929E+03  0.59378805113E+03  0.26334087211E+03 0.  0.
         25    1    4    4    0    0  0.54081897559E+02 -0.38386111139E+01 -0.28885027987E+03  0.31940816968E+03  0.12509000000E+03 0.  0.
         25    1    4    4    0    0  0.44840340810E+02 -0.74661256471E+02 -0.22814874942E+03  0.27437988145E+03  0.12509000000E+03 0.  0.
         25    1    3    3    0    0 -0.98922238370E+02  0.78499867585E+02 -0.22464648080E+03  0.28646358912E+03  0.12509000000E+03 0.  0.
<mgrwt>
<rscale>  2 0.47413594E+03</rscale>
<asrwt>0</asrwt>
<pdfrwt beam="1">  1       21 0.10191627E-01 0.47413594E+03</pdfrwt>
<pdfrwt beam="2">  1       21 0.11925715E+00 0.47413594E+03</pdfrwt>
<totfact> 0.38064857E+04</totfact>
</mgrwt>
</event>
<event>
 7    0  0.4707675E-002  0.4531324E+03  0.7546771E-02  0.1026792E+00
         21   -1    0    0  502  501  0.00000000000E+00  0.00000000000E+00  0.64430377344E+02  0.64430377344E+02  0.00000000000E+00 0.  1.
         21   -1    0    0  501  502 -0.00000000000E+00 -0.00000000000E+00 -0.79670881167E+03  0.79670881167E+03  0.00000000000E+00 0.  1.
      99926    2    1    2    0    0  0.00000000000E+00  0.00000000000E+00 -0.73227843433E+03  0.86113918902E+03  0.45313242819E+03 0.  0.
      99925    2    3    3    0    0  0.76809431702E+02 -0.79788508214E+02 -0.48626625749E+03  0.56375829842E+03  0.26287383099E+03 0.  0.
         25    1    4    4    0    0  0.56484950031E+02 -0.37929050940E+01 -0.24415935669E+03  0.28011825229E+03  0.12509000000E+03 0.  0.
         25    1    4    4    0    0  0.20324481672E+02 -0.75995603120E+02 -0.24210690081E+03  0.28364004613E+03  0.12509000000E+03 0.  0.
         25    1    3    3    0    0 -0.76809431702E+02  0.79788508214E+02 -0.24601217683E+03  0.29738089060E+03  0.12509000000E+03 0.  0.
<mgrwt>
<rscale>  2 0.45313243E+03</rscale>
<asrwt>0</asrwt>
<pdfrwt beam="1">  1       21 0.94750562E-02 0.45313243E+03</pdfrwt>
<pdfrwt beam="2">  1       21 0.11716305E+00 0.45313243E+03</pdfrwt>
<totfact> 0.45609512E+04</totfact>
</mgrwt>
</event>
<event>
 7    0  0.4707675E-002  0.4505143E+03  0.7546771E-02  0.1027569E+00
         21   -1    0    0  502  501  0.00000000000E+00  0.00000000000E+00  0.43102634608E+03  0.43102634608E+03  0.00000000000E+00 0.  1.
         21   -1    0    0  501  502 -0.00000000000E+00 -0.00000000000E+00 -0.11772082022E+03  0.11772082022E+03  0.00000000000E+00 0.  1.
      99926    2    1    2    0    0  0.00000000000E+00  0.00000000000E+00  0.31330552587E+03  0.54874716630E+03  0.45051426169E+03 0.  0.
      99925    2    3    3    0    0 -0.71698588835E+02 -0.72524006163E+02  0.24443286002E+03  0.37327246353E+03  0.26302944676E+03 0.  0.
         25    1    4    4    0    0 -0.60481996126E+01 -0.63233363859E+02  0.11400738548E+03  0.18077674372E+03  0.12509000000E+03 0.  0.
         25    1    4    4    0    0 -0.65650389222E+02 -0.92906423037E+01  0.13042547453E+03  0.19249571981E+03  0.12509000000E+03 0.  0.
         25    1    3    3    0    0  0.71698588835E+02  0.72524006163E+02  0.68872665849E+02  0.17547470277E+03  0.12509000000E+03 0.  0.
<mgrwt>
<rscale>  2 0.45051426E+03</rscale>
<asrwt>0</asrwt>
<pdfrwt beam="1">  1       21 0.63386227E-01 0.45051426E+03</pdfrwt>
<pdfrwt beam="2">  1       21 0.17311885E-01 0.45051426E+03</pdfrwt>
<totfact> 0.64197694E+04</totfact>
</mgrwt>
</event>
<event>
 6    0  0.4707675E-002  0.4087710E+03  0.7546771E-02  0.1040784E+00
         21   -1    0    0  502  501  0.00000000000E+00  0.00000000000E+00  0.97525644796E+03  0.97525644796E+03  0.00000000000E+00 0.  1.
         21   -1    0    0  501  502 -0.00000000000E+00 -0.00000000000E+00 -0.42833275375E+02  0.42833275375E+02  0.00000000000E+00 0.  1.
      99926    2    1    2    0    0  0.00000000000E+00 -0.44408920985E-15  0.93242317258E+03  0.10180897233E+04  0.40877097743E+03 0.  0.
         25    1    3    3    0    0  0.24541316604E+01  0.26205260154E+01  0.31894022819E+03  0.34261241539E+03  0.12509000000E+03 0.  0.
         25    1    3    3    0    0 -0.12259803044E+02 -0.10041946199E+02  0.15359049407E+03  0.19871761729E+03  0.12509000000E+03 0.  0.
         25    1    3    3    0    0  0.98056713841E+01  0.74214201834E+01  0.45989245032E+03  0.47675969065E+03  0.12509000000E+03 0.  0.
<mgrwt>
<rscale>  2 0.40877098E+03</rscale>
<asrwt>0</asrwt>
<pdfrwt beam="1">  1       21 0.14342005E+00 0.40877098E+03</pdfrwt>
<pdfrwt beam="2">  1       21 0.62990117E-02 0.40877098E+03</pdfrwt>
<totfact> 0.56167549E+04</totfact>
</mgrwt>
</event>
<event>
 7    0  0.4707675E-002  0.4537688E+03  0.7546771E-02  0.1026604E+00
         21   -1    0    0  502  501  0.00000000000E+00  0.00000000000E+00  0.27496800060E+03  0.27496800060E+03  0.00000000000E+00 0.  1.
         21   -1    0    0  501  502 -0.00000000000E+00 -0.00000000000E+00 -0.18720914482E+03  0.18720914482E+03  0.00000000000E+00 0.  1.
      99926    2    1    2    0    0  0.00000000000E+00 -0.17763568394E-14  0.87758855782E+02  0.46217714543E+03  0.45376877040E+03 0.  0.
      99925    2    3    3    0    0 -0.11188683068E+03 -0.31437619680E+01  0.63458856572E+02  0.29257011674E+03  0.26275787450E+03 0.  0.
         25    1    4    4    0    0 -0.87649669145E+02  0.20068120652E+02  0.51813600233E+02  0.16253415406E+03  0.12509000000E+03 0.  0.
         25    1    4    4    0    0 -0.24237161534E+02 -0.23211882620E+02  0.11645256339E+02  0.13003596268E+03  0.12509000000E+03 0.  0.
         25    1    3    3    0    0  0.11188683068E+03  0.31437619680E+01  0.24299999211E+02  0.16960702869E+03  0.12509000000E+03 0.  0.
<mgrwt>
<rscale>  2 0.45376877E+03</rscale>
<asrwt>0</asrwt>
<pdfrwt beam="1">  1       21 0.40436471E-01 0.45376877E+03</pdfrwt>
<pdfrwt beam="2">  1       21 0.27530756E-01 0.45376877E+03</pdfrwt>
<totfact> 0.68690089E+04</totfact>
</mgrwt>
</event>
<event>
 7    0  0.4707675E-002  0.4541796E+03  0.7546771E-02  0.1026483E+00
         21   -1    0    0  502  501  0.00000000000E+00  0.00000000000E+00  0.20515413405E+04  0.20515413405E+04  0.00000000000E+00 0.  1.
         21   -1    0    0  501  502 -0.00000000000E+00 -0.00000000000E+00 -0.25137092597E+02  0.25137092597E+02  0.00000000000E+00 0.  1.
      99926    2    1    2    0    0  0.00000000000E+00  0.00000000000E+00  0.20264042479E+04  0.20766784331E+04  0.45417963249E+03 0.  0.
      99925    2    3    3    0    0  0.67691603785E+02  0.78009508742E+02  0.10748553532E+04  0.11114010410E+04  0.26311709722E+03 0.  0.
         25    1    4    4    0    0 -0.37023987789E+01  0.17518669141E+02  0.49389313736E+03  0.50980246249E+03  0.12509000000E+03 0.  0.
         25    1    3    3    0    0 -0.67691603785E+02 -0.78009508742E+02  0.95154889469E+03  0.96527739214E+03  0.12509000000E+03 0.  0.
         25    1    4    4    0    0  0.71394002564E+02  0.60490839601E+02  0.58096221585E+03  0.60159857847E+03  0.12509000000E+03 0.  0.
<mgrwt>
<rscale>  2 0.45417963E+03</rscale>
<asrwt>0</asrwt>
<pdfrwt beam="1">  1       21 0.30169714E+00 0.45417963E+03</pdfrwt>
<pdfrwt beam="2">  1       21 0.36966327E-02 0.45417963E+03</pdfrwt>
<totfact> 0.12578067E+04</totfact>
</mgrwt>
</event>
<event>
 7    0  0.4707675E-002  0.4464367E+03  0.7546771E-02  0.1028790E+00
         21   -1    0    0  502  501  0.00000000000E+00  0.00000000000E+00  0.12121031385E+03  0.12121031385E+03  0.00000000000E+00 0. -1.
         21   -1    0    0  501  502 -0.00000000000E+00 -0.00000000000E+00 -0.41107420589E+03  0.41107420589E+03  0.00000000000E+00 0. -1.
      99926    2    1    2    0    0 -0.71054273576E-14  0.00000000000E+00 -0.28986389204E+03  0.53228451973E+03  0.44643670777E+03 0.  0.
      99925    2    3    3    0    0  0.59190488147E+02 -0.85117090819E+02 -0.16498441538E+03  0.32736789077E+03  0.26306167633E+03 0.  0.
         25    1    4    4    0    0  0.36424267945E+02 -0.40101363034E+01 -0.93874264139E+02  0.16063217005E+03  0.12509000000E+03 0.  0.
         25    1    3    3    0    0 -0.59190488147E+02  0.85117090819E+02 -0.12487947666E+03  0.20491662897E+03  0.12509000000E+03 0.  0.
         25    1    4    4    0    0  0.22766220202E+02 -0.81106954515E+02 -0.71110151238E+02  0.16673572071E+03  0.12509000000E+03 0.  0.
<mgrwt>
<rscale>  2 0.44643671E+03</rscale>
<asrwt>0</asrwt>
<pdfrwt beam="1">  1       21 0.17825046E-01 0.44643671E+03</pdfrwt>
<pdfrwt beam="2">  1       21 0.60452089E-01 0.44643671E+03</pdfrwt>
<totfact> 0.67513692E+04</totfact>
</mgrwt>
</event>
<event>
 7    0  0.4707675E-002  0.4579199E+03  0.7546771E-02  0.1025386E+00
         21   -1    0    0  502  501  0.00000000000E+00  0.00000000000E+00  0.12690865203E+04  0.12690865203E+04  0.00000000000E+00 0.  1.
         21   -1    0    0  501  502 -0.00000000000E+00 -0.00000000000E+00 -0.41307401777E+02  0.41307401777E+02  0.00000000000E+00 0.  1.
      99926    2    1    2    0    0 -0.35527136788E-14  0.00000000000E+00  0.12277791185E+04  0.13103939221E+04  0.45791993529E+03 0.  0.
      99925    2    3    3    0    0  0.15238667430E+02 -0.11477263282E+03  0.76028721619E+03  0.81279854321E+03  0.26305863700E+03 0.  0.
         25    1    4    4    0    0 -0.14379920619E+02 -0.89939496940E+02  0.45605315572E+03  0.48158891616E+03  0.12509000000E+03 0.  0.
         25    1    3    3    0    0 -0.15238667430E+02  0.11477263282E+03  0.46749190235E+03  0.49759537889E+03  0.12509000000E+03 0.  0.
         25    1    4    4    0    0  0.29618588049E+02 -0.24833135882E+02  0.30423406047E+03  0.33120962704E+03  0.12509000000E+03 0.  0.
<mgrwt>
<rscale>  2 0.45791994E+03</rscale>
<asrwt>0</asrwt>
<pdfrwt beam="1">  1       21 0.18663034E+00 0.45791994E+03</pdfrwt>
<pdfrwt beam="2">  1       21 0.60746187E-02 0.45791994E+03</pdfrwt>
<totfact> 0.28169227E+04</totfact>
</mgrwt>
</event>
<event>
 7    0  0.4707675E-002  0.4528594E+03  0.7546771E-02  0.1026873E+00
         21   -1    0    0  502  501  0.00000000000E+00  0.00000000000E+00  0.19009337298E+03  0.19009337298E+03  0.00000000000E+00 0.  1.
         21   -1    0    0  501  502 -0.00000000000E+00 -0.00000000000E+00 -0.26971171820E+03  0.26971171820E+03  0.00000000000E+00 0.  1.
      99926    2    1    2    0    0 -0.17763568394E-14  0.00000000000E+00 -0.79618345219E+02  0.45980509118E+03  0.45285940532E+03 0.  0.
      99925    2    3    3    0    0 -0.55084801380E+01  0.95290257790E+02 -0.10795542633E+03  0.29992677856E+03  0.26304205336E+03 0.  0.
         25    1    3    3    0    0  0.55084801380E+01 -0.95290257790E+02  0.28337081108E+02  0.15987831263E+03  0.12509000000E+03 0.  0.
         25    1    4    4    0    0 -0.30715648772E+02  0.70016147659E+02 -0.79476264788E+02  0.16676239617E+03  0.12509000000E+03 0.  0.
         25    1    4    4    0    0  0.25207168634E+02  0.25274110130E+02 -0.28479161539E+02  0.13316438238E+03  0.12509000000E+03 0.  0.
<mgrwt>
<rscale>  2 0.45285941E+03</rscale>
<asrwt>0</asrwt>
<pdfrwt beam="1">  1       21 0.27954908E-01 0.45285941E+03</pdfrwt>
<pdfrwt beam="2">  1       21 0.39663488E-01 0.45285941E+03</pdfrwt>
<totfact> 0.69370413E+04</totfact>
</mgrwt>
</event>
<event>
 7    0  0.4707675E-002  0.4444881E+03  0.7546771E-02  0.1029379E+00
         21   -1    0    0  502  501  0.00000000000E+00  0.00000000000E+00  0.35931346451E+03  0.35931346451E+03  0.00000000000E+00 0.  1.
         21   -1    0    0  501  502 -0.00000000000E+00 -0.00000000000E+00 -0.13746328706E+03  0.13746328706E+03  0.00000000000E+00 0.  1.
      99926    2    1    2    0    0  0.00000000000E+00  0.14210854715E-13  0.22185017745E+03  0.49677675157E+03  0.44448806470E+03 0.  0.
      99925    2    3    3    0    0 -0.29925955714E+02  0.95595514800E+02  0.11471715375E+03  0.30400990239E+03  0.26311201058E+03 0.  0.
         25    1    4    4    0    0 -0.51708477000E+02  0.30144486214E+02  0.58021626536E+02  0.15032123565E+03  0.12509000000E+03 0.  0.
         25    1    3    3    0    0  0.29925955714E+02 -0.95595514800E+02  0.10713302370E+03  0.19276684918E+03  0.12509000000E+03 0.  0.
         25    1    4    4    0    0  0.21782521286E+02  0.65451028586E+02  0.56695527214E+02  0.15368866673E+03  0.12509000000E+03 0.  0.
<mgrwt>
<rscale>  2 0.44448806E+03</rscale>
<asrwt>0</asrwt>
<pdfrwt beam="1">  1       21 0.52840215E-01 0.44448806E+03</pdfrwt>
<pdfrwt beam="2">  1       21 0.20215189E-01 0.44448806E+03</pdfrwt>
<totfact> 0.71260607E+04</totfact>
</mgrwt>
</event>
<event>
 7    0  0.4707675E-002  0.4489004E+03  0.7546771E-02  0.1028050E+00
         21   -1    0    0  502  501  0.00000000000E+00  0.00000000000E+00  0.74428860376E+02  0.74428860376E+02  0.00000000000E+00 0.  1.
         21   -1    0    0  501  502 -0.00000000000E+00 -0.00000000000E+00 -0.67685970720E+03  0.67685970720E+03  0.00000000000E+00 0.  1.
      99926    2    1    2    0    0  0.35527136788E-14  0.00000000000E+00 -0.60243084683E+03  0.75128856758E+03  0.44890041943E+03 0.  0.
      99925    2    3    3    0    0  0.27943425543E+02  0.10081113496E+03 -0.34099344131E+03  0.44316400662E+03  0.26300967622E+03 0.  0.
         25    1    4    4    0    0  0.52723200123E+02  0.59086698843E+02 -0.16190755581E+03  0.21939129093E+03  0.12509000000E+03 0.  0.
         25    1    4    4    0    0 -0.24779774580E+02  0.41724436119E+02 -0.17908588551E+03  0.22377271569E+03  0.12509000000E+03 0.  0.
         25    1    3    3    0    0 -0.27943425543E+02 -0.10081113496E+03 -0.26143740551E+03  0.30812456096E+03  0.12509000000E+03 0.  0.
<mgrwt>
<rscale>  2 0.44890042E+03</rscale>
<asrwt>0</asrwt>
<pdfrwt beam="1">  1       21 0.10945421E-01 0.44890042E+03</pdfrwt>
<pdfrwt beam="2">  1       21 0.99538193E-01 0.44890042E+03</pdfrwt>
<totfact> 0.52685780E+04</totfact>
</mgrwt>
</event>
<event>
 7    0  0.4707675E-002  0.4480519E+03  0.7546771E-02  0.1028305E+00
         21   -1    0    0  502  501  0.00000000000E+00  0.00000000000E+00  0.60313565454E+03  0.60313565454E+03  0.00000000000E+00 0. -1.
         21   -1    0    0  501  502 -0.00000000000E+00 -0.00000000000E+00 -0.83211172155E+02  0.83211172155E+02  0.00000000000E+00 0. -1.
      99926    2    1    2    0    0  0.00000000000E+00  0.00000000000E+00  0.51992448239E+03  0.68634682670E+03  0.44805189335E+03 0.  0.
      99925    2    3    3    0    0 -0.70599862214E+02 -0.77999211027E+02  0.30374558529E+03  0.41533199110E+03  0.26300392541E+03 0.  0.
         25    1    4    4    0    0 -0.21802004253E+02 -0.76200256572E+02  0.17574051378E+03  0.22981306050E+03  0.12509000000E+03 0.  0.
         25    1    3    3    0    0  0.70599862214E+02  0.77999211027E+02  0.21617889710E+03  0.27101483560E+03  0.12509000000E+03 0.  0.
         25    1    4    4    0    0 -0.48797857961E+02 -0.17989544557E+01  0.12800507151E+03  0.18551893060E+03  0.12509000000E+03 0.  0.
<mgrwt>
<rscale>  2 0.44805189E+03</rscale>
<asrwt>0</asrwt>
<pdfrwt beam="1">  1       21 0.88696418E-01 0.44805189E+03</pdfrwt>
<pdfrwt beam="2">  1       21 0.12236937E-01 0.44805189E+03</pdfrwt>
<totfact> 0.56688501E+04</totfact>
</mgrwt>
</event>
<event>
 7    0  0.4707675E-002  0.4458705E+03  0.7546771E-02  0.1028961E+00
         21   -1    0    0  502  501  0.00000000000E+00  0.00000000000E+00  0.35495109942E+03  0.35495109942E+03  0.00000000000E+00 0.  1.
         21   -1    0    0  501  502 -0.00000000000E+00 -0.00000000000E+00 -0.14001965540E+03  0.14001965540E+03  0.00000000000E+00 0.  1.
      99926    2    1    2    0    0  0.00000000000E+00  0.00000000000E+00  0.21493144402E+03  0.49497075482E+03  0.44587052213E+03 0.  0.
      99925    2    3    3    0    0 -0.10040328001E+03 -0.28585587082E+02  0.13769304781E+03  0.31466204074E+03  0.26297313558E+03 0.  0.
         25    1    3    3    0    0  0.10040328001E+03  0.28585587082E+02  0.77238396207E+02  0.18030871408E+03  0.12509000000E+03 0.  0.
         25    1    4    4    0    0 -0.46615483989E+02 -0.25958823904E+02  0.11176220900E+03  0.17602603031E+03  0.12509000000E+03 0.  0.
         25    1    4    4    0    0 -0.53787796024E+02 -0.26267631777E+01  0.25930838810E+02  0.13863601043E+03  0.12509000000E+03 0.  0.
<mgrwt>
<rscale>  2 0.44587052E+03</rscale>
<asrwt>0</asrwt>
<pdfrwt beam="1">  1       21 0.52198691E-01 0.44587052E+03</pdfrwt>
<pdfrwt beam="2">  1       21 0.20591126E-01 0.44587052E+03</pdfrwt>
<totfact> 0.70605112E+04</totfact>
</mgrwt>
</event>
<event>
 7    0  0.4707675E-002  0.4559534E+03  0.7546771E-02  0.1025961E+00
         21   -1    0    0  502  501  0.00000000000E+00  0.00000000000E+00  0.96327703484E+03  0.96327703484E+03  0.00000000000E+00 0.  1.
         21   -1    0    0  501  502 -0.00000000000E+00 -0.00000000000E+00 -0.53954764629E+02  0.53954764629E+02  0.00000000000E+00 0.  1.
      99926    2    1    2    0    0  0.00000000000E+00  0.00000000000E+00  0.90932227021E+03  0.10172317995E+04  0.45595344362E+03 0.  0.
      99925    2    3    3    0    0  0.75059021158E+02 -0.37436285167E+02  0.74411576311E+03  0.79367860626E+03  0.26302495894E+03 0.  0.
         25    1    4    4    0    0  0.68405059279E+02 -0.46347065576E+02  0.37926673067E+03  0.40782111730E+03  0.12509000000E+03 0.  0.
         25    1    4    4    0    0  0.66539618795E+01  0.89107804094E+01  0.36484903244E+03  0.38585748896E+03  0.12509000000E+03 0.  0.
         25    1    3    3    0    0 -0.75059021158E+02  0.37436285167E+02  0.16520650710E+03  0.22355319321E+03  0.12509000000E+03 0.  0.
<mgrwt>
<rscale>  2 0.45595344E+03</rscale>
<asrwt>0</asrwt>
<pdfrwt beam="1">  1       21 0.14165838E+00 0.45595344E+03</pdfrwt>
<pdfrwt beam="2">  1       21 0.79345248E-02 0.45595344E+03</pdfrwt>
<totfact> 0.38217851E+04</totfact>
</mgrwt>
</event>
<event>
 7    0  0.4707675E-002  0.4536024E+03  0.7546771E-02  0.1026653E+00
         21   -1    0    0  502  501  0.00000000000E+00  0.00000000000E+00  0.18720276574E+04  0.18720276574E+04  0.00000000000E+00 0. -1.
         21   -1    0    0  501  502 -0.00000000000E+00 -0.00000000000E+00 -0.27477583116E+02  0.27477583116E+02  0.00000000000E+00 0. -1.
      99926    2    1    2    0    0  0.00000000000E+00  0.35527136788E-14  0.18445500743E+04  0.18995052405E+04  0.45360244952E+03 0.  0.
      99925    2    3    3    0    0  0.41951765138E+02 -0.18866277827E+02  0.73494038108E+03  0.78191986732E+03  0.26295518273E+03 0.  0.
         25    1    4    4    0    0  0.31962452271E+02 -0.40102310958E+02  0.44950206795E+03  0.46939259783E+03  0.12509000000E+03 0.  0.
         25    1    3    3    0    0 -0.41951765138E+02  0.18866277827E+02  0.11096096932E+04  0.11175853732E+04  0.12509000000E+03 0.  0.
         25    1    4    4    0    0  0.99893128665E+01  0.21236033131E+02  0.28543831313E+03  0.31252726949E+03  0.12509000000E+03 0.  0.
<mgrwt>
<rscale>  2 0.45360245E+03</rscale>
<asrwt>0</asrwt>
<pdfrwt beam="1">  1       21 0.27529810E+00 0.45360245E+03</pdfrwt>
<pdfrwt beam="2">  1       21 0.40408223E-02 0.45360245E+03</pdfrwt>
<totfact> 0.15589052E+04</totfact>
</mgrwt>
</event>
<event>
 7    0  0.4707675E-002  0.4428703E+03  0.7546771E-02  0.1029870E+00
         21   -1    0    0  502  501  0.00000000000E+00  0.00000000000E+00  0.20351349365E+04  0.20351349365E+04  0.00000000000E+00 0. -1.
         21   -1    0    0  501  502 -0.00000000000E+00 -0.00000000000E+00 -0.24093502825E+02  0.24093502825E+02  0.00000000000E+00 0. -1.
      99926    2    1    2    0    0  0.00000000000E+00 -0.71054273576E-14  0.20110414337E+04  0.20592284393E+04  0.44287031665E+03 0.  0.
      99925    2    3    3    0    0 -0.69496173353E+02 -0.61973100405E+02  0.14648790027E+04  0.14912396257E+04  0.26316296367E+03 0.  0.
         25    1    4    4    0    0 -0.26171493407E+02 -0.55348730499E+02  0.57985874640E+03  0.59634897745E+03  0.12509000000E+03 0.  0.
         25    1    4    4    0    0 -0.43324679946E+02 -0.66243699061E+01  0.88502025634E+03  0.89489064829E+03  0.12509000000E+03 0.  0.
         25    1    3    3    0    0  0.69496173353E+02  0.61973100405E+02  0.54616243095E+03  0.56798881359E+03  0.12509000000E+03 0.  0.
<mgrwt>
<rscale>  2 0.44287032E+03</rscale>
<asrwt>0</asrwt>
<pdfrwt beam="1">  1       21 0.29928443E+00 0.44287032E+03</pdfrwt>
<pdfrwt beam="2">  1       21 0.35431636E-02 0.44287032E+03</pdfrwt>
<totfact> 0.14043487E+04</totfact>
</mgrwt>
</event>
<event>
 7    0  0.4707675E-002  0.4569503E+03  0.7546771E-02  0.1025669E+00
         21   -1    0    0  502  501  0.00000000000E+00  0.00000000000E+00  0.14925317204E+04  0.14925317204E+04  0.00000000000E+00 0. -1.
         21   -1    0    0  501  502 -0.00000000000E+00 -0.00000000000E+00 -0.34974729279E+02  0.34974729279E+02  0.00000000000E+00 0. -1.
      99926    2    1    2    0    0  0.14210854715E-13  0.35527136788E-14  0.14575569911E+04  0.15275064497E+04  0.45695029428E+03 0.  0.
      99925    2    3    3    0    0  0.10519481559E+03 -0.28509508595E+02  0.79246259977E+03  0.84203084923E+03  0.26294531316E+03 0.  0.
         25    1    4    4    0    0  0.25346716717E+02 -0.36726751067E+02  0.31162685433E+03  0.33874786307E+03  0.12509000000E+03 0.  0.
         25    1    4    4    0    0  0.79848098870E+02  0.82172424720E+01  0.48083574544E+03  0.50328298616E+03  0.12509000000E+03 0.  0.
         25    1    3    3    0    0 -0.10519481559E+03  0.28509508595E+02  0.66509439133E+03  0.68547560043E+03  0.12509000000E+03 0.  0.
<mgrwt>
<rscale>  2 0.45695029E+03</rscale>
<asrwt>0</asrwt>
<pdfrwt beam="1">  1       21 0.21948992E+00 0.45695029E+03</pdfrwt>
<pdfrwt beam="2">  1       21 0.51433435E-02 0.45695029E+03</pdfrwt>
<totfact> 0.22766165E+04</totfact>
</mgrwt>
</event>
<event>
 7    0  0.4707675E-002  0.4694907E+03  0.7546771E-02  0.1022064E+00
         21   -1    0    0  502  501  0.00000000000E+00  0.00000000000E+00  0.12421569480E+03  0.12421569480E+03  0.00000000000E+00 0.  1.
         21   -1    0    0  501  502 -0.00000000000E+00 -0.00000000000E+00 -0.44362652044E+03  0.44362652044E+03  0.00000000000E+00 0.  1.
      99926    2    1    2    0    0  0.11102230246E-14  0.00000000000E+00 -0.31941082564E+03  0.56784221524E+03  0.46949068773E+03 0.  0.
      99925    2    3    3    0    0  0.16178692408E+01 -0.12505107707E+03 -0.17650621360E+03  0.34044470949E+03  0.26288356245E+03 0.  0.
         25    1    3    3    0    0 -0.16178692408E+01  0.12505107707E+03 -0.14290461204E+03  0.22739750574E+03  0.12509000000E+03 0.  0.
         25    1    4    4    0    0 -0.13151123159E+02 -0.95032992621E+02 -0.68736491233E+02  0.17197800747E+03  0.12509000000E+03 0.  0.
         25    1    4    4    0    0  0.14768992400E+02 -0.30018084447E+02 -0.10776972237E+03  0.16846670202E+03  0.12509000000E+03 0.  0.
<mgrwt>
<rscale>  2 0.46949069E+03</rscale>
<asrwt>0</asrwt>
<pdfrwt beam="1">  1       21 0.18267014E-01 0.46949069E+03</pdfrwt>
<pdfrwt beam="2">  1       21 0.65239194E-01 0.46949069E+03</pdfrwt>
<totfact> 0.54216970E+04</totfact>
</mgrwt>
</event>
<event>
 7    0  0.4707675E-002  0.4512188E+03  0.7546771E-02  0.1027359E+00
         21   -1    0    0  502  501  0.00000000000E+00  0.00000000000E+00  0.23102688230E+03  0.23102688230E+03  0.00000000000E+00 0. -1.
         21   -1    0    0  501  502 -0.00000000000E+00 -0.00000000000E+00 -0.22031892012E+03  0.22031892012E+03  0.00000000000E+00 0. -1.
      99926    2    1    2    0    0 -0.14210854715E-13  0.88817841970E-15  0.10707962176E+02  0.45134580242E+03  0.45121876391E+03 0.  0.
      99925    2    3    3    0    0 -0.91200205108E+02 -0.65656906551E+01 -0.53865574942E+02  0.28348325299E+03  0.26287006078E+03 0.  0.
         25    1    4    4    0    0 -0.74420644830E+01  0.49824716532E+01 -0.41042376161E+02  0.13195527306E+03  0.12509000000E+03 0.  0.
         25    1    4    4    0    0 -0.83758140625E+02 -0.11548162308E+02 -0.12823198781E+02  0.15152797993E+03  0.12509000000E+03 0.  0.
         25    1    3    3    0    0  0.91200205108E+02  0.65656906551E+01  0.64573537118E+02  0.16786254943E+03  0.12509000000E+03 0.  0.
<mgrwt>
<rscale>  2 0.45121876E+03</rscale>
<asrwt>0</asrwt>
<pdfrwt beam="1">  1       21 0.33974542E-01 0.45121876E+03</pdfrwt>
<pdfrwt beam="2">  1       21 0.32399841E-01 0.45121876E+03</pdfrwt>
<totfact> 0.70930285E+04</totfact>
</mgrwt>
</event>
<event>
 7    0  0.4707675E-002  0.4534914E+03  0.7546771E-02  0.1026686E+00
         21   -1    0    0  502  501  0.00000000000E+00  0.00000000000E+00  0.99512979755E+02  0.99512979755E+02  0.00000000000E+00 0.  1.
         21   -1    0    0  501  502 -0.00000000000E+00 -0.00000000000E+00 -0.51665230542E+03  0.51665230542E+03  0.00000000000E+00 0.  1.
      99926    2    1    2    0    0  0.00000000000E+00  0.00000000000E+00 -0.41713932566E+03  0.61616528517E+03  0.45349139092E+03 0.  0.
      99925    2    3    3    0    0  0.67078678061E+02 -0.44099410490E+02 -0.15706250319E+03  0.31661267085E+03  0.26292707427E+03 0.  0.
         25    1    4    4    0    0  0.56451886624E+02 -0.57015903661E+02 -0.80782329401E+02  0.16914763261E+03  0.12509000000E+03 0.  0.
         25    1    4    4    0    0  0.10626791437E+02  0.12916493171E+02 -0.76280173785E+02  0.14746503825E+03  0.12509000000E+03 0.  0.
         25    1    3    3    0    0 -0.67078678061E+02  0.44099410490E+02 -0.26007682248E+03  0.29955261432E+03  0.12509000000E+03 0.  0.
<mgrwt>
<rscale>  2 0.45349139E+03</rscale>
<asrwt>0</asrwt>
<pdfrwt beam="1">  1       21 0.14634262E-01 0.45349139E+03</pdfrwt>
<pdfrwt beam="2">  1       21 0.75978279E-01 0.45349139E+03</pdfrwt>
<totfact> 0.58386645E+04</totfact>
</mgrwt>
</event>
<event>
 7    0  0.4707675E-002  0.4525929E+03  0.7546771E-02  0.1026952E+00
         21   -1    0    0  502  501  0.00000000000E+00  0.00000000000E+00  0.56931714325E+02  0.56931714325E+02  0.00000000000E+00 0.  1.
         21   -1    0    0  501  502 -0.00000000000E+00 -0.00000000000E+00 -0.89950026465E+03  0.89950026465E+03  0.00000000000E+00 0.  1.
      99926    2    1    2    0    0  0.71054273576E-14  0.00000000000E+00 -0.84256855032E+03  0.95643197897E+03  0.45259293897E+03 0.  0.
      99925    2    3    3    0    0  0.44730358436E+02  0.45703784825E+02 -0.33992313055E+03  0.43452243984E+03  0.26300641653E+03 0.  0.
         25    1    3    3    0    0 -0.44730358436E+02 -0.45703784825E+02 -0.50264541977E+03  0.52190953913E+03  0.12509000000E+03 0.  0.
         25    1    4    4    0    0  0.78158436087E+01 -0.12209541964E+02 -0.13293839241E+03  0.18311276472E+03  0.12509000000E+03 0.  0.
         25    1    4    4    0    0  0.36914514827E+02  0.57913326790E+02 -0.20698473814E+03  0.25140967513E+03  0.12509000000E+03 0.  0.
<mgrwt>
<rscale>  2 0.45259294E+03</rscale>
<asrwt>0</asrwt>
<pdfrwt beam="1">  1       21 0.83723116E-02 0.45259294E+03</pdfrwt>
<pdfrwt beam="2">  1       21 0.13227944E+00 0.45259294E+03</pdfrwt>
<totfact> 0.41660054E+04</totfact>
</mgrwt>
</event>
<event>
 7    0  0.4707675E-002  0.4563123E+03  0.7546771E-02  0.1025856E+00
         21   -1    0    0  502  501  0.00000000000E+00  0.00000000000E+00  0.13866575416E+02  0.13866575416E+02  0.00000000000E+00 0. -1.
         21   -1    0    0  501  502 -0.00000000000E+00 -0.00000000000E+00 -0.37540072781E+04  0.37540072781E+04  0.00000000000E+00 0. -1.
      99926    2    1    2    0    0  0.35527136788E-14  0.00000000000E+00 -0.37401407027E+04  0.37678738535E+04  0.45631228357E+03 0.  0.
      99925    2    3    3    0    0  0.11289933723E+02 -0.94924338536E+02 -0.18317284915E+04  0.18529788777E+04  0.26298928086E+03 0.  0.
         25    1    3    3    0    0 -0.11289933723E+02  0.94924338536E+02 -0.19084122112E+04  0.19148949759E+04  0.12509000000E+03 0.  0.
         25    1    4    4    0    0  0.32080965434E+02 -0.25008914193E+02 -0.72742034510E+03  0.73921749215E+03  0.12509000000E+03 0.  0.
         25    1    4    4    0    0 -0.20791031711E+02 -0.69915424342E+02 -0.11043081464E+04  0.11137613855E+04  0.12509000000E+03 0.  0.
<mgrwt>
<rscale>  2 0.45631228E+03</rscale>
<asrwt>0</asrwt>
<pdfrwt beam="1">  1       21 0.20392045E-02 0.45631228E+03</pdfrwt>
<pdfrwt beam="2">  1       21 0.55205929E+00 0.45631228E+03</pdfrwt>
<totfact> 0.73741556E+02</totfact>
</mgrwt>
</event>
<event>
 7    0  0.4707675E-002  0.4441914E+03  0.7546771E-02  0.1029469E+00
         21   -1    0    0  502  501  0.00000000000E+00  0.00000000000E+00  0.44168272450E+03  0.44168272450E+03  0.00000000000E+00 0.  1.
         21   -1    0    0  501  502 -0.00000000000E+00 -0.00000000000E+00 -0.11167856144E+03  0.11167856144E+03  0.00000000000E+00 0.  1.
      99926    2    1    2    0    0  0.14210854715E-13 -0.17763568394E-14  0.33000416306E+03  0.55336128593E+03  0.44419136094E+03 0.  0.
      99925    2    3    3    0    0 -0.10112078515E+03  0.15923335146E+02  0.22003691318E+03  0.35786379251E+03  0.26300434414E+03 0.  0.
         25    1    3    3    0    0  0.10112078515E+03 -0.15923335146E+02  0.10996724988E+03  0.19549749343E+03  0.12509000000E+03 0.  0.
         25    1    4    4    0    0 -0.62118229069E+02 -0.14425630325E+02  0.71788613691E+02  0.15769554955E+03  0.12509000000E+03 0.  0.
         25    1    4    4    0    0 -0.39002556077E+02  0.30348965471E+02  0.14824829949E+03  0.20016824295E+03  0.12509000000E+03 0.  0.
<mgrwt>
<rscale>  2 0.44419136E+03</rscale>
<asrwt>0</asrwt>
<pdfrwt beam="1">  1       21 0.64953341E-01 0.44419136E+03</pdfrwt>
<pdfrwt beam="2">  1       21 0.16423318E-01 0.44419136E+03</pdfrwt>
<totfact> 0.67210225E+04</totfact>
</mgrwt>
</event>
<event>
 7    0  0.4707675E-002  0.4404468E+03  0.7546771E-02  0.1030610E+00
         21   -1    0    0  502  501  0.00000000000E+00  0.00000000000E+00  0.96621326180E+02  0.96621326180E+02  0.00000000000E+00 0. -1.
         21   -1    0    0  501  502 -0.00000000000E+00 -0.00000000000E+00 -0.50194248295E+03  0.50194248295E+03  0.00000000000E+00 0. -1.
      99926    2    1    2    0    0  0.00000000000E+00  0.00000000000E+00 -0.40532115677E+03  0.59856380913E+03  0.44044681118E+03 0.  0.
      99925    2    3    3    0    0 -0.83373953609E+02 -0.51442823638E+02 -0.24031364304E+03  0.36949489388E+03  0.26301758369E+03 0.  0.
         25    1    4    4    0    0 -0.56008133701E+02 -0.49084348582E+02 -0.16844581547E+03  0.22263801375E+03  0.12509000000E+03 0.  0.
         25    1    3    3    0    0  0.83373953609E+02  0.51442823638E+02 -0.16500751374E+03  0.22906891525E+03  0.12509000000E+03 0.  0.
         25    1    4    4    0    0 -0.27365819908E+02 -0.23584750563E+01 -0.71867827565E+02  0.14685688013E+03  0.12509000000E+03 0.  0.
<mgrwt>
<rscale>  2 0.44044681E+03</rscale>
<asrwt>0</asrwt>
<pdfrwt beam="1">  1       21 0.14209018E-01 0.44044681E+03</pdfrwt>
<pdfrwt beam="2">  1       21 0.73815073E-01 0.44044681E+03</pdfrwt>
<totfact> 0.66038952E+04</totfact>
</mgrwt>
</event>
<event>
 7    0  0.4707675E-002  0.4522723E+03  0.7546771E-02  0.1027047E+00
         21   -1    0    0  502  501  0.00000000000E+00  0.00000000000E+00  0.97633400081E+02  0.97633400081E+02  0.00000000000E+00 0.  1.
         21   -1    0    0  501  502 -0.00000000000E+00 -0.00000000000E+00 -0.52377118105E+03  0.52377118105E+03  0.00000000000E+00 0.  1.
      99926    2    1    2    0    0  0.00000000000E+00  0.53290705182E-14 -0.42613778096E+03  0.62140458113E+03  0.45227231297E+03 0.  0.
      99925    2    3    3    0    0  0.95238024248E+02 -0.11433373209E+02 -0.34536044112E+03  0.44427894770E+03  0.26250513478E+03 0.  0.
         25    1    4    4    0    0  0.48841445361E+02 -0.45463800563E+02 -0.17775422999E+03  0.22736868370E+03  0.12509000000E+03 0.  0.
         25    1    4    4    0    0  0.46396578887E+02  0.34030427354E+02 -0.16760621114E+03  0.21691026400E+03  0.12509000000E+03 0.  0.
         25    1    3    3    0    0 -0.95238024248E+02  0.11433373209E+02 -0.80777339840E+02  0.17712563343E+03  0.12509000000E+03 0.  0.
<mgrwt>
<rscale>  2 0.45227231E+03</rscale>
<asrwt>0</asrwt>
<pdfrwt beam="1">  1       21 0.14357852E-01 0.45227231E+03</pdfrwt>
<pdfrwt beam="2">  1       21 0.77025177E-01 0.45227231E+03</pdfrwt>
<totfact> 0.58632383E+04</totfact>
</mgrwt>
</event>
<event>
 7    0  0.4707675E-002  0.4596987E+03  0.7546771E-02  0.1024869E+00
         21   -1    0    0  502  501  0.00000000000E+00  0.00000000000E+00  0.37716214777E+03  0.37716214777E+03  0.00000000000E+00 0. -1.
         21   -1    0    0  501  502 -0.00000000000E+00 -0.00000000000E+00 -0.14007429048E+03  0.14007429048E+03  0.00000000000E+00 0. -1.
      99926    2    1    2    0    0  0.00000000000E+00 -0.71054273576E-14  0.23708785729E+03  0.51723643824E+03  0.45969868498E+03 0.  0.
      99925    2    3    3    0    0 -0.19800496220E+02 -0.54796676149E+02  0.26284990778E+03  0.37685863831E+03  0.26369987464E+03 0.  0.
         25    1    4    4    0    0 -0.80327660459E+01 -0.69615971163E+02  0.14619446179E+03  0.20477118335E+03  0.12509000000E+03 0.  0.
         25    1    3    3    0    0  0.19800496220E+02  0.54796676149E+02 -0.25762050493E+02  0.14037779993E+03  0.12509000000E+03 0.  0.
         25    1    4    4    0    0 -0.11767730174E+02  0.14819295013E+02  0.11665544599E+03  0.17208745497E+03  0.12509000000E+03 0.  0.
<mgrwt>
<rscale>  2 0.45969868E+03</rscale>
<asrwt>0</asrwt>
<pdfrwt beam="1">  1       21 0.55465022E-01 0.45969868E+03</pdfrwt>
<pdfrwt beam="2">  1       21 0.20599160E-01 0.45969868E+03</pdfrwt>
<totfact> 0.61741594E+04</totfact>
</mgrwt>
</event>
<event>
 7    0  0.4707675E-002  0.4449799E+03  0.7546771E-02  0.1029230E+00
         21   -1    0    0  502  501  0.00000000000E+00  0.00000000000E+00  0.15416846852E+03  0.15416846852E+03  0.00000000000E+00 0. -1.
         21   -1    0    0  501  502 -0.00000000000E+00 -0.00000000000E+00 -0.32108884596E+03  0.32108884596E+03  0.00000000000E+00 0. -1.
      99926    2    1    2    0    0  0.00000000000E+00  0.00000000000E+00 -0.16692037744E+03  0.47525731449E+03  0.44497989007E+03 0.  0.
      99925    2    3    3    0    0  0.18156547983E+02  0.87217905580E+02 -0.49739502619E+02  0.28208514047E+03  0.26298552254E+03 0.  0.
         25    1    4    4    0    0 -0.62948004058E+01  0.82527232973E+02 -0.22599398696E+02  0.15168589129E+03  0.12509000000E+03 0.  0.
         25    1    4    4    0    0  0.24451348389E+02  0.46906726066E+01 -0.27140103922E+02  0.13039924919E+03  0.12509000000E+03 0.  0.
         25    1    3    3    0    0 -0.18156547983E+02 -0.87217905580E+02 -0.11718087482E+03  0.19317217401E+03  0.12509000000E+03 0.  0.
<mgrwt>
<rscale>  2 0.44497989E+03</rscale>
<asrwt>0</asrwt>
<pdfrwt beam="1">  1       21 0.22671834E-01 0.44497989E+03</pdfrwt>
<pdfrwt beam="2">  1       21 0.47218947E-01 0.44497989E+03</pdfrwt>
<totfact> 0.72656042E+04</totfact>
</mgrwt>
</event>
<event>
 7    0  0.4707675E-002  0.4459201E+03  0.7546771E-02  0.1028946E+00
         21   -1    0    0  502  501  0.00000000000E+00  0.00000000000E+00  0.42295702478E+03  0.42295702478E+03  0.00000000000E+00 0. -1.
         21   -1    0    0  501  502 -0.00000000000E+00 -0.00000000000E+00 -0.11753244473E+03  0.11753244473E+03  0.00000000000E+00 0. -1.
      99926    2    1    2    0    0  0.00000000000E+00  0.14210854715E-13  0.30542458006E+03  0.54048946951E+03  0.44592005175E+03 0.  0.
      99925    2    3    3    0    0  0.66857906863E+02  0.79439323189E+02  0.20656917948E+03  0.35022522142E+03  0.26307089164E+03 0.  0.
         25    1    4    4    0    0  0.32007113054E+02  0.68265593464E+02  0.71824191991E+02  0.16276015849E+03  0.12509000000E+03 0.  0.
         25    1    3    3    0    0 -0.66857906863E+02 -0.79439323189E+02  0.98855400580E+02  0.19026424809E+03  0.12509000000E+03 0.  0.
         25    1    4    4    0    0  0.34850793809E+02  0.11173729725E+02  0.13474498749E+03  0.18746506293E+03  0.12509000000E+03 0.  0.
<mgrwt>
<rscale>  2 0.44592005E+03</rscale>
<asrwt>0</asrwt>
<pdfrwt beam="1">  1       21 0.62199562E-01 0.44592005E+03</pdfrwt>
<pdfrwt beam="2">  1       21 0.17284183E-01 0.44592005E+03</pdfrwt>
<totfact> 0.67199459E+04</totfact>
</mgrwt>
</event>
<event>
 7    0  0.4707675E-002  0.4569470E+03  0.7546771E-02  0.1025670E+00
         21   -1    0    0  502  501  0.00000000000E+00  0.00000000000E+00  0.10680590191E+03  0.10680590191E+03  0.00000000000E+00 0.  1.
         21   -1    0    0  501  502 -0.00000000000E+00 -0.00000000000E+00 -0.48873827541E+03  0.48873827541E+03  0.00000000000E+00 0.  1.
      99926    2    1    2    0    0  0.00000000000E+00  0.00000000000E+00 -0.38193237351E+03  0.59554417732E+03  0.45694696542E+03 0.  0.
      99925    2    3    3    0    0  0.42778995130E+02 -0.51987880881E+02 -0.11846020179E+03  0.29621513504E+03  0.26301673832E+03 0.  0.
         25    1    4    4    0    0  0.17843371959E+02 -0.66502079047E+02 -0.69711603210E+02  0.15889659582E+03  0.12509000000E+03 0.  0.
         25    1    3    3    0    0 -0.42778995130E+02  0.51987880881E+02 -0.26347217172E+03  0.29932904228E+03  0.12509000000E+03 0.  0.
         25    1    4    4    0    0  0.24935623171E+02  0.14514198166E+02 -0.48748598579E+02  0.13731853922E+03  0.12509000000E+03 0.  0.
<mgrwt>
<rscale>  2 0.45694697E+03</rscale>
<asrwt>0</asrwt>
<pdfrwt beam="1">  1       21 0.15706750E-01 0.45694697E+03</pdfrwt>
<pdfrwt beam="2">  1       21 0.71873276E-01 0.45694697E+03</pdfrwt>
<totfact> 0.58054996E+04</totfact>
</mgrwt>
</event>
<event>
 7    0  0.4707675E-002  0.4480953E+03  0.7546771E-02  0.1028292E+00
         21   -1    0    0  502  501  0.00000000000E+00  0.00000000000E+00  0.92013716285E+02  0.92013716285E+02  0.00000000000E+00 0. -1.
         21   -1    0    0  501  502 -0.00000000000E+00 -0.00000000000E+00 -0.54554205540E+03  0.54554205540E+03  0.00000000000E+00 0. -1.
      99926    2    1    2    0    0  0.00000000000E+00  0.00000000000E+00 -0.45352833911E+03  0.63755577168E+03  0.44809531087E+03 0.  0.
      99925    2    3    3    0    0 -0.16281414700E+02  0.68176812510E+02 -0.17268275111E+03  0.32222274990E+03  0.26285928896E+03 0.  0.
         25    1    4    4    0    0 -0.93356854442E+01  0.66675520990E+02 -0.12131803273E+03  0.18681100954E+03  0.12509000000E+03 0.  0.
         25    1    3    3    0    0  0.16281414700E+02 -0.68176812510E+02 -0.28084558800E+03  0.31533302178E+03  0.12509000000E+03 0.  0.
         25    1    4    4    0    0 -0.69457292561E+01  0.15012915197E+01 -0.51364718389E+02  0.13541174036E+03  0.12509000000E+03 0.  0.
<mgrwt>
<rscale>  2 0.44809531E+03</rscale>
<asrwt>0</asrwt>
<pdfrwt beam="1">  1       21 0.13531429E-01 0.44809531E+03</pdfrwt>
<pdfrwt beam="2">  1       21 0.80226773E-01 0.44809531E+03</pdfrwt>
<totfact> 0.59606304E+04</totfact>
</mgrwt>
</event>
<event>
 7    0  0.4707675E-002  0.4515061E+03  0.7546771E-02  0.1027274E+00
         21   -1    0    0  502  501  0.00000000000E+00  0.00000000000E+00  0.71509485945E+02  0.71509485945E+02  0.00000000000E+00 0. -1.
         21   -1    0    0  501  502 -0.00000000000E+00 -0.00000000000E+00 -0.71269495085E+03  0.71269495085E+03  0.00000000000E+00 0. -1.
      99926    2    1    2    0    0  0.00000000000E+00  0.00000000000E+00 -0.64118546490E+03  0.78420443679E+03  0.45150614424E+03 0.  0.
      99925    2    3    3    0    0 -0.74849890574E+02  0.27596209815E+02 -0.53593740034E+03  0.60230138539E+03  0.26300951474E+03 0.  0.
         25    1    4    4    0    0 -0.56590197335E+02  0.24572166146E+02 -0.35624300653E+03  0.38257395309E+03  0.12509000000E+03 0.  0.
         25    1    3    3    0    0  0.74849890574E+02 -0.27596209815E+02 -0.10524806456E+03  0.18190305140E+03  0.12509000000E+03 0.  0.
         25    1    4    4    0    0 -0.18259693239E+02  0.30240436690E+01 -0.17969439381E+03  0.21972743230E+03  0.12509000000E+03 0.  0.
<mgrwt>
<rscale>  2 0.45150614E+03</rscale>
<asrwt>0</asrwt>
<pdfrwt beam="1">  1       21 0.10516101E-01 0.45150614E+03</pdfrwt>
<pdfrwt beam="2">  1       21 0.10480808E+00 0.45150614E+03</pdfrwt>
<totfact> 0.49892543E+04</totfact>
</mgrwt>
</event>
<event>
 7    0  0.4707675E-002  0.4524597E+03  0.7546771E-02  0.1026991E+00
         21   -1    0    0  502  501  0.00000000000E+00  0.00000000000E+00  0.99170998155E+03  0.99170998155E+03  0.00000000000E+00 0. -1.
         21   -1    0    0  501  502 -0.00000000000E+00 -0.00000000000E+00 -0.51607768014E+02  0.51607768014E+02  0.00000000000E+00 0. -1.
      99926    2    1    2    0    0 -0.71054273576E-14  0.35527136788E-14  0.94010221353E+03  0.10433177496E+04  0.45245967186E+03 0.  0.
      99925    2    3    3    0    0  0.53117402000E+02 -0.18357911542E+02  0.81301007084E+03  0.85634611496E+03  0.26303007814E+03 0.  0.
         25    1    4    4    0    0  0.31104595562E+02  0.30676057373E+02  0.38013500588E+03  0.40256508438E+03  0.12509000000E+03 0.  0.
         25    1    4    4    0    0  0.22012806438E+02 -0.49033968915E+02  0.43287506496E+03  0.45378103058E+03  0.12509000000E+03 0.  0.
         25    1    3    3    0    0 -0.53117402000E+02  0.18357911542E+02  0.12709214269E+03  0.18697163460E+03  0.12509000000E+03 0.  0.
<mgrwt>
<rscale>  2 0.45245967E+03</rscale>
<asrwt>0</asrwt>
<pdfrwt beam="1">  1       21 0.14583969E+00 0.45245967E+03</pdfrwt>
<pdfrwt beam="2">  1       21 0.75893783E-02 0.45245967E+03</pdfrwt>
<totfact> 0.38276930E+04</totfact>
</mgrwt>
</event>
<event>
 7    0  0.4707675E-002  0.4546196E+03  0.7546771E-02  0.1026353E+00
         21   -1    0    0  502  501  0.00000000000E+00  0.00000000000E+00  0.81987155422E+03  0.81987155422E+03  0.00000000000E+00 0. -1.
         21   -1    0    0  501  502 -0.00000000000E+00 -0.00000000000E+00 -0.63021769116E+02  0.63021769116E+02  0.00000000000E+00 0. -1.
      99926    2    1    2    0    0  0.00000000000E+00  0.00000000000E+00  0.75684978510E+03  0.88289332333E+03  0.45461964671E+03 0.  0.
      99925    2    3    3    0    0  0.39550369183E+02 -0.76961612795E+02  0.61699461204E+03  0.67626733494E+03  0.26299778607E+03 0.  0.
         25    1    4    4    0    0  0.21228247047E+02 -0.34688518486E+02  0.40518526716E+03  0.42600063452E+03  0.12509000000E+03 0.  0.
         25    1    4    4    0    0  0.18322122136E+02 -0.42273094309E+02  0.21180934488E+03  0.25026670042E+03  0.12509000000E+03 0.  0.
         25    1    3    3    0    0 -0.39550369183E+02  0.76961612795E+02  0.13985517306E+03  0.20662598839E+03  0.12509000000E+03 0.  0.
<mgrwt>
<rscale>  2 0.45461965E+03</rscale>
<asrwt>0</asrwt>
<pdfrwt beam="1">  1       21 0.12056934E+00 0.45461965E+03</pdfrwt>
<pdfrwt beam="2">  1       21 0.92679077E-02 0.45461965E+03</pdfrwt>
<totfact> 0.44112865E+04</totfact>
</mgrwt>
</event>
<event>
 7    0  0.4707675E-002  0.4571520E+03  0.7546771E-02  0.1025610E+00
         21   -1    0    0  502  501  0.00000000000E+00  0.00000000000E+00  0.41174018375E+03  0.41174018375E+03  0.00000000000E+00 0. -1.
         21   -1    0    0  501  502 -0.00000000000E+00 -0.00000000000E+00 -0.12689311833E+03  0.12689311833E+03  0.00000000000E+00 0. -1.
      99926    2    1    2    0    0  0.00000000000E+00  0.35527136788E-14  0.28484706542E+03  0.53863330208E+03  0.45715203536E+03 0.  0.
      99925    2    3    3    0    0 -0.11198240595E+03  0.24643354444E+02  0.16630386372E+03  0.33163728055E+03  0.26301892822E+03 0.  0.
         25    1    3    3    0    0  0.11198240595E+03 -0.24643354444E+02  0.11854320171E+03  0.20699602153E+03  0.12509000000E+03 0.  0.
         25    1    4    4    0    0 -0.87089973376E+02 -0.14801163384E+02  0.81468018103E+02  0.17345974742E+03  0.12509000000E+03 0.  0.
         25    1    4    4    0    0 -0.24892432572E+02  0.39444517829E+02  0.84835845613E+02  0.15817753313E+03  0.12509000000E+03 0.  0.
<mgrwt>
<rscale>  2 0.45715204E+03</rscale>
<asrwt>0</asrwt>
<pdfrwt beam="1">  1       21 0.60550027E-01 0.45715204E+03</pdfrwt>
<pdfrwt beam="2">  1       21 0.18660753E-01 0.45715204E+03</pdfrwt>
<totfact> 0.61568599E+04</totfact>
</mgrwt>
</event>
<event>
 6    0  0.4707675E-002  0.4569342E+03  0.7546771E-02  0.1025674E+00
         21   -1    0    0  502  501  0.00000000000E+00  0.00000000000E+00  0.60806194632E+02  0.60806194632E+02  0.00000000000E+00 0. -1.
         21   -1    0    0  501  502 -0.00000000000E+00 -0.00000000000E+00 -0.85841938605E+03  0.85841938605E+03  0.00000000000E+00 0. -1.
      99926    2    1    2    0    0  0.00000000000E+00 -0.35527136788E-14 -0.79761319141E+03  0.91922558068E+03  0.45693420211E+03 0.  0.
         25    1    3    3    0    0  0.68240308875E+02  0.45474290665E+02 -0.33305501274E+03  0.36509971306E+03  0.12509000000E+03 0.  0.
         25    1    3    3    0    0  0.39185982704E+02 -0.33397043457E+02 -0.23635586675E+03  0.27232794127E+03  0.12509000000E+03 0.  0.
         25    1    3    3    0    0 -0.10742629158E+03 -0.12077247209E+02 -0.22820231193E+03  0.28179792634E+03  0.12509000000E+03 0.  0.
<mgrwt>
<rscale>  2 0.45693420E+03</rscale>
<asrwt>0</asrwt>
<pdfrwt beam="1">  1       21 0.89420882E-02 0.45693420E+03</pdfrwt>
<pdfrwt beam="2">  1       21 0.12623813E+00 0.45693420E+03</pdfrwt>
<totfact> 0.41776930E+04</totfact>
</mgrwt>
</event>
<event>
 7    0  0.4707675E-002  0.4522655E+03  0.7546771E-02  0.1027049E+00
         21   -1    0    0  502  501  0.00000000000E+00  0.00000000000E+00  0.11952301899E+03  0.11952301899E+03  0.00000000000E+00 0.  1.
         21   -1    0    0  501  502 -0.00000000000E+00 -0.00000000000E+00 -0.42783415586E+03  0.42783415586E+03  0.00000000000E+00 0.  1.
      99926    2    1    2    0    0 -0.71054273576E-14  0.00000000000E+00 -0.30831113687E+03  0.54735717484E+03  0.45226554117E+03 0.  0.
      99925    2    3    3    0    0 -0.26608264063E+02 -0.10754735842E+03 -0.19342074787E+03  0.34457220596E+03  0.26276222216E+03 0.  0.
         25    1    3    3    0    0  0.26608264063E+02  0.10754735842E+03 -0.11489038900E+03  0.20278496888E+03  0.12509000000E+03 0.  0.
         25    1    4    4    0    0  0.10739580264E+02 -0.18079351779E+02 -0.82648546129E+02  0.15139515125E+03  0.12509000000E+03 0.  0.
         25    1    4    4    0    0 -0.37347844327E+02 -0.89468006641E+02 -0.11077220174E+03  0.19317705471E+03  0.12509000000E+03 0.  0.
<mgrwt>
<rscale>  2 0.45226554E+03</rscale>
<asrwt>0</asrwt>
<pdfrwt beam="1">  1       21 0.17576915E-01 0.45226554E+03</pdfrwt>
<pdfrwt beam="2">  1       21 0.62916788E-01 0.45226554E+03</pdfrwt>
<totfact> 0.63402172E+04</totfact>
</mgrwt>
</event>
<event>
 7    0  0.4707675E-002  0.4522517E+03  0.7546771E-02  0.1027053E+00
         21   -1    0    0  502  501  0.00000000000E+00  0.00000000000E+00  0.87610464124E+02  0.87610464124E+02  0.00000000000E+00 0. -1.
         21   -1    0    0  501  502 -0.00000000000E+00 -0.00000000000E+00 -0.58363910099E+03  0.58363910099E+03  0.00000000000E+00 0. -1.
      99926    2    1    2    0    0  0.00000000000E+00  0.00000000000E+00 -0.49602863686E+03  0.67124956511E+03  0.45225166675E+03 0.  0.
      99925    2    3    3    0    0 -0.82717224119E+02 -0.72221193460E+02 -0.29346556899E+03  0.40907148724E+03  0.26298175134E+03 0.  0.
         25    1    3    3    0    0  0.82717224119E+02  0.72221193460E+02 -0.20256306788E+03  0.26217807788E+03  0.12509000000E+03 0.  0.
         25    1    4    4    0    0 -0.12359312861E+01 -0.23019410441E+02 -0.14456052666E+03  0.19255304400E+03  0.12509000000E+03 0.  0.
         25    1    4    4    0    0 -0.81481292833E+02 -0.49201783019E+02 -0.14890504232E+03  0.21651844324E+03  0.12509000000E+03 0.  0.
<mgrwt>
<rscale>  2 0.45225167E+03</rscale>
<asrwt>0</asrwt>
<pdfrwt beam="1">  1       21 0.12883892E-01 0.45225167E+03</pdfrwt>
<pdfrwt beam="2">  1       21 0.85829278E-01 0.45225167E+03</pdfrwt>
<totfact> 0.55688526E+04</totfact>
</mgrwt>
</event>
<event>
 7    0  0.4707675E-002  0.4549691E+03  0.7546771E-02  0.1026250E+00
         21   -1    0    0  502  501  0.00000000000E+00  0.00000000000E+00  0.44909586893E+03  0.44909586893E+03  0.00000000000E+00 0. -1.
         21   -1    0    0  501  502 -0.00000000000E+00 -0.00000000000E+00 -0.11522978502E+03  0.11522978502E+03  0.00000000000E+00 0. -1.
      99926    2    1    2    0    0  0.00000000000E+00 -0.35527136788E-14  0.33386608391E+03  0.56432565396E+03  0.45496909975E+03 0.  0.
      99925    2    3    3    0    0 -0.55327991714E+01 -0.26132885300E+02  0.73728374780E+02  0.27444175414E+03  0.26299974070E+03 0.  0.
         25    1    4    4    0    0 -0.76625407010E+01  0.25240235816E+02  0.49248983400E+02  0.13699910401E+03  0.12509000000E+03 0.  0.
         25    1    4    4    0    0  0.21297415297E+01 -0.51373121116E+02  0.24479391381E+02  0.13744265013E+03  0.12509000000E+03 0.  0.
         25    1    3    3    0    0  0.55327991714E+01  0.26132885300E+02  0.26013770913E+03  0.28988389982E+03  0.12509000000E+03 0.  0.
<mgrwt>
<rscale>  2 0.45496910E+03</rscale>
<asrwt>0</asrwt>
<pdfrwt beam="1">  1       21 0.66043509E-01 0.45496910E+03</pdfrwt>
<pdfrwt beam="2">  1       21 0.16945557E-01 0.45496910E+03</pdfrwt>
<totfact> 0.60944563E+04</totfact>
</mgrwt>
</event>
<event>
 7    0  0.4707675E-002  0.4594358E+03  0.7546771E-02  0.1024945E+00
         21   -1    0    0  502  501  0.00000000000E+00  0.00000000000E+00  0.23112417127E+03  0.23112417127E+03  0.00000000000E+00 0.  1.
         21   -1    0    0  501  502 -0.00000000000E+00 -0.00000000000E+00 -0.22832021619E+03  0.22832021619E+03  0.00000000000E+00 0.  1.
      99926    2    1    2    0    0  0.71054273576E-14 -0.14210854715E-13  0.28039550822E+01  0.45944438746E+03  0.45943583122E+03 0.  0.
      99925    2    3    3    0    0  0.63399637122E+02  0.72079407575E+02  0.69311769831E+02  0.28831358221E+03  0.26287952615E+03 0.  0.
         25    1    4    4    0    0  0.26418806592E+02  0.77080523606E+02  0.34783218672E+02  0.15328646666E+03  0.12509000000E+03 0.  0.
         25    1    3    3    0    0 -0.63399637122E+02 -0.72079407575E+02 -0.66507814749E+02  0.17113080525E+03  0.12509000000E+03 0.  0.
         25    1    4    4    0    0  0.36980830531E+02 -0.50011160307E+01  0.34528551158E+02  0.13502711555E+03  0.12509000000E+03 0.  0.
<mgrwt>
<rscale>  2 0.45943583E+03</rscale>
<asrwt>0</asrwt>
<pdfrwt beam="1">  1       21 0.33988849E-01 0.45943583E+03</pdfrwt>
<pdfrwt beam="2">  1       21 0.33576502E-01 0.45943583E+03</pdfrwt>
<totfact> 0.65859386E+04</totfact>
</mgrwt>
</event>
<event>
 7    0  0.4707675E-002  0.4592242E+03  0.7546771E-02  0.1025006E+00
         21   -1    0    0  502  501  0.00000000000E+00  0.00000000000E+00  0.55829365548E+03  0.55829365548E+03  0.00000000000E+00 0.  1.
         21   -1    0    0  501  502 -0.00000000000E+00 -0.00000000000E+00 -0.94433663217E+02  0.94433663217E+02  0.00000000000E+00 0.  1.
      99926    2    1    2    0    0 -0.71054273576E-14  0.14210854715E-13  0.46385999226E+03  0.65272731869E+03  0.45922419378E+03 0.  0.
      99925    2    3    3    0    0  0.46572340608E+02 -0.95951636484E+02  0.35945752747E+03  0.45798882171E+03  0.26299875913E+03 0.  0.
         25    1    4    4    0    0  0.43679427131E+02 -0.29622041354E+02  0.22452082440E+03  0.26237847925E+03  0.12509000000E+03 0.  0.
         25    1    3    3    0    0 -0.46572340608E+02  0.95951636484E+02  0.10440246479E+03  0.19473849698E+03  0.12509000000E+03 0.  0.
         25    1    4    4    0    0  0.28929134768E+01 -0.66329595131E+02  0.13493670308E+03  0.19561034245E+03  0.12509000000E+03 0.  0.
<mgrwt>
<rscale>  2 0.45922419E+03</rscale>
<asrwt>0</asrwt>
<pdfrwt beam="1">  1       21 0.82102007E-01 0.45922419E+03</pdfrwt>
<pdfrwt beam="2">  1       21 0.13887304E-01 0.45922419E+03</pdfrwt>
<totfact> 0.53731650E+04</totfact>
</mgrwt>
</event>
<event>
 7    0  0.4707675E-002  0.4538017E+03  0.7546771E-02  0.1026594E+00
         21   -1    0    0  502  501  0.00000000000E+00  0.00000000000E+00  0.20020768905E+03  0.20020768905E+03  0.00000000000E+00 0.  1.
         21   -1    0    0  501  502 -0.00000000000E+00 -0.00000000000E+00 -0.25715291187E+03  0.25715291187E+03  0.00000000000E+00 0.  1.
      99926    2    1    2    0    0  0.35527136788E-14 -0.71054273576E-14 -0.56945222817E+02  0.45736060092E+03  0.45380167571E+03 0.  0.
      99925    2    3    3    0    0  0.14779930464E+02  0.50073184687E+02 -0.13575368427E+03  0.30056757855E+03  0.26303238643E+03 0.  0.
         25    1    3    3    0    0 -0.14779930464E+02 -0.50073184687E+02  0.78808461451E+02  0.15679302237E+03  0.12509000000E+03 0.  0.
         25    1    4    4    0    0 -0.23569053901E+02  0.43259461549E+02 -0.47429552256E+02  0.14256209820E+03  0.12509000000E+03 0.  0.
         25    1    4    4    0    0  0.38348984365E+02  0.68137231380E+01 -0.88324132012E+02  0.15800548035E+03  0.12509000000E+03 0.  0.
<mgrwt>
<rscale>  2 0.45380168E+03</rscale>
<asrwt>0</asrwt>
<pdfrwt beam="1">  1       21 0.29442307E-01 0.45380168E+03</pdfrwt>
<pdfrwt beam="2">  1       21 0.37816604E-01 0.45380168E+03</pdfrwt>
<totfact> 0.69030656E+04</totfact>
</mgrwt>
</event>
<event>
 7    0  0.4707675E-002  0.4506946E+03  0.7546771E-02  0.1027515E+00
         21   -1    0    0  502  501  0.00000000000E+00  0.00000000000E+00  0.17390274443E+03  0.17390274443E+03  0.00000000000E+00 0.  1.
         21   -1    0    0  501  502 -0.00000000000E+00 -0.00000000000E+00 -0.29201034048E+03  0.29201034048E+03  0.00000000000E+00 0.  1.
      99926    2    1    2    0    0  0.00000000000E+00  0.00000000000E+00 -0.11810759605E+03  0.46591308491E+03  0.45069457334E+03 0.  0.
      99925    2    3    3    0    0  0.64126169123E+02  0.76493946807E+02 -0.29084881098E+02  0.28278460175E+03  0.26297853756E+03 0.  0.
         25    1    4    4    0    0  0.12884790794E+02  0.15865637674E+02 -0.43327524487E+02  0.13394968746E+03  0.12509000000E+03 0.  0.
         25    1    3    3    0    0 -0.64126169123E+02 -0.76493946807E+02 -0.89022714954E+02  0.18312848315E+03  0.12509000000E+03 0.  0.
         25    1    4    4    0    0  0.51241378328E+02  0.60628309133E+02  0.14242643389E+02  0.14883491429E+03  0.12509000000E+03 0.  0.
<mgrwt>
<rscale>  2 0.45069457E+03</rscale>
<asrwt>0</asrwt>
<pdfrwt beam="1">  1       21 0.25573933E-01 0.45069457E+03</pdfrwt>
<pdfrwt beam="2">  1       21 0.42942697E-01 0.45069457E+03</pdfrwt>
<totfact> 0.70104844E+04</totfact>
</mgrwt>
</event>
<event>
 7    0  0.4707675E-002  0.4506311E+03  0.7546771E-02  0.1027534E+00
         21   -1    0    0  502  501  0.00000000000E+00  0.00000000000E+00  0.20543794075E+03  0.20543794075E+03  0.00000000000E+00 0. -1.
         21   -1    0    0  501  502 -0.00000000000E+00 -0.00000000000E+00 -0.24711645830E+03  0.24711645830E+03  0.00000000000E+00 0. -1.
      99926    2    1    2    0    0  0.00000000000E+00  0.00000000000E+00 -0.41678517550E+02  0.45255439904E+03  0.45063109665E+03 0.  0.
      99925    2    3    3    0    0  0.52346427644E+02  0.26903618350E+02  0.65797399850E+02  0.27744719163E+03  0.26302793226E+03 0.  0.
         25    1    4    4    0    0  0.37705386846E+02  0.25330996062E+02  0.72057757194E+02  0.15133797947E+03  0.12509000000E+03 0.  0.
         25    1    3    3    0    0 -0.52346427644E+02 -0.26903618350E+02 -0.10747591740E+03  0.17510720741E+03  0.12509000000E+03 0.  0.
         25    1    4    4    0    0  0.14641040799E+02  0.15726222882E+01 -0.62603573440E+01  0.12610921216E+03  0.12509000000E+03 0.  0.
<mgrwt>
<rscale>  2 0.45063110E+03</rscale>
<asrwt>0</asrwt>
<pdfrwt beam="1">  1       21 0.30211462E-01 0.45063110E+03</pdfrwt>
<pdfrwt beam="2">  1       21 0.36340655E-01 0.45063110E+03</pdfrwt>
<totfact> 0.71174145E+04</totfact>
</mgrwt>
</event>
<event>
 7    0  0.4707675E-002  0.4558000E+03  0.7546771E-02  0.1026006E+00
         21   -1    0    0  502  501  0.00000000000E+00  0.00000000000E+00  0.65801190883E+02  0.65801190883E+02  0.00000000000E+00 0.  1.
         21   -1    0    0  501  502 -0.00000000000E+00 -0.00000000000E+00 -0.78932317307E+03  0.78932317307E+03  0.00000000000E+00 0.  1.
      99926    2    1    2    0    0  0.00000000000E+00  0.00000000000E+00 -0.72352198219E+03  0.85512436395E+03  0.45579997709E+03 0.  0.
      99925    2    3    3    0    0 -0.80348394766E+02 -0.19237037275E+02 -0.30771834093E+03  0.41312198350E+03  0.26297008910E+03 0.  0.
         25    1    4    4    0    0 -0.17210055651E+02 -0.78304327682E+01 -0.95272678514E+02  0.15837263988E+03  0.12509000000E+03 0.  0.
         25    1    3    3    0    0  0.80348394766E+02  0.19237037275E+02 -0.41580364125E+03  0.44200238045E+03  0.12509000000E+03 0.  0.
         25    1    4    4    0    0 -0.63138339115E+02 -0.11406604507E+02 -0.21244566242E+03  0.25474934362E+03  0.12509000000E+03 0.  0.
<mgrwt>
<rscale>  2 0.45579998E+03</rscale>
<asrwt>0</asrwt>
<pdfrwt beam="1">  1       21 0.96766469E-02 0.45579998E+03</pdfrwt>
<pdfrwt beam="2">  1       21 0.11607692E+00 0.45579998E+03</pdfrwt>
<totfact> 0.44928412E+04</totfact>
</mgrwt>
</event>
<event>
 7    0  0.4707675E-002  0.4562431E+03  0.7546771E-02  0.1025876E+00
         21   -1    0    0  502  501  0.00000000000E+00  0.00000000000E+00  0.50046633220E+03  0.50046633220E+03  0.00000000000E+00 0.  1.
         21   -1    0    0  501  502 -0.00000000000E+00 -0.00000000000E+00 -0.10398190789E+03  0.10398190789E+03  0.00000000000E+00 0.  1.
      99926    2    1    2    0    0  0.71054273576E-14  0.14210854715E-13  0.39648442431E+03  0.60444824009E+03  0.45624311088E+03 0.  0.
      99925    2    3    3    0    0 -0.54176734304E+02 -0.76608575676E+02  0.33606080541E+03  0.43681019480E+03  0.26279704896E+03 0.  0.
         25    1    4    4    0    0 -0.44565367803E+02 -0.16316335788E+02  0.11958256376E+03  0.17944300621E+03  0.12509000000E+03 0.  0.
         25    1    3    3    0    0  0.54176734304E+02  0.76608575676E+02  0.60423618903E+02  0.16763804529E+03  0.12509000000E+03 0.  0.
         25    1    4    4    0    0 -0.96113665009E+01 -0.60292239888E+02  0.21647824165E+03  0.25736718859E+03  0.12509000000E+03 0.  0.
<mgrwt>
<rscale>  2 0.45624311E+03</rscale>
<asrwt>0</asrwt>
<pdfrwt beam="1">  1       21 0.73597989E-01 0.45624311E+03</pdfrwt>
<pdfrwt beam="2">  1       21 0.15291457E-01 0.45624311E+03</pdfrwt>
<totfact> 0.57835209E+04</totfact>
</mgrwt>
</event>
<event>
 7    0  0.4707675E-002  0.4547559E+03  0.7546771E-02  0.1026313E+00
         21   -1    0    0  502  501  0.00000000000E+00  0.00000000000E+00  0.34110650639E+03  0.34110650639E+03  0.00000000000E+00 0.  1.
         21   -1    0    0  501  502 -0.00000000000E+00 -0.00000000000E+00 -0.15156768986E+03  0.15156768986E+03  0.00000000000E+00 0.  1.
      99926    2    1    2    0    0  0.00000000000E+00  0.00000000000E+00  0.18953881653E+03  0.49267419625E+03  0.45475586931E+03 0.  0.
      99925    2    3    3    0    0  0.87003666163E+02  0.52140387806E+02  0.17312145785E+03  0.33079369794E+03  0.26299272511E+03 0.  0.
         25    1    4    4    0    0  0.75602483748E+02  0.65682162816E+01  0.10981030052E+03  0.18293355957E+03  0.12509000000E+03 0.  0.
         25    1    3    3    0    0 -0.87003666163E+02 -0.52140387806E+02  0.16417358678E+02  0.16188049831E+03  0.12509000000E+03 0.  0.
         25    1    4    4    0    0  0.11401182415E+02  0.45572171524E+02  0.63311157323E+02  0.14786013837E+03  0.12509000000E+03 0.  0.
<mgrwt>
<rscale>  2 0.45475587E+03</rscale>
<asrwt>0</asrwt>
<pdfrwt beam="1">  1       21 0.50162721E-01 0.45475587E+03</pdfrwt>
<pdfrwt beam="2">  1       21 0.22289366E-01 0.45475587E+03</pdfrwt>
<totfact> 0.65916099E+04</totfact>
</mgrwt>
</event>
<event>
 7    0  0.4707675E-002  0.4580165E+03  0.7546771E-02  0.1025358E+00
         21   -1    0    0  502  501  0.00000000000E+00  0.00000000000E+00  0.10742624547E+03  0.10742624547E+03  0.00000000000E+00 0. -1.
         21   -1    0    0  501  502 -0.00000000000E+00 -0.00000000000E+00 -0.48819329021E+03  0.48819329021E+03  0.00000000000E+00 0. -1.
      99926    2    1    2    0    0 -0.17763568394E-14 -0.35527136788E-14 -0.38076704474E+03  0.59561953568E+03  0.45801647232E+03 0.  0.
      99925    2    3    3    0    0  0.59311959030E+01 -0.16910674785E+02 -0.90105344596E+02  0.27867650919E+03  0.26309784044E+03 0.  0.
         25    1    4    4    0    0 -0.14175189084E+02 -0.15364357997E+02 -0.83409305084E+02  0.15179466314E+03  0.12509000000E+03 0.  0.
         25    1    3    3    0    0 -0.59311959030E+01  0.16910674785E+02 -0.29066170015E+03  0.31694302649E+03  0.12509000000E+03 0.  0.
         25    1    4    4    0    0  0.20106384987E+02 -0.15463167886E+01 -0.66960395117E+01  0.12688184605E+03  0.12509000000E+03 0.  0.
<mgrwt>
<rscale>  2 0.45801647E+03</rscale>
<asrwt>0</asrwt>
<pdfrwt beam="1">  1       21 0.15797977E-01 0.45801647E+03</pdfrwt>
<pdfrwt beam="2">  1       21 0.71793131E-01 0.45801647E+03</pdfrwt>
<totfact> 0.57564214E+04</totfact>
</mgrwt>
</event>
<event>
 7    0  0.4707675E-002  0.4602849E+03  0.7546771E-02  0.1024699E+00
         21   -1    0    0  502  501  0.00000000000E+00  0.00000000000E+00  0.13222296008E+03  0.13222296008E+03  0.00000000000E+00 0. -1.
         21   -1    0    0  501  502 -0.00000000000E+00 -0.00000000000E+00 -0.40057747159E+03  0.40057747159E+03  0.00000000000E+00 0. -1.
      99926    2    1    2    0    0  0.00000000000E+00 -0.17763568394E-14 -0.26835451151E+03  0.53280043167E+03  0.46028486412E+03 0.  0.
      99925    2    3    3    0    0 -0.18002190152E+02 -0.48588895150E+01 -0.30314943403E+03  0.40162923669E+03  0.26279036656E+03 0.  0.
         25    1    4    4    0    0 -0.43435136064E+02  0.12584983904E+02 -0.13185267101E+03  0.18729022350E+03  0.12509000000E+03 0.  0.
         25    1    4    4    0    0  0.25432945912E+02 -0.17443873419E+02 -0.17129676302E+03  0.21433901319E+03  0.12509000000E+03 0.  0.
         25    1    3    3    0    0  0.18002190152E+02  0.48588895150E+01  0.34794922521E+02  0.13117119497E+03  0.12509000000E+03 0.  0.
<mgrwt>
<rscale>  2 0.46028486E+03</rscale>
<asrwt>0</asrwt>
<pdfrwt beam="1">  1       21 0.19444553E-01 0.46028486E+03</pdfrwt>
<pdfrwt beam="2">  1       21 0.58908451E-01 0.46028486E+03</pdfrwt>
<totfact> 0.60445434E+04</totfact>
</mgrwt>
</event>
<event>
 7    0  0.4707675E-002  0.4733340E+03  0.7546771E-02  0.1020983E+00
         21   -1    0    0  502  501  0.00000000000E+00  0.00000000000E+00  0.10848933778E+04  0.10848933778E+04  0.00000000000E+00 0.  1.
         21   -1    0    0  501  502 -0.00000000000E+00 -0.00000000000E+00 -0.51628358514E+02  0.51628358514E+02  0.00000000000E+00 0.  1.
      99926    2    1    2    0    0 -0.71054273576E-14  0.00000000000E+00  0.10332650193E+04  0.11365217364E+04  0.47333398044E+03 0.  0.
      99925    2    3    3    0    0 -0.60458875384E+02  0.10166778130E+03  0.76714429816E+03  0.81956849106E+03  0.26304091692E+03 0.  0.
         25    1    4    4    0    0 -0.45781502712E+02  0.91717829821E+02  0.41067394308E+03  0.44137138775E+03  0.12509000000E+03 0.  0.
         25    1    4    4    0    0 -0.14677372672E+02  0.99499514826E+01  0.35647035508E+03  0.37819710331E+03  0.12509000000E+03 0.  0.
         25    1    3    3    0    0  0.60458875384E+02 -0.10166778130E+03  0.26612072117E+03  0.31695324530E+03  0.12509000000E+03 0.  0.
<mgrwt>
<rscale>  2 0.47333398E+03</rscale>
<asrwt>0</asrwt>
<pdfrwt beam="1">  1       21 0.15954313E+00 0.47333398E+03</pdfrwt>
<pdfrwt beam="2">  1       21 0.75924064E-02 0.47333398E+03</pdfrwt>
<totfact> 0.29750953E+04</totfact>
</mgrwt>
</event>
<event>
 7    0  0.4707675E-002  0.4559134E+03  0.7546771E-02  0.1025973E+00
         21   -1    0    0  502  501  0.00000000000E+00  0.00000000000E+00  0.69671039201E+03  0.69671039201E+03  0.00000000000E+00 0.  1.
         21   -1    0    0  501  502 -0.00000000000E+00 -0.00000000000E+00 -0.74585161411E+02  0.74585161411E+02  0.00000000000E+00 0.  1.
      99926    2    1    2    0    0 -0.35527136788E-14  0.14210854715E-13  0.62212523060E+03  0.77129555342E+03  0.45591339987E+03 0.  0.
      99925    2    3    3    0    0  0.27064892511E+02 -0.10333440131E+03  0.32334001856E+03  0.43022280762E+03  0.26293038943E+03 0.  0.
         25    1    4    4    0    0 -0.70186388755E+01 -0.39288593102E+02  0.10398228746E+03  0.16748934009E+03  0.12509000000E+03 0.  0.
         25    1    4    4    0    0  0.34083531387E+02 -0.64045808208E+02  0.21935773111E+03  0.26273346752E+03  0.12509000000E+03 0.  0.
         25    1    3    3    0    0 -0.27064892511E+02  0.10333440131E+03  0.29878521204E+03  0.34107274581E+03  0.12509000000E+03 0.  0.
<mgrwt>
<rscale>  2 0.45591340E+03</rscale>
<asrwt>0</asrwt>
<pdfrwt beam="1">  1       21 0.10245741E+00 0.45591340E+03</pdfrwt>
<pdfrwt beam="2">  1       21 0.10968406E-01 0.45591340E+03</pdfrwt>
<totfact> 0.48833431E+04</totfact>
</mgrwt>
</event>
<event>
 7    0  0.4707675E-002  0.4511763E+03  0.7546771E-02  0.1027372E+00
         21   -1    0    0  502  501  0.00000000000E+00  0.00000000000E+00  0.40429046493E+03  0.40429046493E+03  0.00000000000E+00 0.  1.
         21   -1    0    0  501  502 -0.00000000000E+00 -0.00000000000E+00 -0.12587485344E+03  0.12587485344E+03  0.00000000000E+00 0.  1.
      99926    2    1    2    0    0  0.17763568394E-14  0.00000000000E+00  0.27841561148E+03  0.53016531837E+03  0.45117625390E+03 0.  0.
      99925    2    3    3    0    0 -0.71576160630E+01 -0.10645988783E+03  0.20522499212E+03  0.35019500402E+03  0.26293403025E+03 0.  0.
         25    1    3    3    0    0  0.71576160630E+01  0.10645988783E+03  0.73190619359E+02  0.17997031435E+03  0.12509000000E+03 0.  0.
         25    1    4    4    0    0 -0.37001992017E+02 -0.29656134727E+02  0.90382794911E+02  0.16144717853E+03  0.12509000000E+03 0.  0.
         25    1    4    4    0    0  0.29844375954E+02 -0.76803753101E+02  0.11484219721E+03  0.18874782549E+03  0.12509000000E+03 0.  0.
<mgrwt>
<rscale>  2 0.45117625E+03</rscale>
<asrwt>0</asrwt>
<pdfrwt beam="1">  1       21 0.59454480E-01 0.45117625E+03</pdfrwt>
<pdfrwt beam="2">  1       21 0.18511008E-01 0.45117625E+03</pdfrwt>
<totfact> 0.65146114E+04</totfact>
</mgrwt>
</event>
<event>
 7    0  0.4707675E-002  0.4497524E+03  0.7546771E-02  0.1027796E+00
         21   -1    0    0  502  501  0.00000000000E+00  0.00000000000E+00  0.46386956383E+02  0.46386956383E+02  0.00000000000E+00 0. -1.
         21   -1    0    0  501  502 -0.00000000000E+00 -0.00000000000E+00 -0.10901623943E+04  0.10901623943E+04  0.00000000000E+00 0. -1.
      99926    2    1    2    0    0  0.00000000000E+00  0.00000000000E+00 -0.10437754379E+04  0.11365493507E+04  0.44975244495E+03 0.  0.
      99925    2    3    3    0    0  0.72352706647E+02 -0.41980595102E+02 -0.83319681188E+03  0.87772865914E+03  0.26304635946E+03 0.  0.
         25    1    4    4    0    0  0.60315116806E+02 -0.27645095342E+02 -0.54314453388E+03  0.56129818938E+03  0.12509000000E+03 0.  0.
         25    1    4    4    0    0  0.12037589841E+02 -0.14335499759E+02 -0.29005227800E+03  0.31643046977E+03  0.12509000000E+03 0.  0.
         25    1    3    3    0    0 -0.72352706647E+02  0.41980595102E+02 -0.21057862600E+03  0.25882069151E+03  0.12509000000E+03 0.  0.
<mgrwt>
<rscale>  2 0.44975244E+03</rscale>
<asrwt>0</asrwt>
<pdfrwt beam="1">  1       21 0.68216118E-02 0.44975244E+03</pdfrwt>
<pdfrwt beam="2">  1       21 0.16031799E+00 0.44975244E+03</pdfrwt>
<totfact> 0.35671549E+04</totfact>
</mgrwt>
</event>
<event>
 7    0  0.4707675E-002  0.4506354E+03  0.7546771E-02  0.1027533E+00
         21   -1    0    0  502  501  0.00000000000E+00  0.00000000000E+00  0.76392263119E+02  0.76392263119E+02  0.00000000000E+00 0.  1.
         21   -1    0    0  501  502 -0.00000000000E+00 -0.00000000000E+00 -0.66457067790E+03  0.66457067790E+03  0.00000000000E+00 0.  1.
      99926    2    1    2    0    0  0.00000000000E+00 -0.44408920985E-15 -0.58817841478E+03  0.74096294102E+03  0.45063536518E+03 0.  0.
      99925    2    3    3    0    0 -0.10846427261E+03  0.26633783140E+01 -0.35482193428E+03  0.45482600333E+03  0.26305226903E+03 0.  0.
         25    1    4    4    0    0 -0.59527742729E+02 -0.16444196203E+02 -0.23759587520E+03  0.27552363194E+03  0.12509000000E+03 0.  0.
         25    1    3    3    0    0  0.10846427261E+03 -0.26633783140E+01 -0.23335648050E+03  0.28613693768E+03  0.12509000000E+03 0.  0.
         25    1    4    4    0    0 -0.48936529883E+02  0.19107574517E+02 -0.11722605908E+03  0.17930237140E+03  0.12509000000E+03 0.  0.
<mgrwt>
<rscale>  2 0.45063537E+03</rscale>
<asrwt>0</asrwt>
<pdfrwt beam="1">  1       21 0.11234156E-01 0.45063537E+03</pdfrwt>
<pdfrwt beam="2">  1       21 0.97730986E-01 0.45063537E+03</pdfrwt>
<totfact> 0.52513472E+04</totfact>
</mgrwt>
</event>
<event>
 7    0  0.4707675E-002  0.4599611E+03  0.7546771E-02  0.1024792E+00
         21   -1    0    0  502  501  0.00000000000E+00  0.00000000000E+00  0.63591464422E+02  0.63591464422E+02  0.00000000000E+00 0. -1.
         21   -1    0    0  501  502 -0.00000000000E+00 -0.00000000000E+00 -0.83173201228E+03  0.83173201228E+03  0.00000000000E+00 0. -1.
      99926    2    1    2    0    0  0.00000000000E+00  0.00000000000E+00 -0.76814054786E+03  0.89532347671E+03  0.45996111430E+03 0.  0.
      99925    2    3    3    0    0 -0.58511132479E+02  0.99693765331E+02 -0.52461297693E+03  0.59814409422E+03  0.26304977175E+03 0.  0.
         25    1    4    4    0    0 -0.35891647547E+01  0.28024603221E+02 -0.18464939517E+03  0.22481362887E+03  0.12509000000E+03 0.  0.
         25    1    3    3    0    0  0.58511132479E+02 -0.99693765331E+02 -0.24352757093E+03  0.29717938249E+03  0.12509000000E+03 0.  0.
         25    1    4    4    0    0 -0.54921967724E+02  0.71669162110E+02 -0.33996358176E+03  0.37333046535E+03  0.12509000000E+03 0.  0.
<mgrwt>
<rscale>  2 0.45996111E+03</rscale>
<asrwt>0</asrwt>
<pdfrwt beam="1">  1       21 0.93516864E-02 0.45996111E+03</pdfrwt>
<pdfrwt beam="2">  1       21 0.12231353E+00 0.45996111E+03</pdfrwt>
<totfact> 0.41789352E+04</totfact>
</mgrwt>
</event>
<event>
 7    0  0.4707675E-002  0.4724220E+03  0.7546771E-02  0.1021239E+00
         21   -1    0    0  502  501  0.00000000000E+00  0.00000000000E+00  0.13059026977E+04  0.13059026977E+04  0.00000000000E+00 0. -1.
         21   -1    0    0  501  502 -0.00000000000E+00 -0.00000000000E+00 -0.42725720046E+02  0.42725720046E+02  0.00000000000E+00 0. -1.
      99926    2    1    2    0    0  0.00000000000E+00  0.14210854715E-13  0.12631769776E+04  0.13486284177E+04  0.47242198538E+03 0.  0.
      99925    2    3    3    0    0 -0.71139606871E+02  0.92769296245E+02  0.93763784344E+03  0.98081022625E+03  0.26297716339E+03 0.  0.
         25    1    4    4    0    0 -0.51626767795E+02  0.63174327270E+02  0.61695058038E+03  0.63476912772E+03  0.12509000000E+03 0.  0.
         25    1    3    3    0    0  0.71139606871E+02 -0.92769296245E+02  0.32553913418E+03  0.36781819147E+03  0.12509000000E+03 0.  0.
         25    1    4    4    0    0 -0.19512839076E+02  0.29594968975E+02  0.32068726307E+03  0.34604109853E+03  0.12509000000E+03 0.  0.
<mgrwt>
<rscale>  2 0.47242199E+03</rscale>
<asrwt>0</asrwt>
<pdfrwt beam="1">  1       21 0.19204449E+00 0.47242199E+03</pdfrwt>
<pdfrwt beam="2">  1       21 0.62831949E-02 0.47242199E+03</pdfrwt>
<totfact> 0.24275247E+04</totfact>
</mgrwt>
</event>
<event>
 7    0  0.4707675E-002  0.4736757E+03  0.7546771E-02  0.1020888E+00
         21   -1    0    0  502  501  0.00000000000E+00  0.00000000000E+00  0.15432238550E+03  0.15432238550E+03  0.00000000000E+00 0.  1.
         21   -1    0    0  501  502 -0.00000000000E+00 -0.00000000000E+00 -0.36347391593E+03  0.36347391593E+03  0.00000000000E+00 0.  1.
      99926    2    1    2    0    0  0.00000000000E+00  0.00000000000E+00 -0.20915153042E+03  0.51779630143E+03  0.47367567712E+03 0.  0.
      99925    2    3    3    0    0 -0.96502062628E+02  0.82289985126E+02 -0.98445105057E+02  0.30806382788E+03  0.26292126882E+03 0.  0.
         25    1    3    3    0    0  0.96502062628E+02 -0.82289985126E+02 -0.11070642536E+03  0.20973247355E+03  0.12509000000E+03 0.  0.
         25    1    4    4    0    0 -0.45540156296E+02  0.40237302234E+02 -0.62587875539E+01  0.13921072821E+03  0.12509000000E+03 0.  0.
         25    1    4    4    0    0 -0.50961906332E+02  0.42052682892E+02 -0.92186317503E+02  0.16885309968E+03  0.12509000000E+03 0.  0.
<mgrwt>
<rscale>  2 0.47367568E+03</rscale>
<asrwt>0</asrwt>
<pdfrwt beam="1">  1       21 0.22694468E-01 0.47367568E+03</pdfrwt>
<pdfrwt beam="2">  1       21 0.53452047E-01 0.47367568E+03</pdfrwt>
<totfact> 0.55364761E+04</totfact>
</mgrwt>
</event>
<event>
 7    0  0.4707675E-002  0.4526683E+03  0.7546771E-02  0.1026929E+00
         21   -1    0    0  502  501  0.00000000000E+00  0.00000000000E+00  0.92012552609E+02  0.92012552609E+02  0.00000000000E+00 0. -1.
         21   -1    0    0  501  502 -0.00000000000E+00 -0.00000000000E+00 -0.55674078557E+03  0.55674078557E+03  0.00000000000E+00 0. -1.
      99926    2    1    2    0    0  0.00000000000E+00  0.71054273576E-14 -0.46472823296E+03  0.64875333818E+03  0.45266827069E+03 0.  0.
      99925    2    3    3    0    0  0.84329177793E+02  0.36173645523E+02 -0.38244613784E+03  0.47314640741E+03  0.26302572429E+03 0.  0.
         25    1    3    3    0    0 -0.84329177793E+02 -0.36173645523E+02 -0.82282095124E+02  0.17560693077E+03  0.12509000000E+03 0.  0.
         25    1    4    4    0    0  0.58959960880E+02 -0.18863486898E+02 -0.19009981185E+03  0.23583374375E+03  0.12509000000E+03 0.  0.
         25    1    4    4    0    0  0.25369216914E+02  0.55037132421E+02 -0.19234632599E+03  0.23731266366E+03  0.12509000000E+03 0.  0.
<mgrwt>
<rscale>  2 0.45266827E+03</rscale>
<asrwt>0</asrwt>
<pdfrwt beam="1">  1       21 0.13531258E-01 0.45266827E+03</pdfrwt>
<pdfrwt beam="2">  1       21 0.81873644E-01 0.45266827E+03</pdfrwt>
<totfact> 0.56811236E+04</totfact>
</mgrwt>
</event>
<event>
 7    0  0.4707675E-002  0.4424106E+03  0.7546771E-02  0.1030010E+00
         21   -1    0    0  502  501  0.00000000000E+00  0.00000000000E+00  0.40729432549E+02  0.40729432549E+02  0.00000000000E+00 0. -1.
         21   -1    0    0  501  502 -0.00000000000E+00 -0.00000000000E+00 -0.12013863358E+04  0.12013863358E+04  0.00000000000E+00 0. -1.
      99926    2    1    2    0    0  0.00000000000E+00 -0.14210854715E-13 -0.11606569032E+04  0.12421157683E+04  0.44241059539E+03 0.  0.
      99925    2    3    3    0    0 -0.51567096736E+01 -0.95329496908E+02 -0.65694438961E+03  0.71439604242E+03  0.26395353710E+03 0.  0.
         25    1    4    4    0    0  0.39029437393E+02 -0.40755580678E+02 -0.32385120554E+03  0.35172635069E+03  0.12509000000E+03 0.  0.
         25    1    4    4    0    0 -0.44186147067E+02 -0.54573916231E+02 -0.33309318407E+03  0.36266969173E+03  0.12509000000E+03 0.  0.
         25    1    3    3    0    0  0.51567096736E+01  0.95329496908E+02 -0.50371251359E+03  0.52771972588E+03  0.12509000000E+03 0.  0.
<mgrwt>
<rscale>  2 0.44241060E+03</rscale>
<asrwt>0</asrwt>
<pdfrwt beam="1">  1       21 0.59896223E-02 0.44241060E+03</pdfrwt>
<pdfrwt beam="2">  1       21 0.17667447E+00 0.44241060E+03</pdfrwt>
<totfact> 0.34060233E+04</totfact>
</mgrwt>
</event>
<event>
 7    0  0.4707675E-002  0.4314326E+03  0.7546771E-02  0.1033408E+00
         21   -1    0    0  502  501  0.00000000000E+00  0.00000000000E+00  0.77745849597E+03  0.77745849597E+03  0.00000000000E+00 0.  1.
         21   -1    0    0  501  502 -0.00000000000E+00 -0.00000000000E+00 -0.59853380373E+02  0.59853380373E+02  0.00000000000E+00 0.  1.
      99926    2    1    2    0    0  0.00000000000E+00  0.00000000000E+00  0.71760511560E+03  0.83731187634E+03  0.43143258608E+03 0.  0.
      99925    2    3    3    0    0 -0.66443904648E+02  0.43742693678E+02  0.54007083241E+03  0.60602386213E+03  0.26317333020E+03 0.  0.
         25    1    3    3    0    0  0.66443904648E+02 -0.43742693678E+02  0.17753428318E+03  0.23128801422E+03  0.12509000000E+03 0.  0.
         25    1    4    4    0    0 -0.11676330539E+02  0.11018254691E+02  0.33063055148E+03  0.35386693587E+03  0.12509000000E+03 0.  0.
         25    1    4    4    0    0 -0.54767574109E+02  0.32724438987E+02  0.20944028094E+03  0.25215692626E+03  0.12509000000E+03 0.  0.
<mgrwt>
<rscale>  2 0.43143259E+03</rscale>
<asrwt>0</asrwt>
<pdfrwt beam="1">  1       21 0.11433213E+00 0.43143259E+03</pdfrwt>
<pdfrwt beam="2">  1       21 0.88019682E-02 0.43143259E+03</pdfrwt>
<totfact> 0.55601128E+04</totfact>
</mgrwt>
</event>
<event>
 7    0  0.4707675E-002  0.4567462E+03  0.7546771E-02  0.1025729E+00
         21   -1    0    0  502  501  0.00000000000E+00  0.00000000000E+00  0.98201529222E+02  0.98201529222E+02  0.00000000000E+00 0.  1.
         21   -1    0    0  501  502 -0.00000000000E+00 -0.00000000000E+00 -0.53109438543E+03  0.53109438543E+03  0.00000000000E+00 0.  1.
      99926    2    1    2    0    0 -0.35527136788E-14  0.00000000000E+00 -0.43289285621E+03  0.62929591466E+03  0.45674623506E+03 0.  0.
      99925    2    3    3    0    0 -0.24389875578E+02  0.42564685567E+02 -0.41503680836E+03  0.49374900384E+03  0.26291806329E+03 0.  0.
         25    1    4    4    0    0 -0.49948024139E+02  0.16993631197E+02 -0.18583147816E+03  0.23014003344E+03  0.12509000000E+03 0.  0.
         25    1    4    4    0    0  0.25558148561E+02  0.25571054369E+02 -0.22920533020E+03  0.26360897039E+03  0.12509000000E+03 0.  0.
         25    1    3    3    0    0  0.24389875578E+02 -0.42564685567E+02 -0.17856047848E+02  0.13554691082E+03  0.12509000000E+03 0.  0.
<mgrwt>
<rscale>  2 0.45674624E+03</rscale>
<asrwt>0</asrwt>
<pdfrwt beam="1">  1       21 0.14441401E-01 0.45674624E+03</pdfrwt>
<pdfrwt beam="2">  1       21 0.78102115E-01 0.45674624E+03</pdfrwt>
<totfact> 0.56132490E+04</totfact>
</mgrwt>
</event>
<event>
 7    0  0.4707675E-002  0.4623604E+03  0.7546771E-02  0.1024099E+00
         21   -1    0    0  502  501  0.00000000000E+00  0.00000000000E+00  0.70543353873E+03  0.70543353873E+03  0.00000000000E+00 0.  1.
         21   -1    0    0  501  502 -0.00000000000E+00 -0.00000000000E+00 -0.75760897662E+02  0.75760897662E+02  0.00000000000E+00 0.  1.
      99926    2    1    2    0    0  0.14210854715E-13 -0.71054273576E-14  0.62967264107E+03  0.78119443640E+03  0.46236037086E+03 0.  0.
      99925    2    3    3    0    0 -0.85285310347E+02  0.59646129235E+02  0.49387318795E+03  0.56925047102E+03  0.26325677215E+03 0.  0.
         25    1    4    4    0    0  0.40038107407E+00  0.26682913952E+02  0.22579632594E+03  0.25950650688E+03  0.12509000000E+03 0.  0.
         25    1    3    3    0    0  0.85285310347E+02 -0.59646129235E+02  0.13579945312E+03  0.21194396538E+03  0.12509000000E+03 0.  0.
         25    1    4    4    0    0 -0.85685691421E+02  0.32963215283E+02  0.26807686201E+03  0.30974396414E+03  0.12509000000E+03 0.  0.
<mgrwt>
<rscale>  2 0.46236037E+03</rscale>
<asrwt>0</asrwt>
<pdfrwt beam="1">  1       21 0.10374022E+00 0.46236037E+03</pdfrwt>
<pdfrwt beam="2">  1       21 0.11141309E-01 0.46236037E+03</pdfrwt>
<totfact> 0.45973818E+04</totfact>
</mgrwt>
</event>
<event>
 7    0  0.4707675E-002  0.4662571E+03  0.7546771E-02  0.1022982E+00
         21   -1    0    0  502  501  0.00000000000E+00  0.00000000000E+00  0.55902704556E+03  0.55902704556E+03  0.00000000000E+00 0. -1.
         21   -1    0    0  501  502 -0.00000000000E+00 -0.00000000000E+00 -0.97220556804E+02  0.97220556804E+02  0.00000000000E+00 0. -1.
      99926    2    1    2    0    0  0.00000000000E+00  0.00000000000E+00  0.46180648876E+03  0.65624760237E+03  0.46625709920E+03 0.  0.
      99925    2    3    3    0    0  0.60081123114E+02 -0.71751638526E+02  0.17433312848E+03  0.32906801872E+03  0.26293665068E+03 0.  0.
         25    1    4    4    0    0  0.30200595337E+02 -0.18211833376E+02  0.41115623843E+02  0.13631489081E+03  0.12509000000E+03 0.  0.
         25    1    4    4    0    0  0.29880527776E+02 -0.53539805150E+02  0.13321750464E+03  0.19275312790E+03  0.12509000000E+03 0.  0.
         25    1    3    3    0    0 -0.60081123114E+02  0.71751638526E+02  0.28747336028E+03  0.32717958365E+03  0.12509000000E+03 0.  0.
<mgrwt>
<rscale>  2 0.46625710E+03</rscale>
<asrwt>0</asrwt>
<pdfrwt beam="1">  1       21 0.82209859E-01 0.46625710E+03</pdfrwt>
<pdfrwt beam="2">  1       21 0.14297141E-01 0.46625710E+03</pdfrwt>
<totfact> 0.50689688E+04</totfact>
</mgrwt>
</event>
<event>
 7    0  0.4707675E-002  0.4525533E+03  0.7546771E-02  0.1026963E+00
         21   -1    0    0  502  501  0.00000000000E+00  0.00000000000E+00  0.16082412686E+04  0.16082412686E+04  0.00000000000E+00 0.  1.
         21   -1    0    0  501  502 -0.00000000000E+00 -0.00000000000E+00 -0.31836718488E+02  0.31836718488E+02  0.00000000000E+00 0.  1.
      99926    2    1    2    0    0  0.00000000000E+00 -0.22204460493E-15  0.15764045501E+04  0.16400779871E+04  0.45255330970E+03 0.  0.
      99925    2    3    3    0    0  0.11072955070E+03 -0.65934839076E+00  0.96697502681E+03  0.10081655564E+04  0.26286045426E+03 0.  0.
         25    1    3    3    0    0 -0.11072955070E+03  0.65934839076E+00  0.60942952332E+03  0.63191243075E+03  0.12509000000E+03 0.  0.
         25    1    4    4    0    0  0.39283390885E+02  0.26242313405E+02  0.55572772094E+03  0.57158783379E+03  0.12509000000E+03 0.  0.
         25    1    4    4    0    0  0.71446159817E+02 -0.26901661796E+02  0.41124730587E+03  0.43657772257E+03  0.12509000000E+03 0.  0.
<mgrwt>
<rscale>  2 0.45255331E+03</rscale>
<asrwt>0</asrwt>
<pdfrwt beam="1">  1       21 0.23650601E+00 0.45255331E+03</pdfrwt>
<pdfrwt beam="2">  1       21 0.46818714E-02 0.45255331E+03</pdfrwt>
<totfact> 0.20933955E+04</totfact>
</mgrwt>
</event>
<event>
 7    0  0.4707675E-002  0.4539433E+03  0.7546771E-02  0.1026553E+00
         21   -1    0    0  502  501  0.00000000000E+00  0.00000000000E+00  0.41733924498E+02  0.41733924498E+02  0.00000000000E+00 0. -1.
         21   -1    0    0  501  502 -0.00000000000E+00 -0.00000000000E+00 -0.12343948106E+04  0.12343948106E+04  0.00000000000E+00 0. -1.
      99926    2    1    2    0    0 -0.14210854715E-13  0.71054273576E-14 -0.11926608861E+04  0.12761287351E+04  0.45394334372E+03 0.  0.
      99925    2    3    3    0    0 -0.66809008956E+02  0.50579563648E+02 -0.54158261495E+03  0.60786818770E+03  0.26300241229E+03 0.  0.
         25    1    4    4    0    0 -0.70163811671E+02  0.11412187561E+02 -0.25705333135E+03  0.29457956778E+03  0.12509000000E+03 0.  0.
         25    1    3    3    0    0  0.66809008956E+02 -0.50579563648E+02 -0.65107827118E+03  0.66826054742E+03  0.12509000000E+03 0.  0.
         25    1    4    4    0    0  0.33548027142E+01  0.39167376087E+02 -0.28452928359E+03  0.31328861992E+03  0.12509000000E+03 0.  0.
<mgrwt>
<rscale>  2 0.45394334E+03</rscale>
<asrwt>0</asrwt>
<pdfrwt beam="1">  1       21 0.61373433E-02 0.45394334E+03</pdfrwt>
<pdfrwt beam="2">  1       21 0.18152861E+00 0.45394334E+03</pdfrwt>
<totfact> 0.30062449E+04</totfact>
</mgrwt>
</event>
<event>
 7    0  0.4707675E-002  0.4498602E+03  0.7546771E-02  0.1027764E+00
         21   -1    0    0  502  501  0.00000000000E+00  0.00000000000E+00  0.18614398453E+03  0.18614398453E+03  0.00000000000E+00 0.  1.
         21   -1    0    0  501  502 -0.00000000000E+00 -0.00000000000E+00 -0.27179789320E+03  0.27179789320E+03  0.00000000000E+00 0.  1.
      99926    2    1    2    0    0 -0.35527136788E-14 -0.16653345369E-14 -0.85653908671E+02  0.45794187773E+03  0.44986016861E+03 0.  0.
      99925    2    3    3    0    0  0.18536239962E+02 -0.40623700260E+00  0.54395883249E+02  0.26924845034E+03  0.26304383414E+03 0.  0.
         25    1    3    3    0    0 -0.18536239962E+02  0.40623700260E+00 -0.14004979192E+03  0.18869342738E+03  0.12509000000E+03 0.  0.
         25    1    4    4    0    0  0.28827875909E+02  0.30114241550E+02  0.83549001002E+01  0.13211822898E+03  0.12509000000E+03 0.  0.
         25    1    4    4    0    0 -0.10291635947E+02 -0.30520478553E+02  0.46040983149E+02  0.13713022136E+03  0.12509000000E+03 0.  0.
<mgrwt>
<rscale>  2 0.44986017E+03</rscale>
<asrwt>0</asrwt>
<pdfrwt beam="1">  1       21 0.27374116E-01 0.44986017E+03</pdfrwt>
<pdfrwt beam="2">  1       21 0.39970278E-01 0.44986017E+03</pdfrwt>
<totfact> 0.71202370E+04</totfact>
</mgrwt>
</event>
<event>
 7    0  0.4707675E-002  0.4554775E+03  0.7546771E-02  0.1026101E+00
         21   -1    0    0  502  501  0.00000000000E+00  0.00000000000E+00  0.12730461541E+04  0.12730461541E+04  0.00000000000E+00 0. -1.
         21   -1    0    0  501  502 -0.00000000000E+00 -0.00000000000E+00 -0.40740817665E+02  0.40740817665E+02  0.00000000000E+00 0. -1.
      99926    2    1    2    0    0  0.00000000000E+00  0.00000000000E+00  0.12323053364E+04  0.13137869718E+04  0.45547751314E+03 0.  0.
      99925    2    3    3    0    0 -0.19730234423E+02 -0.99967150960E+02  0.91949517114E+03  0.96182046621E+03  0.26314354646E+03 0.  0.
         25    1    4    4    0    0 -0.16756288180E+02 -0.92662788607E+02  0.48956627523E+03  0.51399398005E+03  0.12509000000E+03 0.  0.
         25    1    3    3    0    0  0.19730234423E+02  0.99967150960E+02  0.31281016528E+03  0.35196650554E+03  0.12509000000E+03 0.  0.
         25    1    4    4    0    0 -0.29739462431E+01 -0.73043623526E+01  0.42992889592E+03  0.44782648616E+03  0.12509000000E+03 0.  0.
<mgrwt>
<rscale>  2 0.45547751E+03</rscale>
<asrwt>0</asrwt>
<pdfrwt beam="1">  1       21 0.18721264E+00 0.45547751E+03</pdfrwt>
<pdfrwt beam="2">  1       21 0.59912975E-02 0.45547751E+03</pdfrwt>
<totfact> 0.28610520E+04</totfact>
</mgrwt>
</event>
<event>
 7    0  0.4707675E-002  0.4675257E+03  0.7546771E-02  0.1022621E+00
         21   -1    0    0  502  501  0.00000000000E+00  0.00000000000E+00  0.20708688076E+03  0.20708688076E+03  0.00000000000E+00 0.  1.
         21   -1    0    0  501  502 -0.00000000000E+00 -0.00000000000E+00 -0.26387514301E+03  0.26387514301E+03  0.00000000000E+00 0.  1.
      99926    2    1    2    0    0  0.00000000000E+00 -0.14210854715E-13 -0.56788262249E+02  0.47096202378E+03  0.46752574379E+03 0.  0.
      99925    2    3    3    0    0  0.66702419795E+02  0.10275479658E+03 -0.12714022957E+02  0.29041339405E+03  0.26300291261E+03 0.  0.
         25    1    4    4    0    0  0.16816131518E+02  0.89540392614E+02 -0.98957512960E+01  0.15506675396E+03  0.12509000000E+03 0.  0.
         25    1    3    3    0    0 -0.66702419795E+02 -0.10275479658E+03 -0.44074239292E+02  0.18054862972E+03  0.12509000000E+03 0.  0.
         25    1    4    4    0    0  0.49886288277E+02  0.13214403964E+02 -0.28182716613E+01  0.13534664010E+03  0.12509000000E+03 0.  0.
<mgrwt>
<rscale>  2 0.46752574E+03</rscale>
<asrwt>0</asrwt>
<pdfrwt beam="1">  1       21 0.30453953E-01 0.46752574E+03</pdfrwt>
<pdfrwt beam="2">  1       21 0.38805168E-01 0.46752574E+03</pdfrwt>
<totfact> 0.61057931E+04</totfact>
</mgrwt>
</event>
<event>
 6    0  0.4707675E-002  0.4479429E+03  0.7546771E-02  0.1028337E+00
         21   -1    0    0  502  501  0.00000000000E+00  0.00000000000E+00  0.22436557408E+03  0.22436557408E+03  0.00000000000E+00 0.  1.
         21   -1    0    0  501  502 -0.00000000000E+00 -0.00000000000E+00 -0.22357805392E+03  0.22357805392E+03  0.00000000000E+00 0.  1.
      99926    2    1    2    0    0  0.00000000000E+00 -0.71054273576E-14  0.78752015400E+00  0.44794362800E+03  0.44794293574E+03 0.  0.
         25    1    3    3    0    0  0.42459047867E+02  0.30893406321E+02 -0.79116672500E+02  0.15704817499E+03  0.12509000000E+03 0.  0.
         25    1    3    3    0    0 -0.11416420980E+02 -0.33575447528E+02  0.95104690375E+02  0.16109020944E+03  0.12509000000E+03 0.  0.
         25    1    3    3    0    0 -0.31042626887E+02  0.26820412072E+01 -0.15200497721E+02  0.12980524358E+03  0.12509000000E+03 0.  0.
<mgrwt>
<rscale>  2 0.44794294E+03</rscale>
<asrwt>0</asrwt>
<pdfrwt beam="1">  1       21 0.32994938E-01 0.44794294E+03</pdfrwt>
<pdfrwt beam="2">  1       21 0.32879125E-01 0.44794294E+03</pdfrwt>
<totfact> 0.73095844E+04</totfact>
</mgrwt>
</event>
<event>
 7    0  0.4707675E-002  0.4601574E+03  0.7546771E-02  0.1024736E+00
         21   -1    0    0  502  501  0.00000000000E+00  0.00000000000E+00  0.36503286959E+03  0.36503286959E+03  0.00000000000E+00 0. -1.
         21   -1    0    0  501  502 -0.00000000000E+00 -0.00000000000E+00 -0.14501766252E+03  0.14501766252E+03  0.00000000000E+00 0. -1.
      99926    2    1    2    0    0  0.71054273576E-14  0.00000000000E+00  0.22001520707E+03  0.51005053211E+03  0.46015742302E+03 0.  0.
      99925    2    3    3    0    0  0.57753118672E+02  0.76694933807E+02  0.21417402002E+03  0.35225584540E+03  0.26267115216E+03 0.  0.
         25    1    4    4    0    0 -0.60927643420E+01  0.48472582385E+02  0.82016287224E+02  0.15735594202E+03  0.12509000000E+03 0.  0.
         25    1    4    4    0    0  0.63845883014E+02  0.28222351423E+02  0.13215773279E+03  0.19489990337E+03  0.12509000000E+03 0.  0.
         25    1    3    3    0    0 -0.57753118672E+02 -0.76694933807E+02  0.58411870475E+01  0.15779468671E+03  0.12509000000E+03 0.  0.
<mgrwt>
<rscale>  2 0.46015742E+03</rscale>
<asrwt>0</asrwt>
<pdfrwt beam="1">  1       21 0.53681304E-01 0.46015742E+03</pdfrwt>
<pdfrwt beam="2">  1       21 0.21326127E-01 0.46015742E+03</pdfrwt>
<totfact> 0.61993429E+04</totfact>
</mgrwt>
</event>
<event>
 7    0  0.4707675E-002  0.4602442E+03  0.7546771E-02  0.1024710E+00
         21   -1    0    0  502  501  0.00000000000E+00  0.00000000000E+00  0.10581128067E+03  0.10581128067E+03  0.00000000000E+00 0. -1.
         21   -1    0    0  501  502 -0.00000000000E+00 -0.00000000000E+00 -0.50047773955E+03  0.50047773955E+03  0.00000000000E+00 0. -1.
      99926    2    1    2    0    0  0.00000000000E+00  0.00000000000E+00 -0.39466645888E+03  0.60628902023E+03  0.46024424199E+03 0.  0.
      99925    2    3    3    0    0 -0.10048416269E+03 -0.53289327402E+02 -0.28877876642E+03  0.40679834155E+03  0.26297318377E+03 0.  0.
         25    1    4    4    0    0 -0.56850541639E+02 -0.28951354513E+01 -0.18801470610E+03  0.23288925202E+03  0.12509000000E+03 0.  0.
         25    1    3    3    0    0  0.10048416269E+03  0.53289327402E+02 -0.10588769245E+03  0.19949067868E+03  0.12509000000E+03 0.  0.
         25    1    4    4    0    0 -0.43633621051E+02 -0.50394191951E+02 -0.10076406032E+03  0.17390908953E+03  0.12509000000E+03 0.  0.
<mgrwt>
<rscale>  2 0.46024424E+03</rscale>
<asrwt>0</asrwt>
<pdfrwt beam="1">  1       21 0.15560482E-01 0.46024424E+03</pdfrwt>
<pdfrwt beam="2">  1       21 0.73599669E-01 0.46024424E+03</pdfrwt>
<totfact> 0.55939017E+04</totfact>
</mgrwt>
</event>
<event>
 7    0  0.4707675E-002  0.4532361E+03  0.7546771E-02  0.1026761E+00
         21   -1    0    0  502  501  0.00000000000E+00  0.00000000000E+00  0.29447882545E+03  0.29447882545E+03  0.00000000000E+00 0. -1.
         21   -1    0    0  501  502 -0.00000000000E+00 -0.00000000000E+00 -0.17439534064E+03  0.17439534064E+03  0.00000000000E+00 0. -1.
      99926    2    1    2    0    0  0.00000000000E+00  0.00000000000E+00  0.12008348482E+03  0.46887416609E+03  0.45323607568E+03 0.  0.
      99925    2    3    3    0    0 -0.96014536434E+02  0.11521012015E+02  0.13314292141E+03  0.31022492434E+03  0.26298467871E+03 0.  0.
         25    1    4    4    0    0 -0.38805339828E+02 -0.24817187619E+01  0.10782499747E+03  0.16966364226E+03  0.12509000000E+03 0.  0.
         25    1    4    4    0    0 -0.57209196606E+02  0.14002730777E+02  0.25317923935E+02  0.14056128207E+03  0.12509000000E+03 0.  0.
         25    1    3    3    0    0  0.96014536434E+02 -0.11521012015E+02 -0.13059436588E+02  0.15864924175E+03  0.12509000000E+03 0.  0.
<mgrwt>
<rscale>  2 0.45323608E+03</rscale>
<asrwt>0</asrwt>
<pdfrwt beam="1">  1       21 0.43305710E-01 0.45323608E+03</pdfrwt>
<pdfrwt beam="2">  1       21 0.25646373E-01 0.45323608E+03</pdfrwt>
<totfact> 0.68472694E+04</totfact>
</mgrwt>
</event>
<event>
 7    0  0.4707675E-002  0.4609961E+03  0.7546771E-02  0.1024493E+00
         21   -1    0    0  502  501  0.00000000000E+00  0.00000000000E+00  0.35247281940E+03  0.35247281940E+03  0.00000000000E+00 0.  1.
         21   -1    0    0  501  502 -0.00000000000E+00 -0.00000000000E+00 -0.15073317748E+03  0.15073317748E+03  0.00000000000E+00 0.  1.
      99926    2    1    2    0    0  0.00000000000E+00  0.00000000000E+00  0.20173964192E+03  0.50320599688E+03  0.46099608694E+03 0.  0.
      99925    2    3    3    0    0 -0.34848474088E+02 -0.10286272494E+03  0.73819112679E+02  0.29390638811E+03  0.26293829552E+03 0.  0.
         25    1    4    4    0    0 -0.26941296295E+01 -0.91135701296E+02  0.39263674055E+02  0.15969382764E+03  0.12509000000E+03 0.  0.
         25    1    4    4    0    0 -0.32154344458E+02 -0.11727023640E+02  0.34555438624E+02  0.13421256048E+03  0.12509000000E+03 0.  0.
         25    1    3    3    0    0  0.34848474088E+02  0.10286272494E+03  0.12792052924E+03  0.20929960876E+03  0.12509000000E+03 0.  0.
<mgrwt>
<rscale>  2 0.46099609E+03</rscale>
<asrwt>0</asrwt>
<pdfrwt beam="1">  1       21 0.51834238E-01 0.46099609E+03</pdfrwt>
<pdfrwt beam="2">  1       21 0.22166644E-01 0.46099609E+03</pdfrwt>
<totfact> 0.62040069E+04</totfact>
</mgrwt>
</event>
<event>
 7    0  0.4707675E-002  0.4601162E+03  0.7546771E-02  0.1024748E+00
         21   -1    0    0  502  501  0.00000000000E+00  0.00000000000E+00  0.66197777935E+03  0.66197777935E+03  0.00000000000E+00 0.  1.
         21   -1    0    0  501  502 -0.00000000000E+00 -0.00000000000E+00 -0.79952416328E+02  0.79952416328E+02  0.00000000000E+00 0.  1.
      99926    2    1    2    0    0  0.00000000000E+00  0.00000000000E+00  0.58202536302E+03  0.74193019568E+03  0.46011617235E+03 0.  0.
      99925    2    3    3    0    0 -0.86001593979E+02  0.73136848013E+02  0.30983006030E+03  0.42180043507E+03  0.26301267661E+03 0.  0.
         25    1    4    4    0    0 -0.50691303322E+02  0.62837887679E+02  0.21078405556E+03  0.25806129997E+03  0.12509000000E+03 0.  0.
         25    1    3    3    0    0  0.86001593979E+02 -0.73136848013E+02  0.27219530272E+03  0.32012976061E+03  0.12509000000E+03 0.  0.
         25    1    4    4    0    0 -0.35310290657E+02  0.10298960333E+02  0.99046004737E+02  0.16373913510E+03  0.12509000000E+03 0.  0.
<mgrwt>
<rscale>  2 0.46011617E+03</rscale>
<asrwt>0</asrwt>
<pdfrwt beam="1">  1       21 0.97349670E-01 0.46011617E+03</pdfrwt>
<pdfrwt beam="2">  1       21 0.11757709E-01 0.46011617E+03</pdfrwt>
<totfact> 0.48696552E+04</totfact>
</mgrwt>
</event>
<event>
 7    0  0.4707675E-002  0.4525713E+03  0.7546771E-02  0.1026958E+00
         21   -1    0    0  502  501  0.00000000000E+00  0.00000000000E+00  0.95523892235E+02  0.95523892235E+02  0.00000000000E+00 0.  1.
         21   -1    0    0  501  502 -0.00000000000E+00 -0.00000000000E+00 -0.53604583323E+03  0.53604583323E+03  0.00000000000E+00 0.  1.
      99926    2    1    2    0    0  0.71054273576E-14  0.00000000000E+00 -0.44052194100E+03  0.63156972547E+03  0.45257125144E+03 0.  0.
      99925    2    3    3    0    0 -0.53950443116E+02 -0.21416673471E+02 -0.14563381637E+03  0.30603042160E+03  0.26282329855E+03 0.  0.
         25    1    4    4    0    0 -0.18128966658E+01 -0.67516723332E+00 -0.10417717175E+03  0.16280090190E+03  0.12509000000E+03 0.  0.
         25    1    4    4    0    0 -0.52137546450E+02 -0.20741506237E+02 -0.41456644617E+02  0.14322951970E+03  0.12509000000E+03 0.  0.
         25    1    3    3    0    0  0.53950443116E+02  0.21416673471E+02 -0.29488812463E+03  0.32553930387E+03  0.12509000000E+03 0.  0.
<mgrwt>
<rscale>  2 0.45257125E+03</rscale>
<asrwt>0</asrwt>
<pdfrwt beam="1">  1       21 0.14047631E-01 0.45257125E+03</pdfrwt>
<pdfrwt beam="2">  1       21 0.78830269E-01 0.45257125E+03</pdfrwt>
<totfact> 0.57877592E+04</totfact>
</mgrwt>
</event>
<event>
 7    0  0.4707675E-002  0.4558050E+03  0.7546771E-02  0.1026005E+00
         21   -1    0    0  502  501  0.00000000000E+00  0.00000000000E+00  0.16110026625E+03  0.16110026625E+03  0.00000000000E+00 0. -1.
         21   -1    0    0  501  502 -0.00000000000E+00 -0.00000000000E+00 -0.32240510516E+03  0.32240510516E+03  0.00000000000E+00 0. -1.
      99926    2    1    2    0    0 -0.14210854715E-13  0.71054273576E-14 -0.16130483891E+03  0.48350537142E+03  0.45580499463E+03 0.  0.
      99925    2    3    3    0    0  0.10172944554E+03 -0.34232848979E+02 -0.14199071881E+03  0.31754962017E+03  0.26297457862E+03 0.  0.
         25    1    3    3    0    0 -0.10172944554E+03  0.34232848979E+02 -0.19314120096E+02  0.16595575125E+03  0.12509000000E+03 0.  0.
         25    1    4    4    0    0  0.79294217596E+02 -0.16292597507E+02 -0.41865730039E+02  0.15476843712E+03  0.12509000000E+03 0.  0.
         25    1    4    4    0    0  0.22435227942E+02 -0.17940251472E+02 -0.10012498877E+03  0.16278118304E+03  0.12509000000E+03 0.  0.
<mgrwt>
<rscale>  2 0.45580499E+03</rscale>
<asrwt>0</asrwt>
<pdfrwt beam="1">  1       21 0.23691216E-01 0.45580499E+03</pdfrwt>
<pdfrwt beam="2">  1       21 0.47412515E-01 0.45580499E+03</pdfrwt>
<totfact> 0.66022907E+04</totfact>
</mgrwt>
</event>
<event>
 7    0  0.4707675E-002  0.4730675E+03  0.7546771E-02  0.1021058E+00
         21   -1    0    0  502  501  0.00000000000E+00  0.00000000000E+00  0.58902948006E+02  0.58902948006E+02  0.00000000000E+00 0.  1.
         21   -1    0    0  501  502 -0.00000000000E+00 -0.00000000000E+00 -0.94983709791E+03  0.94983709791E+03  0.00000000000E+00 0.  1.
      99926    2    1    2    0    0  0.00000000000E+00  0.00000000000E+00 -0.89093414990E+03  0.10087400459E+04  0.47306745900E+03 0.  0.
      99925    2    3    3    0    0  0.30028691197E+02  0.58371006802E+02 -0.31383036304E+03  0.41459765082E+03  0.26285512849E+03 0.  0.
         25    1    4    4    0    0  0.48738046581E+02  0.15268131536E+02 -0.18406685923E+03  0.22833446912E+03  0.12509000000E+03 0.  0.
         25    1    3    3    0    0 -0.30028691197E+02 -0.58371006802E+02 -0.57710378687E+03  0.59414239509E+03  0.12509000000E+03 0.  0.
         25    1    4    4    0    0 -0.18709355385E+02  0.43102875266E+02 -0.12976350381E+03  0.18626318170E+03  0.12509000000E+03 0.  0.
<mgrwt>
<rscale>  2 0.47306746E+03</rscale>
<asrwt>0</asrwt>
<pdfrwt beam="1">  1       21 0.86621981E-02 0.47306746E+03</pdfrwt>
<pdfrwt beam="2">  1       21 0.13968193E+00 0.47306746E+03</pdfrwt>
<totfact> 0.33801548E+04</totfact>
</mgrwt>
</event>
<event>
 7    0  0.4707675E-002  0.4622412E+03  0.7546771E-02  0.1024133E+00
         21   -1    0    0  502  501  0.00000000000E+00  0.00000000000E+00  0.56838732881E+03  0.56838732881E+03  0.00000000000E+00 0.  1.
         21   -1    0    0  501  502 -0.00000000000E+00 -0.00000000000E+00 -0.93979471903E+02  0.93979471903E+02  0.00000000000E+00 0.  1.
      99926    2    1    2    0    0  0.00000000000E+00  0.00000000000E+00  0.47440785691E+03  0.66236680071E+03  0.46224124004E+03 0.  0.
      99925    2    3    3    0    0 -0.11246730445E+03 -0.41345785803E+02  0.29884791059E+03  0.41573514941E+03  0.26299671522E+03 0.  0.
         25    1    4    4    0    0 -0.50524041397E+02  0.17497937211E+02  0.16250931235E+03  0.21193310564E+03  0.12509000000E+03 0.  0.
         25    1    4    4    0    0 -0.61943263049E+02 -0.58843723014E+02  0.13633859825E+03  0.20380204378E+03  0.12509000000E+03 0.  0.
         25    1    3    3    0    0  0.11246730445E+03  0.41345785803E+02  0.17555994631E+03  0.24663165130E+03  0.12509000000E+03 0.  0.
<mgrwt>
<rscale>  2 0.46224124E+03</rscale>
<asrwt>0</asrwt>
<pdfrwt beam="1">  1       21 0.83586370E-01 0.46224124E+03</pdfrwt>
<pdfrwt beam="2">  1       21 0.13820511E-01 0.46224124E+03</pdfrwt>
<totfact> 0.51962668E+04</totfact>
</mgrwt>
</event>
<event>
 7    0  0.4707675E-002  0.4552037E+03  0.7546771E-02  0.1026182E+00
         21   -1    0    0  502  501  0.00000000000E+00  0.00000000000E+00  0.11719244956E+03  0.11719244956E+03  0.00000000000E+00 0. -1.
         21   -1    0    0  501  502 -0.00000000000E+00 -0.00000000000E+00 -0.44203025835E+03  0.44203025835E+03  0.00000000000E+00 0. -1.
      99926    2    1    2    0    0  0.00000000000E+00 -0.14210854715E-13 -0.32483780879E+03  0.55922270791E+03  0.45520372914E+03 0.  0.
      99925    2    3    3    0    0  0.19394178138E+02  0.10021708861E+03 -0.14302597823E+03  0.31607121434E+03  0.26272606093E+03 0.  0.
         25    1    3    3    0    0 -0.19394178138E+02 -0.10021708861E+03 -0.18181183056E+03  0.24315149357E+03  0.12509000000E+03 0.  0.
         25    1    4    4    0    0  0.23966883164E+02  0.66470440139E+02 -0.36383394961E+02  0.14820253179E+03  0.12509000000E+03 0.  0.
         25    1    4    4    0    0 -0.45727050258E+01  0.33746648470E+02 -0.10664258327E+03  0.16786868255E+03  0.12509000000E+03 0.  0.
<mgrwt>
<rscale>  2 0.45520373E+03</rscale>
<asrwt>0</asrwt>
<pdfrwt beam="1">  1       21 0.17234184E-01 0.45520373E+03</pdfrwt>
<pdfrwt beam="2">  1       21 0.65004450E-01 0.45520373E+03</pdfrwt>
<totfact> 0.61162528E+04</totfact>
</mgrwt>
</event>
<event>
 7    0  0.4707675E-002  0.4521960E+03  0.7546771E-02  0.1027069E+00
         21   -1    0    0  502  501  0.00000000000E+00  0.00000000000E+00  0.31489498789E+03  0.31489498789E+03  0.00000000000E+00 0.  1.
         21   -1    0    0  501  502 -0.00000000000E+00 -0.00000000000E+00 -0.16234081253E+03  0.16234081253E+03  0.00000000000E+00 0.  1.
      99926    2    1    2    0    0  0.00000000000E+00  0.00000000000E+00  0.15255417535E+03  0.47723580042E+03  0.45219601147E+03 0.  0.
      99925    2    3    3    0    0 -0.23035645281E+02  0.85624838496E+02  0.26835615684E+02  0.27895590162E+03  0.26312352776E+03 0.  0.
         25    1    3    3    0    0  0.23035645281E+02 -0.85624838496E+02  0.12571855967E+03  0.19827989880E+03  0.12509000000E+03 0.  0.
         25    1    4    4    0    0 -0.33392233746E+02  0.31107128887E+02  0.45778984715E+02  0.14080453929E+03  0.12509000000E+03 0.  0.
         25    1    4    4    0    0  0.10356588464E+02  0.54517709609E+02 -0.18943369031E+02  0.13815136234E+03  0.12509000000E+03 0.  0.
<mgrwt>
<rscale>  2 0.45219601E+03</rscale>
<asrwt>0</asrwt>
<pdfrwt beam="1">  1       21 0.46308087E-01 0.45219601E+03</pdfrwt>
<pdfrwt beam="2">  1       21 0.23873649E-01 0.45219601E+03</pdfrwt>
<totfact> 0.68411781E+04</totfact>
</mgrwt>
</event>
<event>
 7    0  0.4707675E-002  0.4567671E+03  0.7546771E-02  0.1025723E+00
         21   -1    0    0  502  501  0.00000000000E+00  0.00000000000E+00  0.49807275530E+03  0.49807275530E+03  0.00000000000E+00 0.  1.
         21   -1    0    0  501  502 -0.00000000000E+00 -0.00000000000E+00 -0.10472175919E+03  0.10472175919E+03  0.00000000000E+00 0.  1.
      99926    2    1    2    0    0  0.00000000000E+00 -0.14210854715E-13  0.39335099610E+03  0.60279451449E+03  0.45676714042E+03 0.  0.
      99925    2    3    3    0    0  0.68604217361E+02  0.71005900238E+02  0.17006067504E+03  0.32846906527E+03  0.26310248410E+03 0.  0.
         25    1    4    4    0    0  0.24583661553E+02  0.70570313599E+02  0.11162599747E+03  0.18355488822E+03  0.12509000000E+03 0.  0.
         25    1    4    4    0    0  0.44020555808E+02  0.43558663875E+00  0.58434677565E+02  0.14491417705E+03  0.12509000000E+03 0.  0.
         25    1    3    3    0    0 -0.68604217361E+02 -0.71005900238E+02  0.22329032106E+03  0.27432544922E+03  0.12509000000E+03 0.  0.
<mgrwt>
<rscale>  2 0.45676714E+03</rscale>
<asrwt>0</asrwt>
<pdfrwt beam="1">  1       21 0.73245993E-01 0.45676714E+03</pdfrwt>
<pdfrwt beam="2">  1       21 0.15400259E-01 0.45676714E+03</pdfrwt>
<totfact> 0.57696817E+04</totfact>
</mgrwt>
</event>
<event>
 7    0  0.4707675E-002  0.4513603E+03  0.7546771E-02  0.1027317E+00
         21   -1    0    0  502  501  0.00000000000E+00  0.00000000000E+00  0.11703482476E+03  0.11703482476E+03  0.00000000000E+00 0. -1.
         21   -1    0    0  501  502 -0.00000000000E+00 -0.00000000000E+00 -0.43518261378E+03  0.43518261378E+03  0.00000000000E+00 0. -1.
      99926    2    1    2    0    0  0.71054273576E-14  0.00000000000E+00 -0.31814778902E+03  0.55221743854E+03  0.45136025941E+03 0.  0.
      99925    2    3    3    0    0 -0.63368924017E+02 -0.18326776189E+02 -0.93741008302E+02  0.28696773998E+03  0.26308100634E+03 0.  0.
         25    1    4    4    0    0 -0.46793112143E+02 -0.38402876907E+02 -0.74743738150E+02  0.15779261957E+03  0.12509000000E+03 0.  0.
         25    1    4    4    0    0 -0.16575811874E+02  0.20076100718E+02 -0.18997270153E+02  0.12917512041E+03  0.12509000000E+03 0.  0.
         25    1    3    3    0    0  0.63368924017E+02  0.18326776189E+02 -0.22440678072E+03  0.26524969856E+03  0.12509000000E+03 0.  0.
<mgrwt>
<rscale>  2 0.45136026E+03</rscale>
<asrwt>0</asrwt>
<pdfrwt beam="1">  1       21 0.17211004E-01 0.45136026E+03</pdfrwt>
<pdfrwt beam="2">  1       21 0.63997443E-01 0.45136026E+03</pdfrwt>
<totfact> 0.63529924E+04</totfact>
</mgrwt>
</event>
<event>
 7    0  0.4707675E-002  0.4561477E+03  0.7546771E-02  0.1025904E+00
         21   -1    0    0  502  501  0.00000000000E+00  0.00000000000E+00  0.13998374264E+03  0.13998374264E+03  0.00000000000E+00 0. -1.
         21   -1    0    0  501  502 -0.00000000000E+00 -0.00000000000E+00 -0.37159808569E+03  0.37159808569E+03  0.00000000000E+00 0. -1.
      99926    2    1    2    0    0  0.00000000000E+00  0.00000000000E+00 -0.23161434305E+03  0.51158182834E+03  0.45614774271E+03 0.  0.
      99925    2    3    3    0    0  0.14633507440E+02  0.11171658711E+03 -0.12439084467E+03  0.31198442835E+03  0.26299518232E+03 0.  0.
         25    1    4    4    0    0 -0.13016927940E+02  0.59885992706E+02 -0.10043110399E+03  0.17172561627E+03  0.12509000000E+03 0.  0.
         25    1    3    3    0    0 -0.14633507440E+02 -0.11171658711E+03 -0.10722349838E+03  0.19959739999E+03  0.12509000000E+03 0.  0.
         25    1    4    4    0    0  0.27650435380E+02  0.51830594404E+02 -0.23959740674E+02  0.14025881208E+03  0.12509000000E+03 0.  0.
<mgrwt>
<rscale>  2 0.45614774E+03</rscale>
<asrwt>0</asrwt>
<pdfrwt beam="1">  1       21 0.20585845E-01 0.45614774E+03</pdfrwt>
<pdfrwt beam="2">  1       21 0.54646777E-01 0.45614774E+03</pdfrwt>
<totfact> 0.63880576E+04</totfact>
</mgrwt>
</event>
<event>
 7    0  0.4707675E-002  0.4623316E+03  0.7546771E-02  0.1024107E+00
         21   -1    0    0  502  501  0.00000000000E+00  0.00000000000E+00  0.34429364932E+03  0.34429364932E+03  0.00000000000E+00 0.  1.
         21   -1    0    0  501  502 -0.00000000000E+00 -0.00000000000E+00 -0.15520943746E+03  0.15520943746E+03  0.00000000000E+00 0.  1.
      99926    2    1    2    0    0  0.00000000000E+00  0.00000000000E+00  0.18908421187E+03  0.49950308678E+03  0.46233158504E+03 0.  0.
      99925    2    3    3    0    0  0.32053539309E+02  0.83975644452E+02  0.32377058397E+02  0.27976693069E+03  0.26294851845E+03 0.  0.
         25    1    4    4    0    0  0.17304446899E+02  0.79925010459E+02 -0.80110662169E+00  0.14945099883E+03  0.12509000000E+03 0.  0.
         25    1    3    3    0    0 -0.32053539309E+02 -0.83975644452E+02  0.15670715347E+03  0.21973615609E+03  0.12509000000E+03 0.  0.
         25    1    4    4    0    0  0.14749092410E+02  0.40506339929E+01  0.33178165018E+02  0.13031593186E+03  0.12509000000E+03 0.  0.
<mgrwt>
<rscale>  2 0.46233159E+03</rscale>
<asrwt>0</asrwt>
<pdfrwt beam="1">  1       21 0.50631419E-01 0.46233159E+03</pdfrwt>
<pdfrwt beam="2">  1       21 0.22824917E-01 0.46233159E+03</pdfrwt>
<totfact> 0.61639203E+04</totfact>
</mgrwt>
</event>
<event>
 7    0  0.4707675E-002  0.4518571E+03  0.7546771E-02  0.1027170E+00
         21   -1    0    0  502  501  0.00000000000E+00  0.00000000000E+00  0.17493550713E+03  0.17493550713E+03  0.00000000000E+00 0. -1.
         21   -1    0    0  501  502 -0.00000000000E+00 -0.00000000000E+00 -0.29178585962E+03  0.29178585962E+03  0.00000000000E+00 0. -1.
      99926    2    1    2    0    0  0.14210854715E-13  0.00000000000E+00 -0.11685035249E+03  0.46672136676E+03  0.45185708948E+03 0.  0.
      99925    2    3    3    0    0  0.10397427237E+03 -0.19872399376E+02 -0.42103557223E+02  0.28660986497E+03  0.26299609046E+03 0.  0.
         25    1    4    4    0    0  0.31387519298E+02 -0.77796495596E+01  0.16186034444E+02  0.13021211590E+03  0.12509000000E+03 0.  0.
         25    1    3    3    0    0 -0.10397427237E+03  0.19872399376E+02 -0.74746795267E+02  0.18011150178E+03  0.12509000000E+03 0.  0.
         25    1    4    4    0    0  0.72586753072E+02 -0.12092749816E+02 -0.58289591667E+02  0.15639774908E+03  0.12509000000E+03 0.  0.
<mgrwt>
<rscale>  2 0.45185709E+03</rscale>
<asrwt>0</asrwt>
<pdfrwt beam="1">  1       21 0.25725810E-01 0.45185709E+03</pdfrwt>
<pdfrwt beam="2">  1       21 0.42909685E-01 0.45185709E+03</pdfrwt>
<totfact> 0.69394429E+04</totfact>
</mgrwt>
</event>
<event>
 6    0  0.4707675E-002  0.4559650E+03  0.7546771E-02  0.1025958E+00
         21   -1    0    0  502  501  0.00000000000E+00  0.00000000000E+00  0.36203772922E+03  0.36203772922E+03  0.00000000000E+00 0.  1.
         21   -1    0    0  501  502 -0.00000000000E+00 -0.00000000000E+00 -0.14356517267E+03  0.14356517267E+03  0.00000000000E+00 0.  1.
      99926    2    1    2    0    0  0.71054273576E-14  0.14210854715E-13  0.21847255655E+03  0.50560290190E+03  0.45596495089E+03 0.  0.
         25    1    3    3    0    0  0.60739922635E+02  0.93542672491E+02  0.44584278029E+02  0.17342097833E+03  0.12509000000E+03 0.  0.
         25    1    3    3    0    0 -0.15532611960E+02 -0.12671637121E+02  0.89533836676E+02  0.15513106856E+03  0.12509000000E+03 0.  0.
         25    1    3    3    0    0 -0.45207310675E+02 -0.80871035370E+02  0.84354441844E+02  0.17705085501E+03  0.12509000000E+03 0.  0.
<mgrwt>
<rscale>  2 0.45596495E+03</rscale>
<asrwt>0</asrwt>
<pdfrwt beam="1">  1       21 0.53240842E-01 0.45596495E+03</pdfrwt>
<pdfrwt beam="2">  1       21 0.21112525E-01 0.45596495E+03</pdfrwt>
<totfact> 0.64384268E+04</totfact>
</mgrwt>
</event>
<event>
 7    0  0.4707675E-002  0.4082525E+03  0.7546771E-02  0.1040959E+00
         21   -1    0    0  502  501  0.00000000000E+00  0.00000000000E+00  0.14042739905E+03  0.14042739905E+03  0.00000000000E+00 0.  1.
         21   -1    0    0  501  502 -0.00000000000E+00 -0.00000000000E+00 -0.29671930524E+03  0.29671930524E+03  0.00000000000E+00 0.  1.
      99926    2    1    2    0    0 -0.71054273576E-14  0.22204460493E-15 -0.15629190619E+03  0.43714670429E+03  0.40825247229E+03 0.  0.
      99925    2    3    3    0    0  0.59371251864E+02 -0.16784754831E+01 -0.10839700552E+03  0.29062301188E+03  0.26302863228E+03 0.  0.
         25    1    4    4    0    0 -0.95443608004E+01  0.12743959374E+02 -0.51816298800E+02  0.13633026166E+03  0.12509000000E+03 0.  0.
         25    1    3    3    0    0 -0.59371251864E+02  0.16784754831E+01 -0.47894900674E+02  0.14652369241E+03  0.12509000000E+03 0.  0.
         25    1    4    4    0    0  0.68915612665E+02 -0.14422434858E+02 -0.56580706716E+02  0.15429275021E+03  0.12509000000E+03 0.  0.
<mgrwt>
<rscale>  2 0.40825247E+03</rscale>
<asrwt>0</asrwt>
<pdfrwt beam="1">  1       21 0.20651088E-01 0.40825247E+03</pdfrwt>
<pdfrwt beam="2">  1       21 0.43635191E-01 0.40825247E+03</pdfrwt>
<totfact> 0.10326898E+05</totfact>
</mgrwt>
</event>
<event>
 7    0  0.4707675E-002  0.4480611E+03  0.7546771E-02  0.1028302E+00
         21   -1    0    0  502  501  0.00000000000E+00  0.00000000000E+00  0.72625954880E+02  0.72625954880E+02  0.00000000000E+00 0.  1.
         21   -1    0    0  501  502 -0.00000000000E+00 -0.00000000000E+00 -0.69107081550E+03  0.69107081550E+03  0.00000000000E+00 0.  1.
      99926    2    1    2    0    0  0.14210854715E-13  0.00000000000E+00 -0.61844486062E+03  0.76369677038E+03  0.44806105774E+03 0.  0.
      99925    2    3    3    0    0  0.10281513699E+03  0.26765034166E+02 -0.40543787959E+03  0.49479752993E+03  0.26297794958E+03 0.  0.
         25    1    4    4    0    0  0.11733976632E+02  0.71237567980E+01 -0.20905649413E+03  0.24400934399E+03  0.12509000000E+03 0.  0.
         25    1    3    3    0    0 -0.10281513699E+03 -0.26765034166E+02 -0.21300698102E+03  0.26889924045E+03  0.12509000000E+03 0.  0.
         25    1    4    4    0    0  0.91081160357E+02  0.19641277368E+02 -0.19638138547E+03  0.25078818594E+03  0.12509000000E+03 0.  0.
<mgrwt>
<rscale>  2 0.44806106E+03</rscale>
<asrwt>0</asrwt>
<pdfrwt beam="1">  1       21 0.10680288E-01 0.44806106E+03</pdfrwt>
<pdfrwt beam="2">  1       21 0.10162806E+00 0.44806106E+03</pdfrwt>
<totfact> 0.52365612E+04</totfact>
</mgrwt>
</event>
<event>
 7    0  0.4707675E-002  0.4547070E+03  0.7546771E-02  0.1026328E+00
         21   -1    0    0  502  501  0.00000000000E+00  0.00000000000E+00  0.79567728695E+02  0.79567728695E+02  0.00000000000E+00 0.  1.
         21   -1    0    0  501  502 -0.00000000000E+00 -0.00000000000E+00 -0.64963050722E+03  0.64963050722E+03  0.00000000000E+00 0.  1.
      99926    2    1    2    0    0  0.00000000000E+00  0.14210854715E-13 -0.57006277853E+03  0.72919823592E+03  0.45470704393E+03 0.  0.
      99925    2    3    3    0    0 -0.50137429918E+02  0.91846193269E+02 -0.29246104547E+03  0.40723594714E+03  0.26335939024E+03 0.  0.
         25    1    3    3    0    0  0.50137429918E+02 -0.91846193269E+02 -0.27760173306E+03  0.32196228878E+03  0.12509000000E+03 0.  0.
         25    1    4    4    0    0 -0.49364043618E+02  0.14833736303E+02 -0.15892737636E+03  0.20871575789E+03  0.12509000000E+03 0.  0.
         25    1    4    4    0    0 -0.77338629979E+00  0.77012456966E+02 -0.13353366911E+03  0.19852018925E+03  0.12509000000E+03 0.  0.
<mgrwt>
<rscale>  2 0.45470704E+03</rscale>
<asrwt>0</asrwt>
<pdfrwt beam="1">  1       21 0.11701137E-01 0.45470704E+03</pdfrwt>
<pdfrwt beam="2">  1       21 0.95533898E-01 0.45470704E+03</pdfrwt>
<totfact> 0.51464683E+04</totfact>
</mgrwt>
</event>
<event>
 6    0  0.4707675E-002  0.4561500E+03  0.7546771E-02  0.1025904E+00
         21   -1    0    0  502  501  0.00000000000E+00  0.00000000000E+00  0.12758354880E+03  0.12758354880E+03  0.00000000000E+00 0. -1.
         21   -1    0    0  501  502 -0.00000000000E+00 -0.00000000000E+00 -0.40771868451E+03  0.40771868451E+03  0.00000000000E+00 0. -1.
      99926    2    1    2    0    0  0.71054273576E-14  0.00000000000E+00 -0.28013513571E+03  0.53530223331E+03  0.45614996079E+03 0.  0.
         25    1    3    3    0    0  0.17762710467E+02  0.91871946504E+01 -0.67880696716E+02  0.14371922459E+03  0.12509000000E+03 0.  0.
         25    1    3    3    0    0 -0.53219075886E+02 -0.64456859087E+02 -0.19930403278E+03  0.24971295982E+03  0.12509000000E+03 0.  0.
         25    1    3    3    0    0  0.35456365419E+02  0.55269664437E+02 -0.12950406217E+02  0.14187004891E+03  0.12509000000E+03 0.  0.
<mgrwt>
<rscale>  2 0.45614996E+03</rscale>
<asrwt>0</asrwt>
<pdfrwt beam="1">  1       21 0.18762286E-01 0.45614996E+03</pdfrwt>
<pdfrwt beam="2">  1       21 0.59958631E-01 0.45614996E+03</pdfrwt>
<totfact> 0.62279407E+04</totfact>
</mgrwt>
</event>
<event>
 7    0  0.4707675E-002  0.4560860E+03  0.7546771E-02  0.1025923E+00
         21   -1    0    0  502  501  0.00000000000E+00  0.00000000000E+00  0.12902401288E+04  0.12902401288E+04  0.00000000000E+00 0.  1.
         21   -1    0    0  501  502 -0.00000000000E+00 -0.00000000000E+00 -0.40305379388E+02  0.40305379388E+02  0.00000000000E+00 0.  1.
      99926    2    1    2    0    0  0.00000000000E+00  0.00000000000E+00  0.12499347494E+04  0.13305455082E+04  0.45608603528E+03 0.  0.
      99925    2    3    3    0    0  0.26520806667E+02 -0.21166421834E+02  0.46761080857E+03  0.53755772322E+03  0.26297731252E+03 0.  0.
         25    1    4    4    0    0  0.68386272270E+01  0.27064623638E+02  0.25578888155E+03  0.28610264015E+03  0.12509000000E+03 0.  0.
         25    1    4    4    0    0  0.19682179440E+02 -0.48231045472E+02  0.21182192702E+03  0.25145508307E+03  0.12509000000E+03 0.  0.
         25    1    3    3    0    0 -0.26520806667E+02  0.21166421834E+02  0.78232394084E+03  0.79298778497E+03  0.12509000000E+03 0.  0.
<mgrwt>
<rscale>  2 0.45608604E+03</rscale>
<asrwt>0</asrwt>
<pdfrwt beam="1">  1       21 0.18974117E+00 0.45608604E+03</pdfrwt>
<pdfrwt beam="2">  1       21 0.59272625E-02 0.45608604E+03</pdfrwt>
<totfact> 0.28003166E+04</totfact>
</mgrwt>
</event>
<event>
 7    0  0.4707675E-002  0.4495338E+03  0.7546771E-02  0.1027861E+00
         21   -1    0    0  502  501  0.00000000000E+00  0.00000000000E+00  0.40981431042E+02  0.40981431042E+02  0.00000000000E+00 0. -1.
         21   -1    0    0  501  502 -0.00000000000E+00 -0.00000000000E+00 -0.12327574189E+04  0.12327574189E+04  0.00000000000E+00 0. -1.
      99926    2    1    2    0    0  0.14210854715E-13 -0.71054273576E-14 -0.11917759879E+04  0.12737388499E+04  0.44953381699E+03 0.  0.
      99925    2    3    3    0    0  0.92698051274E+02 -0.40795630816E+02 -0.85989007498E+03  0.90488524826E+03  0.26296227728E+03 0.  0.
         25    1    3    3    0    0 -0.92698051274E+02  0.40795630816E+02 -0.33188591288E+03  0.36885360168E+03  0.12509000000E+03 0.  0.
         25    1    4    4    0    0  0.26839627802E+02 -0.39414447391E+02 -0.51568270803E+03  0.53277577624E+03  0.12509000000E+03 0.  0.
         25    1    4    4    0    0  0.65858423472E+02 -0.13811834258E+01 -0.34420736695E+03  0.37210947203E+03  0.12509000000E+03 0.  0.
<mgrwt>
<rscale>  2 0.44953382E+03</rscale>
<asrwt>0</asrwt>
<pdfrwt beam="1">  1       21 0.60266819E-02 0.44953382E+03</pdfrwt>
<pdfrwt beam="2">  1       21 0.18128783E+00 0.44953382E+03</pdfrwt>
<totfact> 0.31192589E+04</totfact>
</mgrwt>
</event>
<event>
 7    0  0.4707675E-002  0.4610096E+03  0.7546771E-02  0.1024489E+00
         21   -1    0    0  502  501  0.00000000000E+00  0.00000000000E+00  0.11636120474E+04  0.11636120474E+04  0.00000000000E+00 0.  1.
         21   -1    0    0  501  502 -0.00000000000E+00 -0.00000000000E+00 -0.45661668654E+02  0.45661668654E+02  0.00000000000E+00 0.  1.
      99926    2    1    2    0    0  0.00000000000E+00 -0.14210854715E-13  0.11179503788E+04  0.12092737161E+04  0.46100962138E+03 0.  0.
      99925    2    3    3    0    0 -0.86613185901E+02 -0.74313167786E+02  0.78481598126E+03  0.83557554137E+03  0.26310847574E+03 0.  0.
         25    1    4    4    0    0 -0.66917608567E+02 -0.37884037856E+02  0.51143515295E+03  0.53209641084E+03  0.12509000000E+03 0.  0.
         25    1    3    3    0    0  0.86613185901E+02  0.74313167786E+02  0.33313439750E+03  0.37369817470E+03  0.12509000000E+03 0.  0.
         25    1    4    4    0    0 -0.19695577334E+02 -0.36429129930E+02  0.27338082831E+03  0.30347913052E+03  0.12509000000E+03 0.  0.
<mgrwt>
<rscale>  2 0.46100962E+03</rscale>
<asrwt>0</asrwt>
<pdfrwt beam="1">  1       21 0.17111940E+00 0.46100962E+03</pdfrwt>
<pdfrwt beam="2">  1       21 0.67149520E-02 0.46100962E+03</pdfrwt>
<totfact> 0.30414541E+04</totfact>
</mgrwt>
</event>
<event>
 7    0  0.4707675E-002  0.4599145E+03  0.7546771E-02  0.1024806E+00
         21   -1    0    0  502  501  0.00000000000E+00  0.00000000000E+00  0.23712254488E+03  0.23712254488E+03  0.00000000000E+00 0.  1.
         21   -1    0    0  501  502 -0.00000000000E+00 -0.00000000000E+00 -0.22300850197E+03  0.22300850197E+03  0.00000000000E+00 0.  1.
      99926    2    1    2    0    0  0.00000000000E+00 -0.35527136788E-14  0.14114042915E+02  0.46013104685E+03  0.45991452909E+03 0.  0.
      99925    2    3    3    0    0 -0.10243778802E+03  0.22222323436E+02 -0.44455832254E+02  0.28673764891E+03  0.26316311711E+03 0.  0.
         25    1    3    3    0    0  0.10243778802E+03 -0.22222323436E+02  0.58569875168E+02  0.17339339794E+03  0.12509000000E+03 0.  0.
         25    1    4    4    0    0 -0.49201520688E+02  0.45524457624E+02 -0.44754222082E+02  0.14880764219E+03  0.12509000000E+03 0.  0.
         25    1    4    4    0    0 -0.53236267330E+02 -0.23302134188E+02  0.29838982880E+00  0.13793000672E+03  0.12509000000E+03 0.  0.
<mgrwt>
<rscale>  2 0.45991453E+03</rscale>
<asrwt>0</asrwt>
<pdfrwt beam="1">  1       21 0.34870963E-01 0.45991453E+03</pdfrwt>
<pdfrwt beam="2">  1       21 0.32795368E-01 0.45991453E+03</pdfrwt>
<totfact> 0.65562680E+04</totfact>
</mgrwt>
</event>
<event>
 7    0  0.4707675E-002  0.4482950E+03  0.7546771E-02  0.1028232E+00
         21   -1    0    0  502  501  0.00000000000E+00  0.00000000000E+00  0.17831695342E+03  0.17831695342E+03  0.00000000000E+00 0.  1.
         21   -1    0    0  501  502 -0.00000000000E+00 -0.00000000000E+00 -0.28175724111E+03  0.28175724111E+03  0.00000000000E+00 0.  1.
      99926    2    1    2    0    0  0.71054273576E-14  0.00000000000E+00 -0.10344028770E+03  0.46007419453E+03  0.44829496022E+03 0.  0.
      99925    2    3    3    0    0  0.39037882363E+02 -0.19872392830E+02  0.34830681159E+02  0.26854028843E+03  0.26264394512E+03 0.  0.
         25    1    4    4    0    0 -0.19997343803E+02 -0.11403923751E+02  0.84433957341E+01  0.12747055451E+03  0.12509000000E+03 0.  0.
         25    1    4    4    0    0  0.59035226165E+02 -0.84684690796E+01  0.26387285425E+02  0.14106973392E+03  0.12509000000E+03 0.  0.
         25    1    3    3    0    0 -0.39037882363E+02  0.19872392830E+02 -0.13827096885E+03  0.19153390610E+03  0.12509000000E+03 0.  0.
<mgrwt>
<rscale>  2 0.44829496E+03</rscale>
<asrwt>0</asrwt>
<pdfrwt beam="1">  1       21 0.26223082E-01 0.44829496E+03</pdfrwt>
<pdfrwt beam="2">  1       21 0.41434888E-01 0.44829496E+03</pdfrwt>
<totfact> 0.71931597E+04</totfact>
</mgrwt>
</event>
<event>
 7    0  0.4707675E-002  0.4538763E+03  0.7546771E-02  0.1026572E+00
         21   -1    0    0  502  501  0.00000000000E+00  0.00000000000E+00  0.45026713062E+03  0.45026713062E+03  0.00000000000E+00 0.  1.
         21   -1    0    0  501  502 -0.00000000000E+00 -0.00000000000E+00 -0.11437861182E+03  0.11437861182E+03  0.00000000000E+00 0.  1.
      99926    2    1    2    0    0  0.00000000000E+00  0.14210854715E-13  0.33588851880E+03  0.56464574244E+03  0.45387632390E+03 0.  0.
      99925    2    3    3    0    0 -0.55586439153E+01 -0.99227574110E+02  0.14657019394E+03  0.31692423305E+03  0.26283290844E+03 0.  0.
         25    1    4    4    0    0  0.47663695745E+01 -0.90596992474E+02  0.91537018890E+02  0.17960252574E+03  0.12509000000E+03 0.  0.
         25    1    3    3    0    0  0.55586439153E+01  0.99227574110E+02  0.18931832486E+03  0.24772150939E+03  0.12509000000E+03 0.  0.
         25    1    4    4    0    0 -0.10325013490E+02 -0.86305816355E+01  0.55033175047E+02  0.13732170731E+03  0.12509000000E+03 0.  0.
<mgrwt>
<rscale>  2 0.45387632E+03</rscale>
<asrwt>0</asrwt>
<pdfrwt beam="1">  1       21 0.66215754E-01 0.45387632E+03</pdfrwt>
<pdfrwt beam="2">  1       21 0.16820384E-01 0.45387632E+03</pdfrwt>
<totfact> 0.61453280E+04</totfact>
</mgrwt>
</event>
<event>
 7    0  0.4707675E-002  0.4553012E+03  0.7546771E-02  0.1026153E+00
         21   -1    0    0  502  501  0.00000000000E+00  0.00000000000E+00  0.16940822567E+03  0.16940822567E+03  0.00000000000E+00 0. -1.
         21   -1    0    0  501  502 -0.00000000000E+00 -0.00000000000E+00 -0.30591666053E+03  0.30591666053E+03  0.00000000000E+00 0. -1.
      99926    2    1    2    0    0  0.00000000000E+00  0.00000000000E+00 -0.13650843485E+03  0.47532488620E+03  0.45530121311E+03 0.  0.
      99925    2    3    3    0    0  0.54386139649E+02  0.48954197654E+02  0.46386397684E+01  0.27302715901E+03  0.26299799795E+03 0.  0.
         25    1    3    3    0    0 -0.54386139649E+02 -0.48954197654E+02 -0.14114707462E+03  0.20229772719E+03  0.12509000000E+03 0.  0.
         25    1    4    4    0    0  0.21272446352E+02  0.58278906511E+02  0.24557157508E+02  0.14177274069E+03  0.12509000000E+03 0.  0.
         25    1    4    4    0    0  0.33113693297E+02 -0.93247088573E+01 -0.19918517740E+02  0.13125441832E+03  0.12509000000E+03 0.  0.
<mgrwt>
<rscale>  2 0.45530121E+03</rscale>
<asrwt>0</asrwt>
<pdfrwt beam="1">  1       21 0.24912975E-01 0.45530121E+03</pdfrwt>
<pdfrwt beam="2">  1       21 0.44987743E-01 0.45530121E+03</pdfrwt>
<totfact> 0.66882008E+04</totfact>
</mgrwt>
</event>
<event>
 7    0  0.4707675E-002  0.4569096E+03  0.7546771E-02  0.1025681E+00
         21   -1    0    0  502  501  0.00000000000E+00  0.00000000000E+00  0.84086810546E+02  0.84086810546E+02  0.00000000000E+00 0. -1.
         21   -1    0    0  501  502 -0.00000000000E+00 -0.00000000000E+00 -0.62068708172E+03  0.62068708172E+03  0.00000000000E+00 0. -1.
      99926    2    1    2    0    0  0.00000000000E+00  0.00000000000E+00 -0.53660027118E+03  0.70477389227E+03  0.45690960615E+03 0.  0.
      99925    2    3    3    0    0  0.10446846827E+03  0.11337219296E+02 -0.26339430477E+03  0.38644827033E+03  0.26253287879E+03 0.  0.
         25    1    4    4    0    0  0.33454712082E+02 -0.22119530734E+01 -0.77184006628E+02  0.15076136599E+03  0.12509000000E+03 0.  0.
         25    1    3    3    0    0 -0.10446846827E+03 -0.11337219296E+02 -0.27320596641E+03  0.31832562194E+03  0.12509000000E+03 0.  0.
         25    1    4    4    0    0  0.71013756190E+02  0.13549172370E+02 -0.18621029814E+03  0.23568690433E+03  0.12509000000E+03 0.  0.
<mgrwt>
<rscale>  2 0.45690961E+03</rscale>
<asrwt>0</asrwt>
<pdfrwt beam="1">  1       21 0.12365707E-01 0.45690961E+03</pdfrwt>
<pdfrwt beam="2">  1       21 0.91277515E-01 0.45690961E+03</pdfrwt>
<totfact> 0.51860845E+04</totfact>
</mgrwt>
</event>
<event>
 7    0  0.4707675E-002  0.4602333E+03  0.7546771E-02  0.1024714E+00
         21   -1    0    0  502  501  0.00000000000E+00  0.00000000000E+00  0.39351418567E+02  0.39351418567E+02  0.00000000000E+00 0.  1.
         21   -1    0    0  501  502 -0.00000000000E+00 -0.00000000000E+00 -0.13456608401E+04  0.13456608401E+04  0.00000000000E+00 0.  1.
      99926    2    1    2    0    0  0.71054273576E-14  0.00000000000E+00 -0.13063094215E+04  0.13850122586E+04  0.46023325811E+03 0.  0.
      99925    2    3    3    0    0  0.63483041737E+02  0.93911123784E+02 -0.91732346305E+03  0.96097572751E+03  0.26294983787E+03 0.  0.
         25    1    4    4    0    0  0.28071566131E+02  0.88845391333E+02 -0.52047403399E+03  0.54334357873E+03  0.12509000000E+03 0.  0.
         25    1    4    4    0    0  0.35411475605E+02  0.50657324511E+01 -0.39684942906E+03  0.41763214878E+03  0.12509000000E+03 0.  0.
         25    1    3    3    0    0 -0.63483041737E+02 -0.93911123784E+02 -0.38898595845E+03  0.42403653112E+03  0.12509000000E+03 0.  0.
<mgrwt>
<rscale>  2 0.46023326E+03</rscale>
<asrwt>0</asrwt>
<pdfrwt beam="1">  1       21 0.57869746E-02 0.46023326E+03</pdfrwt>
<pdfrwt beam="2">  1       21 0.19789125E+00 0.46023326E+03</pdfrwt>
<totfact> 0.25673977E+04</totfact>
</mgrwt>
</event>
<event>
 7    0  0.4707675E-002  0.4479998E+03  0.7546771E-02  0.1028320E+00
         21   -1    0    0  502  501  0.00000000000E+00  0.00000000000E+00  0.55153164776E+03  0.55153164776E+03  0.00000000000E+00 0. -1.
         21   -1    0    0  501  502 -0.00000000000E+00 -0.00000000000E+00 -0.90975660832E+02  0.90975660832E+02  0.00000000000E+00 0. -1.
      99926    2    1    2    0    0 -0.35527136788E-14 -0.17763568394E-14  0.46055598692E+03  0.64250730859E+03  0.44799980413E+03 0.  0.
      99925    2    3    3    0    0  0.29614557112E+02 -0.85075700146E+01  0.14487992723E+03  0.30155528336E+03  0.26267088699E+03 0.  0.
         25    1    4    4    0    0 -0.23038320648E+02  0.42267005191E+01  0.57602621478E+02  0.13969323290E+03  0.12509000000E+03 0.  0.
         25    1    3    3    0    0 -0.29614557112E+02  0.85075700146E+01  0.31567605969E+03  0.34095202522E+03  0.12509000000E+03 0.  0.
         25    1    4    4    0    0  0.52652877761E+02 -0.12734270534E+02  0.87277305752E+02  0.16186205047E+03  0.12509000000E+03 0.  0.
<mgrwt>
<rscale>  2 0.44799980E+03</rscale>
<asrwt>0</asrwt>
<pdfrwt beam="1">  1       21 0.81107594E-01 0.44799980E+03</pdfrwt>
<pdfrwt beam="2">  1       21 0.13378774E-01 0.44799980E+03</pdfrwt>
<totfact> 0.59345863E+04</totfact>
</mgrwt>
</event>
<event>
 7    0  0.4707675E-002  0.4557308E+03  0.7546771E-02  0.1026027E+00
         21   -1    0    0  502  501  0.00000000000E+00  0.00000000000E+00  0.21573273709E+03  0.21573273709E+03  0.00000000000E+00 0.  1.
         21   -1    0    0  501  502 -0.00000000000E+00 -0.00000000000E+00 -0.24068037030E+03  0.24068037030E+03  0.00000000000E+00 0.  1.
      99926    2    1    2    0    0 -0.14210854715E-13  0.00000000000E+00 -0.24947633205E+02  0.45641310739E+03  0.45573077600E+03 0.  0.
      99925    2    3    3    0    0  0.76371977678E+02  0.79480538779E+02  0.12879375525E+02  0.28545046320E+03  0.26299477867E+03 0.  0.
         25    1    4    4    0    0  0.56282129176E+01  0.59633967857E+02  0.20394933174E+02  0.14018326684E+03  0.12509000000E+03 0.  0.
         25    1    3    3    0    0 -0.76371977678E+02 -0.79480538779E+02 -0.37827008730E+02  0.17096264419E+03  0.12509000000E+03 0.  0.
         25    1    4    4    0    0  0.70743764760E+02  0.19846570922E+02 -0.75155576486E+01  0.14526719635E+03  0.12509000000E+03 0.  0.
<mgrwt>
<rscale>  2 0.45573078E+03</rscale>
<asrwt>0</asrwt>
<pdfrwt beam="1">  1       21 0.31725403E-01 0.45573078E+03</pdfrwt>
<pdfrwt beam="2">  1       21 0.35394172E-01 0.45573078E+03</pdfrwt>
<totfact> 0.68044806E+04</totfact>
</mgrwt>
</event>
<event>
 7    0  0.4707675E-002  0.4515043E+03  0.7546771E-02  0.1027274E+00
         21   -1    0    0  502  501  0.00000000000E+00  0.00000000000E+00  0.95964932727E+02  0.95964932727E+02  0.00000000000E+00 0. -1.
         21   -1    0    0  501  502 -0.00000000000E+00 -0.00000000000E+00 -0.53106929802E+03  0.53106929802E+03  0.00000000000E+00 0. -1.
      99926    2    1    2    0    0  0.00000000000E+00  0.35527136788E-14 -0.43510436529E+03  0.62703423074E+03  0.45150428329E+03 0.  0.
      99925    2    3    3    0    0 -0.24855619288E+02  0.24880651527E+02 -0.41935374794E+03  0.49614328882E+03  0.26279982591E+03 0.  0.
         25    1    4    4    0    0  0.43987928222E+01  0.41801870812E+02 -0.17077520006E+03  0.21582034853E+03  0.12509000000E+03 0.  0.
         25    1    4    4    0    0 -0.29254412111E+02 -0.16921219285E+02 -0.24857854788E+03  0.28032294029E+03  0.12509000000E+03 0.  0.
         25    1    3    3    0    0  0.24855619288E+02 -0.24880651527E+02 -0.15750617349E+02  0.13089094192E+03  0.12509000000E+03 0.  0.
<mgrwt>
<rscale>  2 0.45150428E+03</rscale>
<asrwt>0</asrwt>
<pdfrwt beam="1">  1       21 0.14112490E-01 0.45150428E+03</pdfrwt>
<pdfrwt beam="2">  1       21 0.78098424E-01 0.45150428E+03</pdfrwt>
<totfact> 0.58646142E+04</totfact>
</mgrwt>
</event>
<event>
 7    0  0.4707675E-002  0.3924531E+03  0.7546771E-02  0.1046425E+00
         21   -1    0    0  502  501  0.00000000000E+00  0.00000000000E+00  0.21819233116E+03  0.21819233116E+03  0.00000000000E+00 0.  1.
         21   -1    0    0  501  502 -0.00000000000E+00 -0.00000000000E+00 -0.17647206361E+03  0.17647206361E+03  0.00000000000E+00 0.  1.
      99926    2    1    2    0    0  0.00000000000E+00  0.00000000000E+00  0.41720267551E+02  0.39466439476E+03  0.39245305932E+03 0.  0.
      99925    2    3    3    0    0  0.11660086776E+02 -0.20290407138E+02  0.41579188347E+02  0.26740408576E+03  0.26311301361E+03 0.  0.
         25    1    3    3    0    0 -0.11660086776E+02  0.20290407138E+02  0.14107920398E+00  0.12726030901E+03  0.12509000000E+03 0.  0.
         25    1    4    4    0    0  0.24319839095E+01 -0.28127760253E+02 -0.15882053978E+02  0.12921622646E+03  0.12509000000E+03 0.  0.
         25    1    4    4    0    0  0.92281028669E+01  0.78373531150E+01  0.57461242325E+02  0.13818785929E+03  0.12509000000E+03 0.  0.
<mgrwt>
<rscale>  2 0.39245306E+03</rscale>
<asrwt>0</asrwt>
<pdfrwt beam="1">  1       21 0.32087108E-01 0.39245306E+03</pdfrwt>
<pdfrwt beam="2">  1       21 0.25951774E-01 0.39245306E+03</pdfrwt>
<totfact> 0.12479310E+05</totfact>
</mgrwt>
</event>
<event>
 7    0  0.4707675E-002  0.4472449E+03  0.7546771E-02  0.1028547E+00
         21   -1    0    0  502  501  0.00000000000E+00  0.00000000000E+00  0.32229953712E+02  0.32229953712E+02  0.00000000000E+00 0. -1.
         21   -1    0    0  501  502 -0.00000000000E+00 -0.00000000000E+00 -0.15515693281E+04  0.15515693281E+04  0.00000000000E+00 0. -1.
      99926    2    1    2    0    0  0.00000000000E+00  0.00000000000E+00 -0.15193393744E+04  0.15837992819E+04  0.44724493347E+03 0.  0.
      99925    2    3    3    0    0  0.63754148355E+02  0.53126690833E+02 -0.11948836816E+04  0.12262995736E+04  0.26301443853E+03 0.  0.
         25    1    4    4    0    0 -0.82186043341E+01  0.15176750720E+02 -0.51941549920E+03  0.53454452399E+03  0.12509000000E+03 0.  0.
         25    1    4    4    0    0  0.71972752689E+02  0.37949940112E+02 -0.67546818245E+03  0.69175504963E+03  0.12509000000E+03 0.  0.
         25    1    3    3    0    0 -0.63754148355E+02 -0.53126690833E+02 -0.32445569279E+03  0.35749970824E+03  0.12509000000E+03 0.  0.
<mgrwt>
<rscale>  2 0.44724493E+03</rscale>
<asrwt>0</asrwt>
<pdfrwt beam="1">  1       21 0.47396974E-02 0.44724493E+03</pdfrwt>
<pdfrwt beam="2">  1       21 0.22817204E+00 0.44724493E+03</pdfrwt>
<totfact> 0.23161796E+04</totfact>
</mgrwt>
</event>
<event>
 7    0  0.4893864E-002  0.4282794E+03  0.7546771E-02  0.1034405E+00
         21   -1    0    0  502  501  0.00000000000E+00  0.00000000000E+00  0.26698370091E+03  0.26698370091E+03  0.00000000000E+00 0.  1.
         21   -1    0    0  501  502 -0.00000000000E+00 -0.00000000000E+00 -0.17175507468E+03  0.17175507468E+03  0.00000000000E+00 0.  1.
      99926    2    1    2    0    0  0.00000000000E+00  0.35527136788E-14  0.95228626229E+02  0.43873877560E+03  0.42827937373E+03 0.  0.
      99925    2    3    3    0    0  0.52971032009E+02  0.29354573522E+02  0.12312606700E+03  0.29698759740E+03  0.26338941402E+03 0.  0.
         25    1    4    4    0    0  0.50587708329E+02  0.41628829275E+02  0.88287887290E+02  0.16653628675E+03  0.12509000000E+03 0.  0.
         25    1    3    3    0    0 -0.52971032009E+02 -0.29354573522E+02 -0.27897440774E+02  0.14175117820E+03  0.12509000000E+03 0.  0.
         25    1    4    4    0    0  0.23833236796E+01 -0.12274255753E+02  0.34838179714E+02  0.13045131066E+03  0.12509000000E+03 0.  0.
<mgrwt>
<rscale>  2 0.42827937E+03</rscale>
<asrwt>0</asrwt>
<pdfrwt beam="1">  1       21 0.39262309E-01 0.42827937E+03</pdfrwt>
<pdfrwt beam="2">  1       21 0.25258099E-01 0.42827937E+03</pdfrwt>
<totfact> 0.86825272E+04</totfact>
</mgrwt>
</event>
<event>
 7    0  0.4707675E-002  0.4556154E+03  0.7546771E-02  0.1026061E+00
         21   -1    0    0  502  501  0.00000000000E+00  0.00000000000E+00  0.70346901624E+03  0.70346901624E+03  0.00000000000E+00 0.  1.
         21   -1    0    0  501  502 -0.00000000000E+00 -0.00000000000E+00 -0.73772031646E+02  0.73772031646E+02  0.00000000000E+00 0.  1.
      99926    2    1    2    0    0  0.00000000000E+00  0.71054273576E-14  0.62969698459E+03  0.77724104788E+03  0.45561535763E+03 0.  0.
      99925    2    3    3    0    0  0.98179983520E+02 -0.55740748081E+02  0.41922679040E+03  0.50762734106E+03  0.26303626261E+03 0.  0.
         25    1    3    3    0    0 -0.98179983520E+02  0.55740748081E+02  0.21047019420E+03  0.26961370682E+03  0.12509000000E+03 0.  0.
         25    1    4    4    0    0  0.34291260355E+02  0.61702371956E+01  0.22832483782E+03  0.26266652248E+03  0.12509000000E+03 0.  0.
         25    1    4    4    0    0  0.63888723166E+02 -0.61910985277E+02  0.19090195257E+03  0.24496081859E+03  0.12509000000E+03 0.  0.
<mgrwt>
<rscale>  2 0.45561536E+03</rscale>
<asrwt>0</asrwt>
<pdfrwt beam="1">  1       21 0.10345132E+00 0.45561536E+03</pdfrwt>
<pdfrwt beam="2">  1       21 0.10848829E-01 0.45561536E+03</pdfrwt>
<totfact> 0.48649950E+04</totfact>
</mgrwt>
</event>
<event>
 7    0  0.4707675E-002  0.4540832E+03  0.7546771E-02  0.1026511E+00
         21   -1    0    0  502  501  0.00000000000E+00  0.00000000000E+00  0.31719538805E+03  0.31719538805E+03  0.00000000000E+00 0.  1.
         21   -1    0    0  501  502 -0.00000000000E+00 -0.00000000000E+00 -0.16251148765E+03  0.16251148765E+03  0.00000000000E+00 0.  1.
      99926    2    1    2    0    0  0.00000000000E+00  0.14210854715E-13  0.15468390040E+03  0.47970687570E+03  0.45408322756E+03 0.  0.
      99925    2    3    3    0    0  0.41303725302E+02  0.82152075208E+02  0.29212532627E+02  0.28009341570E+03  0.26295244488E+03 0.  0.
         25    1    4    4    0    0  0.17265488603E+02  0.76153290244E+02 -0.66978749172E+01  0.14761365228E+03  0.12509000000E+03 0.  0.
         25    1    4    4    0    0  0.24038236700E+02  0.59987849635E+01  0.35910407544E+02  0.13247976342E+03  0.12509000000E+03 0.  0.
         25    1    3    3    0    0 -0.41303725302E+02 -0.82152075208E+02  0.12547136777E+03  0.19961346001E+03  0.12509000000E+03 0.  0.
<mgrwt>
<rscale>  2 0.45408323E+03</rscale>
<asrwt>0</asrwt>
<pdfrwt beam="1">  1       21 0.46646381E-01 0.45408323E+03</pdfrwt>
<pdfrwt beam="2">  1       21 0.23898748E-01 0.45408323E+03</pdfrwt>
<totfact> 0.67209184E+04</totfact>
</mgrwt>
</event>
<event>
 7    0  0.4707675E-002  0.4494702E+03  0.7546771E-02  0.1027880E+00
         21   -1    0    0  502  501  0.00000000000E+00  0.00000000000E+00  0.23960063998E+04  0.23960063998E+04  0.00000000000E+00 0. -1.
         21   -1    0    0  501  502 -0.00000000000E+00 -0.00000000000E+00 -0.21079187529E+02  0.21079187529E+02  0.00000000000E+00 0. -1.
      99926    2    1    2    0    0  0.00000000000E+00  0.00000000000E+00  0.23749272123E+04  0.24170855874E+04  0.44947021357E+03 0.  0.
      99925    2    3    3    0    0 -0.90757580361E+02 -0.58314095088E+02  0.14460133971E+04  0.14735995746E+04  0.26249474208E+03 0.  0.
         25    1    4    4    0    0 -0.31657081339E+02 -0.60433775938E+01  0.83558938461E+03  0.84551512168E+03  0.12509000000E+03 0.  0.
         25    1    4    4    0    0 -0.59100499022E+02 -0.52270717494E+02  0.61042401245E+03  0.62808445290E+03  0.12509000000E+03 0.  0.
         25    1    3    3    0    0  0.90757580361E+02  0.58314095088E+02  0.92891381524E+03  0.94348601278E+03  0.12509000000E+03 0.  0.
<mgrwt>
<rscale>  2 0.44947021E+03</rscale>
<asrwt>0</asrwt>
<pdfrwt beam="1">  1       21 0.35235369E+00 0.44947021E+03</pdfrwt>
<pdfrwt beam="2">  1       21 0.30998822E-02 0.44947021E+03</pdfrwt>
<totfact> 0.83718126E+03</totfact>
</mgrwt>
</event>
<event>
 7    0  0.4707675E-002  0.4467778E+03  0.7546771E-02  0.1028687E+00
         21   -1    0    0  502  501  0.00000000000E+00  0.00000000000E+00  0.35769297232E+03  0.35769297232E+03  0.00000000000E+00 0. -1.
         21   -1    0    0  501  502 -0.00000000000E+00 -0.00000000000E+00 -0.13951238297E+03  0.13951238297E+03  0.00000000000E+00 0. -1.
      99926    2    1    2    0    0  0.00000000000E+00  0.00000000000E+00  0.21818058934E+03  0.49720535529E+03  0.44677779238E+03 0.  0.
      99925    2    3    3    0    0  0.10729800293E+02 -0.29024716024E+02  0.24750391553E+02  0.26478265358E+03  0.26180089572E+03 0.  0.
         25    1    3    3    0    0 -0.10729800293E+02  0.29024716024E+02  0.19343019779E+03  0.23242270171E+03  0.12509000000E+03 0.  0.
         25    1    4    4    0    0  0.36001795289E+02 -0.13432121519E+02 -0.11050657289E+02  0.13132469790E+03  0.12509000000E+03 0.  0.
         25    1    4    4    0    0 -0.25271994996E+02 -0.15592594505E+02  0.35801048842E+02  0.13345795567E+03  0.12509000000E+03 0.  0.
<mgrwt>
<rscale>  2 0.44677779E+03</rscale>
<asrwt>0</asrwt>
<pdfrwt beam="1">  1       21 0.52601908E-01 0.44677779E+03</pdfrwt>
<pdfrwt beam="2">  1       21 0.20516527E-01 0.44677779E+03</pdfrwt>
<totfact> 0.69920653E+04</totfact>
</mgrwt>
</event>
<event>
 7    0  0.4707675E-002  0.4482589E+03  0.7546771E-02  0.1028243E+00
         21   -1    0    0  502  501  0.00000000000E+00  0.00000000000E+00  0.67969800475E+02  0.67969800475E+02  0.00000000000E+00 0.  1.
         21   -1    0    0  501  502 -0.00000000000E+00 -0.00000000000E+00 -0.73906377316E+03  0.73906377316E+03  0.00000000000E+00 0.  1.
      99926    2    1    2    0    0  0.00000000000E+00  0.35527136788E-14 -0.67109397269E+03  0.80703357364E+03  0.44825893053E+03 0.  0.
      99925    2    3    3    0    0  0.56872443079E+01  0.28467469657E+02 -0.60989903295E+03  0.66478354613E+03  0.26290224653E+03 0.  0.
         25    1    4    4    0    0 -0.19993963347E+02  0.17843627622E+02 -0.38796990232E+03  0.40851720505E+03  0.12509000000E+03 0.  0.
         25    1    3    3    0    0 -0.56872443079E+01 -0.28467469657E+02 -0.61194939734E+02  0.14225002751E+03  0.12509000000E+03 0.  0.
         25    1    4    4    0    0  0.25681207655E+02  0.10623842035E+02 -0.22192913063E+03  0.25626634108E+03  0.12509000000E+03 0.  0.
<mgrwt>
<rscale>  2 0.44825893E+03</rscale>
<asrwt>0</asrwt>
<pdfrwt beam="1">  1       21 0.99955579E-02 0.44825893E+03</pdfrwt>
<pdfrwt beam="2">  1       21 0.10868586E+00 0.44825893E+03</pdfrwt>
<totfact> 0.50020539E+04</totfact>
</mgrwt>
</event>
<event>
 7    0  0.4707675E-002  0.4576940E+03  0.7546771E-02  0.1025452E+00
         21   -1    0    0  502  501  0.00000000000E+00  0.00000000000E+00  0.31659778482E+03  0.31659778482E+03  0.00000000000E+00 0. -1.
         21   -1    0    0  501  502 -0.00000000000E+00 -0.00000000000E+00 -0.16541794943E+03  0.16541794943E+03  0.00000000000E+00 0. -1.
      99926    2    1    2    0    0  0.00000000000E+00  0.00000000000E+00  0.15117983538E+03  0.48201573425E+03  0.45769403037E+03 0.  0.
      99925    2    3    3    0    0 -0.14737689889E+02  0.11375119267E+03  0.79174292768E+02  0.29765511046E+03  0.26300848429E+03 0.  0.
         25    1    3    3    0    0  0.14737689889E+02 -0.11375119267E+03  0.72005542614E+02  0.18436062379E+03  0.12509000000E+03 0.  0.
         25    1    4    4    0    0  0.52922021130E+00  0.77133922650E+02  0.78091457283E+02  0.16642026889E+03  0.12509000000E+03 0.  0.
         25    1    4    4    0    0 -0.15266910100E+02  0.36617270023E+02  0.10828354849E+01  0.13123484157E+03  0.12509000000E+03 0.  0.
<mgrwt>
<rscale>  2 0.45769403E+03</rscale>
<asrwt>0</asrwt>
<pdfrwt beam="1">  1       21 0.46558498E-01 0.45769403E+03</pdfrwt>
<pdfrwt beam="2">  1       21 0.24326169E-01 0.45769403E+03</pdfrwt>
<totfact> 0.65149320E+04</totfact>
</mgrwt>
</event>
<event>
 7    0  0.4707675E-002  0.4536133E+03  0.7546771E-02  0.1026650E+00
         21   -1    0    0  502  501  0.00000000000E+00  0.00000000000E+00  0.12963764279E+03  0.12963764279E+03  0.00000000000E+00 0. -1.
         21   -1    0    0  501  502 -0.00000000000E+00 -0.00000000000E+00 -0.39680806832E+03  0.39680806832E+03  0.00000000000E+00 0. -1.
      99926    2    1    2    0    0  0.71054273576E-14  0.00000000000E+00 -0.26717042553E+03  0.52644571110E+03  0.45361332703E+03 0.  0.
      99925    2    3    3    0    0  0.35725065874E+02 -0.71497161407E+02 -0.25913638624E+03  0.37778442392E+03  0.26302334471E+03 0.  0.
         25    1    3    3    0    0 -0.35725065874E+02  0.71497161407E+02 -0.80340392900E+01  0.14866128719E+03  0.12509000000E+03 0.  0.
         25    1    4    4    0    0 -0.16451652659E+02 -0.14297052742E+02 -0.13458099582E+03  0.18502598501E+03  0.12509000000E+03 0.  0.
         25    1    4    4    0    0  0.52176718532E+02 -0.57200108665E+02 -0.12455539042E+03  0.19275843891E+03  0.12509000000E+03 0.  0.
<mgrwt>
<rscale>  2 0.45361333E+03</rscale>
<asrwt>0</asrwt>
<pdfrwt beam="1">  1       21 0.19064359E-01 0.45361333E+03</pdfrwt>
<pdfrwt beam="2">  1       21 0.58354127E-01 0.45361333E+03</pdfrwt>
<totfact> 0.64150006E+04</totfact>
</mgrwt>
</event>
<event>
 7    0  0.4707675E-002  0.4552455E+03  0.7546771E-02  0.1026169E+00
         21   -1    0    0  502  501  0.00000000000E+00  0.00000000000E+00  0.56007389621E+03  0.56007389621E+03  0.00000000000E+00 0.  1.
         21   -1    0    0  501  502 -0.00000000000E+00 -0.00000000000E+00 -0.92509434220E+02  0.92509434220E+02  0.00000000000E+00 0.  1.
      99926    2    1    2    0    0  0.00000000000E+00  0.00000000000E+00  0.46756446199E+03  0.65258333043E+03  0.45524551293E+03 0.  0.
      99925    2    3    3    0    0  0.73375883642E+02  0.86272658957E+02  0.30122965531E+03  0.41564078888E+03  0.26304176125E+03 0.  0.
         25    1    4    4    0    0  0.35821853075E+02  0.32485521003E+02  0.89908409984E+02  0.16146065935E+03  0.12509000000E+03 0.  0.
         25    1    3    3    0    0 -0.73375883642E+02 -0.86272658957E+02  0.16633480669E+03  0.23694254156E+03  0.12509000000E+03 0.  0.
         25    1    4    4    0    0  0.37554030566E+02  0.53787137954E+02  0.21132124532E+03  0.25418012952E+03  0.12509000000E+03 0.  0.
<mgrwt>
<rscale>  2 0.45524551E+03</rscale>
<asrwt>0</asrwt>
<pdfrwt beam="1">  1       21 0.82363806E-01 0.45524551E+03</pdfrwt>
<pdfrwt beam="2">  1       21 0.13604329E-01 0.45524551E+03</pdfrwt>
<totfact> 0.55445455E+04</totfact>
</mgrwt>
</event>
<event>
 7    0  0.4707675E-002  0.4552962E+03  0.7546771E-02  0.1026154E+00
         21   -1    0    0  502  501  0.00000000000E+00  0.00000000000E+00  0.38263633014E+02  0.38263633014E+02  0.00000000000E+00 0. -1.
         21   -1    0    0  501  502 -0.00000000000E+00 -0.00000000000E+00 -0.13543843732E+04  0.13543843732E+04  0.00000000000E+00 0. -1.
      99926    2    1    2    0    0  0.00000000000E+00  0.00000000000E+00 -0.13161207402E+04  0.13926480062E+04  0.45529624033E+03 0.  0.
      99925    2    3    3    0    0  0.35168479388E+02  0.10783118586E+03 -0.84165947725E+03  0.88903567047E+03  0.26292463014E+03 0.  0.
         25    1    4    4    0    0  0.24018884122E+02  0.32393632915E+02 -0.50615122454E+03  0.52293673083E+03  0.12509000000E+03 0.  0.
         25    1    4    4    0    0  0.11149595266E+02  0.75437552942E+02 -0.33550825271E+03  0.36609893964E+03  0.12509000000E+03 0.  0.
         25    1    3    3    0    0 -0.35168479388E+02 -0.10783118586E+03 -0.47446126292E+03  0.50361233573E+03  0.12509000000E+03 0.  0.
<mgrwt>
<rscale>  2 0.45529624E+03</rscale>
<asrwt>0</asrwt>
<pdfrwt beam="1">  1       21 0.56270041E-02 0.45529624E+03</pdfrwt>
<pdfrwt beam="2">  1       21 0.19917420E+00 0.45529624E+03</pdfrwt>
<totfact> 0.26467585E+04</totfact>
</mgrwt>
</event>
<event>
 7    0  0.4707675E-002  0.4587032E+03  0.7546771E-02  0.1025158E+00
         21   -1    0    0  502  501  0.00000000000E+00  0.00000000000E+00  0.75088704269E+03  0.75088704269E+03  0.00000000000E+00 0. -1.
         21   -1    0    0  501  502 -0.00000000000E+00 -0.00000000000E+00 -0.70053341781E+02  0.70053341781E+02  0.00000000000E+00 0. -1.
      99926    2    1    2    0    0  0.00000000000E+00  0.00000000000E+00  0.68083370091E+03  0.82094038448E+03  0.45870315735E+03 0.  0.
      99925    2    3    3    0    0  0.51766559816E+02  0.77711393118E+01  0.61395291151E+03  0.66974278062E+03  0.26244436995E+03 0.  0.
         25    1    4    4    0    0 -0.59910053269E+01 -0.15220041861E+02  0.25311831172E+03  0.28281430241E+03  0.12509000000E+03 0.  0.
         25    1    3    3    0    0 -0.51766559816E+02 -0.77711393118E+01  0.66880789403E+02  0.15119760386E+03  0.12509000000E+03 0.  0.
         25    1    4    4    0    0  0.57757565143E+02  0.22991181173E+02  0.36083459979E+03  0.38692847821E+03  0.12509000000E+03 0.  0.
<mgrwt>
<rscale>  2 0.45870316E+03</rscale>
<asrwt>0</asrwt>
<pdfrwt beam="1">  1       21 0.11042456E+00 0.45870316E+03</pdfrwt>
<pdfrwt beam="2">  1       21 0.10301962E-01 0.45870316E+03</pdfrwt>
<totfact> 0.45433934E+04</totfact>
</mgrwt>
</event>
<event>
 7    0  0.4707675E-002  0.4611924E+03  0.7546771E-02  0.1024436E+00
         21   -1    0    0  502  501  0.00000000000E+00  0.00000000000E+00  0.50161383287E+03  0.50161383287E+03  0.00000000000E+00 0. -1.
         21   -1    0    0  501  502 -0.00000000000E+00 -0.00000000000E+00 -0.10600706648E+03  0.10600706648E+03  0.00000000000E+00 0. -1.
      99926    2    1    2    0    0  0.00000000000E+00  0.00000000000E+00  0.39560676639E+03  0.60762089935E+03  0.46119241507E+03 0.  0.
      99925    2    3    3    0    0  0.60559736654E+02 -0.10221512022E+03  0.24166906180E+03  0.37640728060E+03  0.26298876963E+03 0.  0.
         25    1    4    4    0    0  0.17289861930E+02 -0.23300414783E+02  0.72065400798E+02  0.14725073428E+03  0.12509000000E+03 0.  0.
         25    1    4    4    0    0  0.43269874724E+02 -0.78914705433E+02  0.16960366101E+03  0.22915654631E+03  0.12509000000E+03 0.  0.
         25    1    3    3    0    0 -0.60559736654E+02  0.10221512022E+03  0.15393770459E+03  0.23121361876E+03  0.12509000000E+03 0.  0.
<mgrwt>
<rscale>  2 0.46119242E+03</rscale>
<asrwt>0</asrwt>
<pdfrwt beam="1">  1       21 0.73766739E-01 0.46119242E+03</pdfrwt>
<pdfrwt beam="2">  1       21 0.15589275E-01 0.46119242E+03</pdfrwt>
<totfact> 0.55448944E+04</totfact>
</mgrwt>
</event>
<event>
 7    0  0.4707675E-002  0.4571470E+03  0.7546771E-02  0.1025612E+00
         21   -1    0    0  502  501  0.00000000000E+00  0.00000000000E+00  0.40177435747E+03  0.40177435747E+03  0.00000000000E+00 0.  1.
         21   -1    0    0  501  502 -0.00000000000E+00 -0.00000000000E+00 -0.13003777810E+03  0.13003777810E+03  0.00000000000E+00 0.  1.
      99926    2    1    2    0    0  0.00000000000E+00  0.00000000000E+00  0.27173657937E+03  0.53181213557E+03  0.45714699930E+03 0.  0.
      99925    2    3    3    0    0  0.44510493673E+02  0.10448235356E+03  0.14862193056E+03  0.32276077560E+03  0.26303667761E+03 0.  0.
         25    1    3    3    0    0 -0.44510493673E+02 -0.10448235356E+03  0.12311464881E+03  0.20905135997E+03  0.12509000000E+03 0.  0.
         25    1    4    4    0    0  0.20772408506E+02  0.26934145027E+02  0.32102245632E+02  0.13354775699E+03  0.12509000000E+03 0.  0.
         25    1    4    4    0    0  0.23738085167E+02  0.77548208533E+02  0.11651968493E+03  0.18921301861E+03  0.12509000000E+03 0.  0.
<mgrwt>
<rscale>  2 0.45714700E+03</rscale>
<asrwt>0</asrwt>
<pdfrwt beam="1">  1       21 0.59084464E-01 0.45714700E+03</pdfrwt>
<pdfrwt beam="2">  1       21 0.19123203E-01 0.45714700E+03</pdfrwt>
<totfact> 0.62021863E+04</totfact>
</mgrwt>
</event>
<event>
 7    0  0.4707675E-002  0.4419827E+03  0.7546771E-02  0.1030140E+00
         21   -1    0    0  502  501  0.00000000000E+00  0.00000000000E+00  0.31891425824E+03  0.31891425824E+03  0.00000000000E+00 0. -1.
         21   -1    0    0  501  502 -0.00000000000E+00 -0.00000000000E+00 -0.15313579279E+03  0.15313579279E+03  0.00000000000E+00 0. -1.
      99926    2    1    2    0    0  0.00000000000E+00  0.14210854715E-13  0.16577846545E+03  0.47205005103E+03  0.44198274975E+03 0.  0.
      99925    2    3    3    0    0  0.65597663682E+01 -0.99266062929E+02  0.12088923970E+03  0.30604001377E+03  0.26296292508E+03 0.  0.
         25    1    4    4    0    0 -0.25389400574E+02 -0.70462333023E+02  0.85858989891E+02  0.16920058003E+03  0.12509000000E+03 0.  0.
         25    1    3    3    0    0 -0.65597663682E+01  0.99266062929E+02  0.44889225748E+02  0.16601003726E+03  0.12509000000E+03 0.  0.
         25    1    4    4    0    0  0.31949166942E+02 -0.28803729906E+02  0.35030249814E+02  0.13683943374E+03  0.12509000000E+03 0.  0.
<mgrwt>
<rscale>  2 0.44198275E+03</rscale>
<asrwt>0</asrwt>
<pdfrwt beam="1">  1       21 0.46899156E-01 0.44198275E+03</pdfrwt>
<pdfrwt beam="2">  1       21 0.22519970E-01 0.44198275E+03</pdfrwt>
<totfact> 0.74709224E+04</totfact>
</mgrwt>
</event>
<event>
 7    0  0.4707675E-002  0.4575521E+03  0.7546771E-02  0.1025494E+00
         21   -1    0    0  502  501  0.00000000000E+00  0.00000000000E+00  0.12512119969E+04  0.12512119969E+04  0.00000000000E+00 0. -1.
         21   -1    0    0  501  502 -0.00000000000E+00 -0.00000000000E+00 -0.41830223481E+02  0.41830223481E+02  0.00000000000E+00 0. -1.
      99926    2    1    2    0    0  0.00000000000E+00  0.14210854715E-13  0.12093817735E+04  0.12930422204E+04  0.45755208427E+03 0.  0.
      99925    2    3    3    0    0 -0.68551521348E+02 -0.75539512162E+02  0.60493152023E+03  0.66741202157E+03  0.26285192295E+03 0.  0.
         25    1    3    3    0    0  0.68551521348E+02  0.75539512162E+02  0.60445025324E+03  0.62563019885E+03  0.12509000000E+03 0.  0.
         25    1    4    4    0    0 -0.18460404392E+02 -0.21776407665E+00  0.30241965707E+03  0.32778955297E+03  0.12509000000E+03 0.  0.
         25    1    4    4    0    0 -0.50091116955E+02 -0.75321748086E+02  0.30251186315E+03  0.33962246860E+03  0.12509000000E+03 0.  0.
<mgrwt>
<rscale>  2 0.45755208E+03</rscale>
<asrwt>0</asrwt>
<pdfrwt beam="1">  1       21 0.18400174E+00 0.45755208E+03</pdfrwt>
<pdfrwt beam="2">  1       21 0.61515043E-02 0.45755208E+03</pdfrwt>
<totfact> 0.28742637E+04</totfact>
</mgrwt>
</event>
<event>
 7    0  0.4707675E-002  0.4529046E+03  0.7546771E-02  0.1026859E+00
         21   -1    0    0  502  501  0.00000000000E+00  0.00000000000E+00  0.60863492460E+02  0.60863492460E+02  0.00000000000E+00 0.  1.
         21   -1    0    0  501  502 -0.00000000000E+00 -0.00000000000E+00 -0.84255170311E+03  0.84255170311E+03  0.00000000000E+00 0.  1.
      99926    2    1    2    0    0 -0.71054273576E-14  0.14210854715E-13 -0.78168821065E+03  0.90341519557E+03  0.45290457816E+03 0.  0.
      99925    2    3    3    0    0  0.35850456261E+02 -0.99489912952E+02 -0.56228404128E+03  0.62961016342E+03  0.26279672146E+03 0.  0.
         25    1    3    3    0    0 -0.35850456261E+02  0.99489912952E+02 -0.21940416937E+03  0.27380503215E+03  0.12509000000E+03 0.  0.
         25    1    4    4    0    0  0.54556170802E+02 -0.46759479018E+02 -0.32546387645E+03  0.35600149947E+03  0.12509000000E+03 0.  0.
         25    1    4    4    0    0 -0.18705714541E+02 -0.52730433934E+02 -0.23682016483E+03  0.27360866395E+03  0.12509000000E+03 0.  0.
<mgrwt>
<rscale>  2 0.45290458E+03</rscale>
<asrwt>0</asrwt>
<pdfrwt beam="1">  1       21 0.89505139E-02 0.45290458E+03</pdfrwt>
<pdfrwt beam="2">  1       21 0.12390466E+00 0.45290458E+03</pdfrwt>
<totfact> 0.43800515E+04</totfact>
</mgrwt>
</event>
<event>
 7    0  0.4707675E-002  0.4541424E+03  0.7546771E-02  0.1026494E+00
         21   -1    0    0  502  501  0.00000000000E+00  0.00000000000E+00  0.25835297859E+04  0.25835297859E+04  0.00000000000E+00 0. -1.
         21   -1    0    0  501  502 -0.00000000000E+00 -0.00000000000E+00 -0.19957709489E+02  0.19957709489E+02  0.00000000000E+00 0. -1.
      99926    2    1    2    0    0 -0.71054273576E-14  0.00000000000E+00  0.25635720764E+04  0.26034874954E+04  0.45414243107E+03 0.  0.
      99925    2    3    3    0    0 -0.40560362865E+02 -0.80358955663E+02  0.19997392925E+04  0.20189726358E+04  0.26304098782E+03 0.  0.
         25    1    3    3    0    0  0.40560362865E+02  0.80358955663E+02  0.56383278392E+03  0.58451485962E+03  0.12509000000E+03 0.  0.
         25    1    4    4    0    0  0.34187328819E+01 -0.19091310019E+02  0.73427080802E+03  0.74510220336E+03  0.12509000000E+03 0.  0.
         25    1    4    4    0    0 -0.43979095747E+02 -0.61267645644E+02  0.12654684845E+04  0.12738704324E+04  0.12509000000E+03 0.  0.
<mgrwt>
<rscale>  2 0.45414243E+03</rscale>
<asrwt>0</asrwt>
<pdfrwt beam="1">  1       21 0.37993062E+00 0.45414243E+03</pdfrwt>
<pdfrwt beam="2">  1       21 0.29349591E-02 0.45414243E+03</pdfrwt>
<totfact> 0.61709857E+03</totfact>
</mgrwt>
</event>
<event>
 7    0  0.4707675E-002  0.4511310E+03  0.7546771E-02  0.1027385E+00
         21   -1    0    0  502  501  0.00000000000E+00  0.00000000000E+00  0.91747624600E+02  0.91747624600E+02  0.00000000000E+00 0. -1.
         21   -1    0    0  501  502 -0.00000000000E+00 -0.00000000000E+00 -0.55456259837E+03  0.55456259837E+03  0.00000000000E+00 0. -1.
      99926    2    1    2    0    0  0.00000000000E+00  0.00000000000E+00 -0.46281497377E+03  0.64631022297E+03  0.45113102794E+03 0.  0.
      99925    2    3    3    0    0  0.57466189351E+02 -0.78730913711E+02 -0.22101593451E+03  0.35714728762E+03  0.26306885421E+03 0.  0.
         25    1    3    3    0    0 -0.57466189351E+02  0.78730913711E+02 -0.24179903927E+03  0.28916293535E+03  0.12509000000E+03 0.  0.
         25    1    4    4    0    0  0.47474212932E+02 -0.67705032214E+01 -0.85473089678E+02  0.15891128898E+03  0.12509000000E+03 0.  0.
         25    1    4    4    0    0  0.99919764183E+01 -0.71960410490E+02 -0.13554284483E+03  0.19823599864E+03  0.12509000000E+03 0.  0.
<mgrwt>
<rscale>  2 0.45113103E+03</rscale>
<asrwt>0</asrwt>
<pdfrwt beam="1">  1       21 0.13492298E-01 0.45113103E+03</pdfrwt>
<pdfrwt beam="2">  1       21 0.81553322E-01 0.45113103E+03</pdfrwt>
<totfact> 0.57654399E+04</totfact>
</mgrwt>
</event>
<event>
 7    0  0.4707675E-002  0.4536570E+03  0.7546771E-02  0.1026637E+00
         21   -1    0    0  502  501  0.00000000000E+00  0.00000000000E+00  0.30241983521E+03  0.30241983521E+03  0.00000000000E+00 0. -1.
         21   -1    0    0  501  502 -0.00000000000E+00 -0.00000000000E+00 -0.17013160374E+03  0.17013160374E+03  0.00000000000E+00 0. -1.
      99926    2    1    2    0    0 -0.71054273576E-14  0.14210854715E-13  0.13228823147E+03  0.47255143894E+03  0.45365701390E+03 0.  0.
      99925    2    3    3    0    0  0.39117036742E+02 -0.98322056112E+02  0.43968377165E+02  0.28641902896E+03  0.26249813843E+03 0.  0.
         25    1    3    3    0    0 -0.39117036742E+02  0.98322056112E+02  0.88319854306E+02  0.18613240998E+03  0.12509000000E+03 0.  0.
         25    1    4    4    0    0 -0.15774215216E+01 -0.25023727745E+02  0.46565045806E+02  0.13581048119E+03  0.12509000000E+03 0.  0.
         25    1    4    4    0    0  0.40694458264E+02 -0.73298328367E+02 -0.25966686414E+01  0.15060854777E+03  0.12509000000E+03 0.  0.
<mgrwt>
<rscale>  2 0.45365701E+03</rscale>
<asrwt>0</asrwt>
<pdfrwt beam="1">  1       21 0.44473505E-01 0.45365701E+03</pdfrwt>
<pdfrwt beam="2">  1       21 0.25019353E-01 0.45365701E+03</pdfrwt>
<totfact> 0.67967893E+04</totfact>
</mgrwt>
</event>
<event>
 7    0  0.4707675E-002  0.4612272E+03  0.7546771E-02  0.1024426E+00
         21   -1    0    0  502  501  0.00000000000E+00  0.00000000000E+00  0.18245490451E+03  0.18245490451E+03  0.00000000000E+00 0.  1.
         21   -1    0    0  501  502 -0.00000000000E+00 -0.00000000000E+00 -0.29148369679E+03  0.29148369679E+03  0.00000000000E+00 0.  1.
      99926    2    1    2    0    0  0.00000000000E+00  0.00000000000E+00 -0.10902879228E+03  0.47393860130E+03  0.46122718941E+03 0.  0.
      99925    2    3    3    0    0  0.68851777744E+02  0.84073034830E+02 -0.11777342322E+03  0.30800843781E+03  0.26303949525E+03 0.  0.
         25    1    4    4    0    0  0.42610543427E+02  0.37166820208E+01 -0.39648971867E+02  0.13801819158E+03  0.12509000000E+03 0.  0.
         25    1    3    3    0    0 -0.68851777744E+02 -0.84073034830E+02  0.87446309383E+01  0.16593016349E+03  0.12509000000E+03 0.  0.
         25    1    4    4    0    0  0.26241234317E+02  0.80356352810E+02 -0.78124451355E+02  0.16999024623E+03  0.12509000000E+03 0.  0.
<mgrwt>
<rscale>  2 0.46122719E+03</rscale>
<asrwt>0</asrwt>
<pdfrwt beam="1">  1       21 0.26831604E-01 0.46122719E+03</pdfrwt>
<pdfrwt beam="2">  1       21 0.42865249E-01 0.46122719E+03</pdfrwt>
<totfact> 0.63927167E+04</totfact>
</mgrwt>
</event>
<event>
 7    0  0.4707675E-002  0.4475370E+03  0.7546771E-02  0.1028459E+00
         21   -1    0    0  502  501  0.00000000000E+00  0.00000000000E+00  0.56565434510E+03  0.56565434510E+03  0.00000000000E+00 0.  1.
         21   -1    0    0  501  502 -0.00000000000E+00 -0.00000000000E+00 -0.88521097994E+02  0.88521097994E+02  0.00000000000E+00 0.  1.
      99926    2    1    2    0    0  0.00000000000E+00  0.00000000000E+00  0.47713324711E+03  0.65417544310E+03  0.44753700948E+03 0.  0.
      99925    2    3    3    0    0 -0.19832343220E+02 -0.53005765402E+02  0.16969687263E+03  0.31747444004E+03  0.26227858948E+03 0.  0.
         25    1    4    4    0    0 -0.55191550755E+00  0.12561994151E+02  0.76405798684E+02  0.14711717262E+03  0.12509000000E+03 0.  0.
         25    1    3    3    0    0  0.19832343220E+02  0.53005765402E+02  0.30743637448E+03  0.33670100305E+03  0.12509000000E+03 0.  0.
         25    1    4    4    0    0 -0.19280427713E+02 -0.65567759553E+02  0.93291073946E+02  0.17035726742E+03  0.12509000000E+03 0.  0.
<mgrwt>
<rscale>  2 0.44753701E+03</rscale>
<asrwt>0</asrwt>
<pdfrwt beam="1">  1       21 0.83184461E-01 0.44753701E+03</pdfrwt>
<pdfrwt beam="2">  1       21 0.13017809E-01 0.44753701E+03</pdfrwt>
<totfact> 0.58849813E+04</totfact>
</mgrwt>
</event>
<event>
 7    0  0.4707675E-002  0.4557926E+03  0.7546771E-02  0.1026009E+00
         21   -1    0    0  502  501  0.00000000000E+00  0.00000000000E+00  0.45226570888E+02  0.45226570888E+02  0.00000000000E+00 0.  1.
         21   -1    0    0  501  502 -0.00000000000E+00 -0.00000000000E+00 -0.11483675458E+04  0.11483675458E+04  0.00000000000E+00 0.  1.
      99926    2    1    2    0    0  0.71054273576E-14  0.00000000000E+00 -0.11031409749E+04  0.11935941167E+04  0.45579261168E+03 0.  0.
      99925    2    3    3    0    0 -0.34805401778E+02 -0.35965909280E+02 -0.42540906554E+03  0.50259989695E+03  0.26292360250E+03 0.  0.
         25    1    4    4    0    0 -0.39500923218E+02 -0.47692216115E+02 -0.25672717133E+03  0.29221775957E+03  0.12509000000E+03 0.  0.
         25    1    3    3    0    0  0.34805401778E+02  0.35965909280E+02 -0.67773190936E+03  0.69099421972E+03  0.12509000000E+03 0.  0.
         25    1    4    4    0    0  0.46955214396E+01  0.11726306836E+02 -0.16868189421E+03  0.21038213738E+03  0.12509000000E+03 0.  0.
<mgrwt>
<rscale>  2 0.45579261E+03</rscale>
<asrwt>0</asrwt>
<pdfrwt beam="1">  1       21 0.66509665E-02 0.45579261E+03</pdfrwt>
<pdfrwt beam="2">  1       21 0.16887758E+00 0.45579261E+03</pdfrwt>
<totfact> 0.32160590E+04</totfact>
</mgrwt>
</event>
<event>
 7    0  0.4707675E-002  0.4539880E+03  0.7546771E-02  0.1026539E+00
         21   -1    0    0  502  501  0.00000000000E+00  0.00000000000E+00  0.68184920559E+03  0.68184920559E+03  0.00000000000E+00 0. -1.
         21   -1    0    0  501  502 -0.00000000000E+00 -0.00000000000E+00 -0.75568430579E+02  0.75568430579E+02  0.00000000000E+00 0. -1.
      99926    2    1    2    0    0  0.00000000000E+00  0.14210854715E-13  0.60628077501E+03  0.75741763617E+03  0.45398799261E+03 0.  0.
      99925    2    3    3    0    0 -0.23791222188E+02 -0.10908139717E+03  0.36250231894E+03  0.46154567534E+03  0.26296711910E+03 0.  0.
         25    1    4    4    0    0 -0.49864187191E+02 -0.71560048587E+02  0.19097053657E+03  0.24438602999E+03  0.12509000000E+03 0.  0.
         25    1    3    3    0    0  0.23791222188E+02  0.10908139717E+03  0.24377845607E+03  0.29587196083E+03  0.12509000000E+03 0.  0.
         25    1    4    4    0    0  0.26072965003E+02 -0.37521348582E+02  0.17153178237E+03  0.21715964535E+03  0.12509000000E+03 0.  0.
<mgrwt>
<rscale>  2 0.45398799E+03</rscale>
<asrwt>0</asrwt>
<pdfrwt beam="1">  1       21 0.10027194E+00 0.45398799E+03</pdfrwt>
<pdfrwt beam="2">  1       21 0.11113005E-01 0.45398799E+03</pdfrwt>
<totfact> 0.50291212E+04</totfact>
</mgrwt>
</event>
<event>
 7    0  0.4707675E-002  0.4475634E+03  0.7546771E-02  0.1028451E+00
         21   -1    0    0  502  501  0.00000000000E+00  0.00000000000E+00  0.32674846638E+02  0.32674846638E+02  0.00000000000E+00 0. -1.
         21   -1    0    0  501  502 -0.00000000000E+00 -0.00000000000E+00 -0.15326238195E+04  0.15326238195E+04  0.00000000000E+00 0. -1.
      99926    2    1    2    0    0  0.14210854715E-13  0.17763568394E-14 -0.14999489729E+04  0.15652986662E+04  0.44756339554E+03 0.  0.
      99925    2    3    3    0    0 -0.65086451734E+02 -0.14106275383E+02 -0.12410941879E+04  0.12701909892E+04  0.26198307683E+03 0.  0.
         25    1    4    4    0    0 -0.60878158926E+02  0.15696015220E+02 -0.71653362205E+03  0.73008249860E+03  0.12509000000E+03 0.  0.
         25    1    4    4    0    0 -0.42082928081E+01 -0.29802290603E+02 -0.52456056585E+03  0.54010849058E+03  0.12509000000E+03 0.  0.
         25    1    3    3    0    0  0.65086451734E+02  0.14106275383E+02 -0.25885478497E+03  0.29510767697E+03  0.12509000000E+03 0.  0.
<mgrwt>
<rscale>  2 0.44756340E+03</rscale>
<asrwt>0</asrwt>
<pdfrwt beam="1">  1       21 0.48051245E-02 0.44756340E+03</pdfrwt>
<pdfrwt beam="2">  1       21 0.22538586E+00 0.44756340E+03</pdfrwt>
<totfact> 0.23554486E+04</totfact>
</mgrwt>
</event>
<event>
 7    0  0.4707675E-002  0.4603323E+03  0.7546771E-02  0.1024685E+00
         21   -1    0    0  502  501  0.00000000000E+00  0.00000000000E+00  0.12986511931E+03  0.12986511931E+03  0.00000000000E+00 0. -1.
         21   -1    0    0  501  502 -0.00000000000E+00 -0.00000000000E+00 -0.40793437889E+03  0.40793437889E+03  0.00000000000E+00 0. -1.
      99926    2    1    2    0    0  0.00000000000E+00  0.00000000000E+00 -0.27806925958E+03  0.53779949820E+03  0.46033225733E+03 0.  0.
      99925    2    3    3    0    0  0.72521051346E+02 -0.68982813279E+02 -0.24739807812E+03  0.37468554758E+03  0.26299338222E+03 0.  0.
         25    1    4    4    0    0  0.10822779859E+01 -0.54982827068E+02 -0.12237597038E+03  0.18343300909E+03  0.12509000000E+03 0.  0.
         25    1    4    4    0    0  0.71438773360E+02 -0.13999986211E+02 -0.12502210774E+03  0.19125253848E+03  0.12509000000E+03 0.  0.
         25    1    3    3    0    0 -0.72521051346E+02  0.68982813279E+02 -0.30671181465E+02  0.16311395063E+03  0.12509000000E+03 0.  0.
<mgrwt>
<rscale>  2 0.46033226E+03</rscale>
<asrwt>0</asrwt>
<pdfrwt beam="1">  1       21 0.19097812E-01 0.46033226E+03</pdfrwt>
<pdfrwt beam="2">  1       21 0.59990350E-01 0.46033226E+03</pdfrwt>
<totfact> 0.60101334E+04</totfact>
</mgrwt>
</event>
<event>
 7    0  0.4707675E-002  0.4531437E+03  0.7546771E-02  0.1026789E+00
         21   -1    0    0  502  501  0.00000000000E+00  0.00000000000E+00  0.34268043895E+02  0.34268043895E+02  0.00000000000E+00 0.  1.
         21   -1    0    0  501  502 -0.00000000000E+00 -0.00000000000E+00 -0.14980370576E+04  0.14980370576E+04  0.00000000000E+00 0.  1.
      99926    2    1    2    0    0  0.00000000000E+00  0.00000000000E+00 -0.14637690137E+04  0.15323051015E+04  0.45314368425E+03 0.  0.
      99925    2    3    3    0    0  0.48390526200E+02  0.26840746574E+02 -0.12496262830E+04  0.12782053456E+04  0.26302279329E+03 0.  0.
         25    1    3    3    0    0 -0.48390526200E+02 -0.26840746574E+02 -0.21414273067E+03  0.25409975581E+03  0.12509000000E+03 0.  0.
         25    1    4    4    0    0 -0.14988064370E+02  0.17006249078E+01 -0.55549825468E+03  0.56960806986E+03  0.12509000000E+03 0.  0.
         25    1    4    4    0    0  0.63378590570E+02  0.25140121666E+02 -0.69412802831E+03  0.70859727578E+03  0.12509000000E+03 0.  0.
<mgrwt>
<rscale>  2 0.45314368E+03</rscale>
<asrwt>0</asrwt>
<pdfrwt beam="1">  1       21 0.50394180E-02 0.45314368E+03</pdfrwt>
<pdfrwt beam="2">  1       21 0.22029958E+00 0.45314368E+03</pdfrwt>
<totfact> 0.23332963E+04</totfact>
</mgrwt>
</event>
<event>
 7    0  0.4707675E-002  0.4563217E+03  0.7546771E-02  0.1025853E+00
         21   -1    0    0  502  501  0.00000000000E+00  0.00000000000E+00  0.75646943833E+02  0.75646943833E+02  0.00000000000E+00 0. -1.
         21   -1    0    0  501  502 -0.00000000000E+00 -0.00000000000E+00 -0.68816221107E+03  0.68816221107E+03  0.00000000000E+00 0. -1.
      99926    2    1    2    0    0  0.00000000000E+00  0.14210854715E-13 -0.61251526724E+03  0.76380915491E+03  0.45632167658E+03 0.  0.
      99925    2    3    3    0    0 -0.53946505371E+01  0.11197643883E+03 -0.34612718119E+03  0.44888385329E+03  0.26291607611E+03 0.  0.
         25    1    4    4    0    0 -0.13921220889E+02  0.70790625475E+02 -0.23750527526E+03  0.27795930803E+03  0.12509000000E+03 0.  0.
         25    1    3    3    0    0  0.53946505371E+01 -0.11197643883E+03 -0.26638808605E+03  0.31492530161E+03  0.12509000000E+03 0.  0.
         25    1    4    4    0    0  0.85265703523E+01  0.41185813357E+02 -0.10862190593E+03  0.17092454526E+03  0.12509000000E+03 0.  0.
<mgrwt>
<rscale>  2 0.45632168E+03</rscale>
<asrwt>0</asrwt>
<pdfrwt beam="1">  1       21 0.11124551E-01 0.45632168E+03</pdfrwt>
<pdfrwt beam="2">  1       21 0.10120032E+00 0.45632168E+03</pdfrwt>
<totfact> 0.49053903E+04</totfact>
</mgrwt>
</event>
<event>
 7    0  0.4707675E-002  0.4597940E+03  0.7546771E-02  0.1024841E+00
         21   -1    0    0  502  501  0.00000000000E+00  0.00000000000E+00  0.48141318355E+02  0.48141318355E+02  0.00000000000E+00 0.  1.
         21   -1    0    0  501  502 -0.00000000000E+00 -0.00000000000E+00 -0.10978641761E+04  0.10978641761E+04  0.00000000000E+00 0.  1.
      99926    2    1    2    0    0  0.00000000000E+00  0.44408920985E-14 -0.10497228578E+04  0.11460054945E+04  0.45979399219E+03 0.  0.
      99925    2    3    3    0    0 -0.70664493327E+02  0.68705051293E+01 -0.42382368344E+03  0.50379216623E+03  0.26294363968E+03 0.  0.
         25    1    4    4    0    0 -0.13652826712E+02 -0.28597492327E+02 -0.17690504691E+03  0.21896830813E+03  0.12509000000E+03 0.  0.
         25    1    4    4    0    0 -0.57011666615E+02  0.35467997457E+02 -0.24691863653E+03  0.28482385809E+03  0.12509000000E+03 0.  0.
         25    1    3    3    0    0  0.70664493327E+02 -0.68705051293E+01 -0.62589917433E+03  0.64221332825E+03  0.12509000000E+03 0.  0.
<mgrwt>
<rscale>  2 0.45979399E+03</rscale>
<asrwt>0</asrwt>
<pdfrwt beam="1">  1       21 0.70796059E-02 0.45979399E+03</pdfrwt>
<pdfrwt beam="2">  1       21 0.16145061E+00 0.45979399E+03</pdfrwt>
<totfact> 0.32677846E+04</totfact>
</mgrwt>
</event>
<event>
 7    0  0.4707675E-002  0.4537743E+03  0.7546771E-02  0.1026602E+00
         21   -1    0    0  502  501  0.00000000000E+00  0.00000000000E+00  0.21099335775E+03  0.21099335775E+03  0.00000000000E+00 0. -1.
         21   -1    0    0  501  502 -0.00000000000E+00 -0.00000000000E+00 -0.24397821975E+03  0.24397821975E+03  0.00000000000E+00 0. -1.
      99926    2    1    2    0    0  0.00000000000E+00  0.14210854715E-13 -0.32984862000E+02  0.45497157749E+03  0.45377432189E+03 0.  0.
      99925    2    3    3    0    0 -0.53252174896E+02  0.78632166476E+02 -0.80082335421E+02  0.29100666711E+03  0.26315943479E+03 0.  0.
         25    1    3    3    0    0  0.53252174896E+02 -0.78632166476E+02  0.47097473422E+02  0.16396491039E+03  0.12509000000E+03 0.  0.
         25    1    4    4    0    0 -0.22467450013E+02  0.40588559157E+01 -0.60694174965E+02  0.14089908302E+03  0.12509000000E+03 0.  0.
         25    1    4    4    0    0 -0.30784724883E+02  0.74573310561E+02 -0.19388160456E+02  0.15010758409E+03  0.12509000000E+03 0.  0.
<mgrwt>
<rscale>  2 0.45377432E+03</rscale>
<asrwt>0</asrwt>
<pdfrwt beam="1">  1       21 0.31028435E-01 0.45377432E+03</pdfrwt>
<pdfrwt beam="2">  1       21 0.35879150E-01 0.45377432E+03</pdfrwt>
<totfact> 0.69222390E+04</totfact>
</mgrwt>
</event>
<event>
 7    0  0.4707675E-002  0.4514117E+03  0.7546771E-02  0.1027302E+00
         21   -1    0    0  502  501  0.00000000000E+00  0.00000000000E+00  0.18518257034E+03  0.18518257034E+03  0.00000000000E+00 0. -1.
         21   -1    0    0  501  502 -0.00000000000E+00 -0.00000000000E+00 -0.27509679348E+03  0.27509679348E+03  0.00000000000E+00 0. -1.
      99926    2    1    2    0    0  0.00000000000E+00 -0.71054273576E-14 -0.89914223147E+02  0.46027936382E+03  0.45141170259E+03 0.  0.
      99925    2    3    3    0    0  0.39336535802E+02 -0.44265275746E+02  0.37431841867E+02  0.27220675534E+03  0.26303725436E+03 0.  0.
         25    1    3    3    0    0 -0.39336535802E+02  0.44265275746E+02 -0.12734606501E+03  0.18807260848E+03  0.12509000000E+03 0.  0.
         25    1    4    4    0    0  0.28572693729E+02 -0.53205574156E+02 -0.60516537062E+01  0.13903727040E+03  0.12509000000E+03 0.  0.
         25    1    4    4    0    0  0.10763842073E+02  0.89402984099E+01  0.43483495573E+02  0.13316948494E+03  0.12509000000E+03 0.  0.
<mgrwt>
<rscale>  2 0.45141170E+03</rscale>
<asrwt>0</asrwt>
<pdfrwt beam="1">  1       21 0.27232731E-01 0.45141170E+03</pdfrwt>
<pdfrwt beam="2">  1       21 0.40455410E-01 0.45141170E+03</pdfrwt>
<totfact> 0.70141578E+04</totfact>
</mgrwt>
</event>
<event>
 7    0  0.4707675E-002  0.4536915E+03  0.7546771E-02  0.1026627E+00
         21   -1    0    0  502  501  0.00000000000E+00  0.00000000000E+00  0.22002763808E+03  0.22002763808E+03  0.00000000000E+00 0.  1.
         21   -1    0    0  501  502 -0.00000000000E+00 -0.00000000000E+00 -0.23387510046E+03  0.23387510046E+03  0.00000000000E+00 0.  1.
      99926    2    1    2    0    0  0.14210854715E-13 -0.71054273576E-14 -0.13847462382E+02  0.45390273853E+03  0.45369146326E+03 0.  0.
      99925    2    3    3    0    0  0.97591243159E+02 -0.52362488991E+02 -0.24503801604E+02  0.28649023404E+03  0.26307857555E+03 0.  0.
         25    1    3    3    0    0 -0.97591243159E+02  0.52362488991E+02  0.10656339222E+02  0.16741250449E+03  0.12509000000E+03 0.  0.
         25    1    4    4    0    0  0.92057525325E+02 -0.31053294131E+02 -0.11189109747E+02  0.15878160889E+03  0.12509000000E+03 0.  0.
         25    1    4    4    0    0  0.55337178339E+01 -0.21309194861E+02 -0.13314691857E+02  0.12770862515E+03  0.12509000000E+03 0.  0.
<mgrwt>
<rscale>  2 0.45369146E+03</rscale>
<asrwt>0</asrwt>
<pdfrwt beam="1">  1       21 0.32357006E-01 0.45369146E+03</pdfrwt>
<pdfrwt beam="2">  1       21 0.34393397E-01 0.45369146E+03</pdfrwt>
<totfact> 0.69347476E+04</totfact>
</mgrwt>
</event>
<event>
 7    0  0.4707675E-002  0.4527259E+03  0.7546771E-02  0.1026912E+00
         21   -1    0    0  502  501  0.00000000000E+00  0.00000000000E+00  0.98794439798E+03  0.98794439798E+03  0.00000000000E+00 0. -1.
         21   -1    0    0  501  502 -0.00000000000E+00 -0.00000000000E+00 -0.51865453833E+02  0.51865453833E+02  0.00000000000E+00 0. -1.
      99926    2    1    2    0    0  0.71054273576E-14  0.00000000000E+00  0.93607894415E+03  0.10398098518E+04  0.45272589748E+03 0.  0.
      99925    2    3    3    0    0 -0.22455690981E+02  0.73543338705E+02  0.77412975205E+03  0.82120534672E+03  0.26303700833E+03 0.  0.
         25    1    4    4    0    0 -0.32631464495E+02  0.51130595978E+02  0.49845544796E+03  0.51747897737E+03  0.12509000000E+03 0.  0.
         25    1    4    4    0    0  0.10175773514E+02  0.22412742727E+02  0.27567430409E+03  0.30372636935E+03  0.12509000000E+03 0.  0.
         25    1    3    3    0    0  0.22455690981E+02 -0.73543338705E+02  0.16194919209E+03  0.21860450509E+03  0.12509000000E+03 0.  0.
<mgrwt>
<rscale>  2 0.45272590E+03</rscale>
<asrwt>0</asrwt>
<pdfrwt beam="1">  1       21 0.14528593E+00 0.45272590E+03</pdfrwt>
<pdfrwt beam="2">  1       21 0.76272732E-02 0.45272590E+03</pdfrwt>
<totfact> 0.38329447E+04</totfact>
</mgrwt>
</event>
<event>
 7    0  0.4707675E-002  0.4545549E+03  0.7546771E-02  0.1026372E+00
         21   -1    0    0  502  501  0.00000000000E+00  0.00000000000E+00  0.12059215184E+03  0.12059215184E+03  0.00000000000E+00 0. -1.
         21   -1    0    0  501  502 -0.00000000000E+00 -0.00000000000E+00 -0.42834488358E+03  0.42834488358E+03  0.00000000000E+00 0. -1.
      99926    2    1    2    0    0  0.00000000000E+00  0.71054273576E-14 -0.30775273174E+03  0.54893703541E+03  0.45455486463E+03 0.  0.
      99925    2    3    3    0    0  0.91735552188E+02 -0.46848851004E+02 -0.13844870793E+03  0.31458348423E+03  0.26302946118E+03 0.  0.
         25    1    4    4    0    0  0.77083507645E+02 -0.35063665557E+02 -0.10427218505E+03  0.18355251147E+03  0.12509000000E+03 0.  0.
         25    1    4    4    0    0  0.14652044543E+02 -0.11785185447E+02 -0.34176522885E+02  0.13103097276E+03  0.12509000000E+03 0.  0.
         25    1    3    3    0    0 -0.91735552188E+02  0.46848851004E+02 -0.16930402381E+03  0.23435355118E+03  0.12509000000E+03 0.  0.
<mgrwt>
<rscale>  2 0.45455486E+03</rscale>
<asrwt>0</asrwt>
<pdfrwt beam="1">  1       21 0.17734140E-01 0.45455486E+03</pdfrwt>
<pdfrwt beam="2">  1       21 0.62991896E-01 0.45455486E+03</pdfrwt>
<totfact> 0.62155428E+04</totfact>
</mgrwt>
</event>
<event>
 7    0  0.4707675E-002  0.4601193E+03  0.7546771E-02  0.1024747E+00
         21   -1    0    0  502  501  0.00000000000E+00  0.00000000000E+00  0.15333726901E+03  0.15333726901E+03  0.00000000000E+00 0.  1.
         21   -1    0    0  501  502 -0.00000000000E+00 -0.00000000000E+00 -0.34517015623E+03  0.34517015623E+03  0.00000000000E+00 0.  1.
      99926    2    1    2    0    0  0.71054273576E-14  0.14210854715E-13 -0.19183288721E+03  0.49850742524E+03  0.46011932844E+03 0.  0.
      99925    2    3    3    0    0 -0.53885115230E+02 -0.93881429138E+02 -0.70521594280E+02  0.29337023633E+03  0.26339223968E+03 0.  0.
         25    1    4    4    0    0 -0.50860197311E+01 -0.23694828013E+02 -0.61794504059E+02  0.14160996188E+03  0.12509000000E+03 0.  0.
         25    1    3    3    0    0  0.53885115230E+02  0.93881429138E+02 -0.12131129293E+03  0.20513718891E+03  0.12509000000E+03 0.  0.
         25    1    4    4    0    0 -0.48799095499E+02 -0.70186601125E+02 -0.87270902213E+01  0.15176027446E+03  0.12509000000E+03 0.  0.
<mgrwt>
<rscale>  2 0.46011933E+03</rscale>
<asrwt>0</asrwt>
<pdfrwt beam="1">  1       21 0.22549599E-01 0.46011933E+03</pdfrwt>
<pdfrwt beam="2">  1       21 0.50760315E-01 0.46011933E+03</pdfrwt>
<totfact> 0.62785024E+04</totfact>
</mgrwt>
</event>
<event>
 7    0  0.4707675E-002  0.4539770E+03  0.7546771E-02  0.1026543E+00
         21   -1    0    0  502  501  0.00000000000E+00  0.00000000000E+00  0.23829599164E+03  0.23829599164E+03  0.00000000000E+00 0. -1.
         21   -1    0    0  501  502 -0.00000000000E+00 -0.00000000000E+00 -0.21621752717E+03  0.21621752717E+03  0.00000000000E+00 0. -1.
      99926    2    1    2    0    0  0.35527136788E-14  0.00000000000E+00  0.22078464470E+02  0.45451351882E+03  0.45397695998E+03 0.  0.
      99925    2    3    3    0    0 -0.31841453850E+02 -0.10690094183E+03  0.26121162405E+02  0.28686644591E+03  0.26299877018E+03 0.  0.
         25    1    3    3    0    0  0.31841453850E+02  0.10690094183E+03 -0.40426979350E+01  0.16764707291E+03  0.12509000000E+03 0.  0.
         25    1    4    4    0    0 -0.73328263427E+01 -0.21235283609E+02  0.38482839329E+02  0.13278985140E+03  0.12509000000E+03 0.  0.
         25    1    4    4    0    0 -0.24508627507E+02 -0.85665658219E+02 -0.12361676924E+02  0.15407659451E+03  0.12509000000E+03 0.  0.
<mgrwt>
<rscale>  2 0.45397696E+03</rscale>
<asrwt>0</asrwt>
<pdfrwt beam="1">  1       21 0.35043528E-01 0.45397696E+03</pdfrwt>
<pdfrwt beam="2">  1       21 0.31796695E-01 0.45397696E+03</pdfrwt>
<totfact> 0.69144154E+04</totfact>
</mgrwt>
</event>
<event>
 7    0  0.4707675E-002  0.4903581E+03  0.7546771E-02  0.1016327E+00
         21   -1    0    0  502  501  0.00000000000E+00  0.00000000000E+00  0.16147733865E+04  0.16147733865E+04  0.00000000000E+00 0. -1.
         21   -1    0    0  501  502 -0.00000000000E+00 -0.00000000000E+00 -0.37226743364E+02  0.37226743364E+02  0.00000000000E+00 0. -1.
      99926    2    1    2    0    0  0.00000000000E+00 -0.14210854715E-13  0.15775466431E+04  0.16520001299E+04  0.49035805061E+03 0.  0.
      99925    2    3    3    0    0  0.72377804107E+02  0.11137462220E+03  0.11490039441E+04  0.11862327995E+04  0.26324007703E+03 0.  0.
         25    1    3    3    0    0 -0.72377804107E+02 -0.11137462220E+03  0.42854269907E+03  0.46576733035E+03  0.12509000000E+03 0.  0.
         25    1    4    4    0    0  0.40828955418E+02  0.67086910128E+02  0.75434069774E+03  0.76866446092E+03  0.12509000000E+03 0.  0.
         25    1    4    4    0    0  0.31548848690E+02  0.44287712074E+02  0.39466324632E+03  0.41756833859E+03  0.12509000000E+03 0.  0.
<mgrwt>
<rscale>  2 0.49035805E+03</rscale>
<asrwt>0</asrwt>
<pdfrwt beam="1">  1       21 0.23746663E+00 0.49035805E+03</pdfrwt>
<pdfrwt beam="2">  1       21 0.54745222E-02 0.49035805E+03</pdfrwt>
<totfact> 0.15551975E+04</totfact>
</mgrwt>
</event>
<event>
 7    0  0.4707675E-002  0.4436592E+03  0.7546771E-02  0.1029630E+00
         21   -1    0    0  502  501  0.00000000000E+00  0.00000000000E+00  0.11030074950E+03  0.11030074950E+03  0.00000000000E+00 0. -1.
         21   -1    0    0  501  502 -0.00000000000E+00 -0.00000000000E+00 -0.44612906384E+03  0.44612906384E+03  0.00000000000E+00 0. -1.
      99926    2    1    2    0    0  0.00000000000E+00  0.00000000000E+00 -0.33582831434E+03  0.55642981334E+03  0.44365919405E+03 0.  0.
      99925    2    3    3    0    0  0.86791449077E+02  0.53772477415E+02 -0.20718631465E+03  0.34998246620E+03  0.26293977011E+03 0.  0.
         25    1    3    3    0    0 -0.86791449077E+02 -0.53772477415E+02 -0.12864199968E+03  0.20644734714E+03  0.12509000000E+03 0.  0.
         25    1    4    4    0    0  0.20068900612E+02  0.50906559600E+02 -0.73323594589E+02  0.15497772810E+03  0.12509000000E+03 0.  0.
         25    1    4    4    0    0  0.66722548466E+02  0.28659178154E+01 -0.13386272007E+03  0.19500473810E+03  0.12509000000E+03 0.  0.
<mgrwt>
<rscale>  2 0.44365919E+03</rscale>
<asrwt>0</asrwt>
<pdfrwt beam="1">  1       21 0.16220698E-01 0.44365919E+03</pdfrwt>
<pdfrwt beam="2">  1       21 0.65607216E-01 0.44365919E+03</pdfrwt>
<totfact> 0.67279190E+04</totfact>
</mgrwt>
</event>
<event>
 7    0  0.4707675E-002  0.4496279E+03  0.7546771E-02  0.1027833E+00
         21   -1    0    0  502  501  0.00000000000E+00  0.00000000000E+00  0.93033517654E+02  0.93033517654E+02  0.00000000000E+00 0.  1.
         21   -1    0    0  501  502 -0.00000000000E+00 -0.00000000000E+00 -0.54325925653E+03  0.54325925653E+03  0.00000000000E+00 0.  1.
      99926    2    1    2    0    0 -0.14210854715E-13  0.00000000000E+00 -0.45022573888E+03  0.63629277419E+03  0.44962793344E+03 0.  0.
      99925    2    3    3    0    0  0.90524157343E+02  0.44454845729E+02 -0.33958484747E+03  0.44120363732E+03  0.26300555998E+03 0.  0.
         25    1    4    4    0    0  0.13266252725E+02  0.46290694107E+02 -0.14755438000E+03  0.19934549149E+03  0.12509000000E+03 0.  0.
         25    1    4    4    0    0  0.77257904618E+02 -0.18358483775E+01 -0.19203046747E+03  0.24185814582E+03  0.12509000000E+03 0.  0.
         25    1    3    3    0    0 -0.90524157343E+02 -0.44454845729E+02 -0.11064089141E+03  0.19508913687E+03  0.12509000000E+03 0.  0.
<mgrwt>
<rscale>  2 0.44962793E+03</rscale>
<asrwt>0</asrwt>
<pdfrwt beam="1">  1       21 0.13681400E-01 0.44962793E+03</pdfrwt>
<pdfrwt beam="2">  1       21 0.79891066E-01 0.44962793E+03</pdfrwt>
<totfact> 0.58958339E+04</totfact>
</mgrwt>
</event>
<event>
 7    0  0.4707675E-002  0.4550413E+03  0.7546771E-02  0.1026229E+00
         21   -1    0    0  502  501  0.00000000000E+00  0.00000000000E+00  0.13360282282E+04  0.13360282282E+04  0.00000000000E+00 0. -1.
         21   -1    0    0  501  502 -0.00000000000E+00 -0.00000000000E+00 -0.38745924322E+02  0.38745924322E+02  0.00000000000E+00 0. -1.
      99926    2    1    2    0    0  0.71054273576E-14 -0.14210854715E-13  0.12972823039E+04  0.13747741525E+04  0.45504131074E+03 0.  0.
      99925    2    3    3    0    0 -0.55092085735E+02  0.96330094172E+02  0.74385754098E+03  0.79663826776E+03  0.26266682973E+03 0.  0.
         25    1    4    4    0    0 -0.63749026503E+02  0.32272116136E+02  0.39391799222E+03  0.41943333267E+03  0.12509000000E+03 0.  0.
         25    1    4    4    0    0  0.86569407681E+01  0.64057978036E+02  0.34993954875E+03  0.37720493509E+03  0.12509000000E+03 0.  0.
         25    1    3    3    0    0  0.55092085735E+02 -0.96330094172E+02  0.55342476288E+03  0.57813588474E+03  0.12509000000E+03 0.  0.
<mgrwt>
<rscale>  2 0.45504131E+03</rscale>
<asrwt>0</asrwt>
<pdfrwt beam="1">  1       21 0.19647471E+00 0.45504131E+03</pdfrwt>
<pdfrwt beam="2">  1       21 0.56979309E-02 0.45504131E+03</pdfrwt>
<totfact> 0.27003392E+04</totfact>
</mgrwt>
</event>
<event>
 7    0  0.4707675E-002  0.4543741E+03  0.7546771E-02  0.1026426E+00
         21   -1    0    0  502  501  0.00000000000E+00  0.00000000000E+00  0.30545464920E+02  0.30545464920E+02  0.00000000000E+00 0.  1.
         21   -1    0    0  501  502 -0.00000000000E+00 -0.00000000000E+00 -0.16897420442E+04  0.16897420442E+04  0.00000000000E+00 0.  1.
      99926    2    1    2    0    0 -0.14210854715E-13 -0.35527136788E-14 -0.16591965792E+04  0.17202875091E+04  0.45437410284E+03 0.  0.
      99925    2    3    3    0    0 -0.11021867298E+03  0.21850541033E+02 -0.10214393954E+04  0.10607366501E+04  0.26305550792E+03 0.  0.
         25    1    3    3    0    0  0.11021867298E+03 -0.21850541033E+02 -0.63775718382E+03  0.65955085902E+03  0.12509000000E+03 0.  0.
         25    1    4    4    0    0 -0.77592107735E+02  0.42453678390E+02 -0.48874838485E+03  0.51219658510E+03  0.12509000000E+03 0.  0.
         25    1    4    4    0    0 -0.32626565250E+02 -0.20603137357E+02 -0.53269101057E+03  0.54854006497E+03  0.12509000000E+03 0.  0.
<mgrwt>
<rscale>  2 0.45437410E+03</rscale>
<asrwt>0</asrwt>
<pdfrwt beam="1">  1       21 0.44919802E-02 0.45437410E+03</pdfrwt>
<pdfrwt beam="2">  1       21 0.24849148E+00 0.45437410E+03</pdfrwt>
<totfact> 0.18934434E+04</totfact>
</mgrwt>
</event>
<event>
 7    0  0.4707675E-002  0.4375667E+03  0.7546771E-02  0.1031496E+00
         21   -1    0    0  502  501  0.00000000000E+00  0.00000000000E+00  0.29327485800E+03  0.29327485800E+03  0.00000000000E+00 0.  1.
         21   -1    0    0  501  502 -0.00000000000E+00 -0.00000000000E+00 -0.16321260125E+03  0.16321260125E+03  0.00000000000E+00 0.  1.
      99926    2    1    2    0    0 -0.14210854715E-13  0.00000000000E+00  0.13006225675E+03  0.45648745926E+03  0.43756669186E+03 0.  0.
      99925    2    3    3    0    0 -0.84551115466E+02 -0.45403989417E+02  0.82400531373E+02  0.29177692059E+03  0.26293252069E+03 0.  0.
         25    1    4    4    0    0 -0.85110905333E+01 -0.45449009877E+02  0.34532234987E+02  0.13776078729E+03  0.12509000000E+03 0.  0.
         25    1    3    3    0    0  0.84551115466E+02  0.45403989417E+02  0.47661725380E+02  0.16471053867E+03  0.12509000000E+03 0.  0.
         25    1    4    4    0    0 -0.76040024932E+02  0.45020459431E-01  0.47868296386E+02  0.15401613330E+03  0.12509000000E+03 0.  0.
<mgrwt>
<rscale>  2 0.43756669E+03</rscale>
<asrwt>0</asrwt>
<pdfrwt beam="1">  1       21 0.43128656E-01 0.43756669E+03</pdfrwt>
<pdfrwt beam="2">  1       21 0.24001853E-01 0.43756669E+03</pdfrwt>
<totfact> 0.78801231E+04</totfact>
</mgrwt>
</event>
<event>
 7    0  0.4707675E-002  0.4546623E+03  0.7546771E-02  0.1026341E+00
         21   -1    0    0  502  501  0.00000000000E+00  0.00000000000E+00  0.30993565824E+03  0.30993565824E+03  0.00000000000E+00 0.  1.
         21   -1    0    0  501  502 -0.00000000000E+00 -0.00000000000E+00 -0.16674248251E+03  0.16674248251E+03  0.00000000000E+00 0.  1.
      99926    2    1    2    0    0  0.14210854715E-13  0.00000000000E+00  0.14319317573E+03  0.47667814075E+03  0.45466225299E+03 0.  0.
      99925    2    3    3    0    0  0.74031630421E+02  0.51112761305E+02  0.18798384327E+02  0.27865094843E+03  0.26305850136E+03 0.  0.
         25    1    3    3    0    0 -0.74031630421E+02 -0.51112761305E+02  0.12439479141E+03  0.19802719232E+03  0.12509000000E+03 0.  0.
         25    1    4    4    0    0  0.78686163125E+02  0.34371506153E+02  0.10086623504E+02  0.15205972766E+03  0.12509000000E+03 0.  0.
         25    1    4    4    0    0 -0.46545327041E+01  0.16741255153E+02  0.87117608233E+01  0.12659122077E+03  0.12509000000E+03 0.  0.
<mgrwt>
<rscale>  2 0.45466225E+03</rscale>
<asrwt>0</asrwt>
<pdfrwt beam="1">  1       21 0.45578773E-01 0.45466225E+03</pdfrwt>
<pdfrwt beam="2">  1       21 0.24520953E-01 0.45466225E+03</pdfrwt>
<totfact> 0.67122452E+04</totfact>
</mgrwt>
</event>
<event>
 7    0  0.4707675E-002  0.4555549E+03  0.7546771E-02  0.1026078E+00
         21   -1    0    0  502  501  0.00000000000E+00  0.00000000000E+00  0.27133862791E+02  0.27133862791E+02  0.00000000000E+00 0.  1.
         21   -1    0    0  501  502 -0.00000000000E+00 -0.00000000000E+00 -0.19120967251E+04  0.19120967251E+04  0.00000000000E+00 0.  1.
      99926    2    1    2    0    0  0.00000000000E+00  0.14210854715E-13 -0.18849628623E+04  0.19392305879E+04  0.45555491516E+03 0.  0.
      99925    2    3    3    0    0 -0.83801422762E+02 -0.75185263371E+02 -0.11168140527E+04  0.11528619694E+04  0.26294788454E+03 0.  0.
         25    1    4    4    0    0  0.14915437702E+00 -0.35989746159E+02 -0.53053663411E+03  0.54627091476E+03  0.12509000000E+03 0.  0.
         25    1    3    3    0    0  0.83801422762E+02  0.75185263371E+02 -0.76814880960E+03  0.78636861845E+03  0.12509000000E+03 0.  0.
         25    1    4    4    0    0 -0.83950577139E+02 -0.39195517212E+02 -0.58627741858E+03  0.60659105467E+03  0.12509000000E+03 0.  0.
<mgrwt>
<rscale>  2 0.45555492E+03</rscale>
<asrwt>0</asrwt>
<pdfrwt beam="1">  1       21 0.39902730E-02 0.45555492E+03</pdfrwt>
<pdfrwt beam="2">  1       21 0.28119076E+00 0.45555492E+03</pdfrwt>
<totfact> 0.14664254E+04</totfact>
</mgrwt>
</event>
<event>
 6    0  0.4707675E-002  0.4272710E+03  0.7546771E-02  0.1034726E+00
         21   -1    0    0  502  501  0.00000000000E+00  0.00000000000E+00  0.10012591841E+04  0.10012591841E+04  0.00000000000E+00 0. -1.
         21   -1    0    0  501  502 -0.00000000000E+00 -0.00000000000E+00 -0.45582723850E+02  0.45582723850E+02  0.00000000000E+00 0. -1.
      99926    2    1    2    0    0  0.71054273576E-14  0.00000000000E+00  0.95567646029E+03  0.10468419080E+04  0.42727097207E+03 0.  0.
         25    1    3    3    0    0 -0.16220641001E+02  0.43595511808E+02  0.26226836150E+03  0.29427177810E+03  0.12509000000E+03 0.  0.
         25    1    3    3    0    0  0.69457069093E+02  0.98893578923E+01  0.29005778121E+03  0.32357859693E+03  0.12509000000E+03 0.  0.
         25    1    3    3    0    0 -0.53236428091E+02 -0.53484869700E+02  0.40335031758E+03  0.42899153296E+03  0.12509000000E+03 0.  0.
<mgrwt>
<rscale>  2 0.42727097E+03</rscale>
<asrwt>0</asrwt>
<pdfrwt beam="1">  1       21 0.14724398E+00 0.42727097E+03</pdfrwt>
<pdfrwt beam="2">  1       21 0.67033424E-02 0.42727097E+03</pdfrwt>
<totfact> 0.46714452E+04</totfact>
</mgrwt>
</event>
<event>
 7    0  0.4707675E-002  0.4620887E+03  0.7546771E-02  0.1024177E+00
         21   -1    0    0  502  501  0.00000000000E+00  0.00000000000E+00  0.26430789239E+02  0.26430789239E+02  0.00000000000E+00 0.  1.
         21   -1    0    0  501  502 -0.00000000000E+00 -0.00000000000E+00 -0.20196711324E+04  0.20196711324E+04  0.00000000000E+00 0.  1.
      99926    2    1    2    0    0  0.00000000000E+00  0.00000000000E+00 -0.19932403431E+04  0.20461019216E+04  0.46208874486E+03 0.  0.
      99925    2    3    3    0    0  0.77031514168E+02 -0.90575591772E+02 -0.11831379055E+04  0.12178198081E+04  0.26292962855E+03 0.  0.
         25    1    4    4    0    0  0.78061192466E+02 -0.60888919304E+02 -0.68948952960E+03  0.70770356068E+03  0.12509000000E+03 0.  0.
         25    1    3    3    0    0 -0.77031514168E+02  0.90575591772E+02 -0.81010243762E+03  0.82828211350E+03  0.12509000000E+03 0.  0.
         25    1    4    4    0    0 -0.10296782983E+01 -0.29686672468E+02 -0.49364837589E+03  0.51011624742E+03  0.12509000000E+03 0.  0.
<mgrwt>
<rscale>  2 0.46208874E+03</rscale>
<asrwt>0</asrwt>
<pdfrwt beam="1">  1       21 0.38868799E-02 0.46208874E+03</pdfrwt>
<pdfrwt beam="2">  1       21 0.29701053E+00 0.46208874E+03</pdfrwt>
<totfact> 0.12281712E+04</totfact>
</mgrwt>
</event>
<event>
 7    0  0.4707675E-002  0.4485640E+03  0.7546771E-02  0.1028151E+00
         21   -1    0    0  502  501  0.00000000000E+00  0.00000000000E+00  0.38813453874E+03  0.38813453874E+03  0.00000000000E+00 0.  1.
         21   -1    0    0  501  502 -0.00000000000E+00 -0.00000000000E+00 -0.12960045979E+03  0.12960045979E+03  0.00000000000E+00 0.  1.
      99926    2    1    2    0    0  0.00000000000E+00  0.00000000000E+00  0.25853407895E+03  0.51773499853E+03  0.44856399625E+03 0.  0.
      99925    2    3    3    0    0 -0.84360933745E+02  0.61543220706E+02  0.13649860183E+03  0.31415577333E+03  0.26297841444E+03 0.  0.
         25    1    4    4    0    0 -0.26779217950E+02  0.53571262215E+01  0.95950274327E+02  0.15999933925E+03  0.12509000000E+03 0.  0.
         25    1    4    4    0    0 -0.57581715794E+02  0.56186094484E+02  0.40548327499E+02  0.15415643409E+03  0.12509000000E+03 0.  0.
         25    1    3    3    0    0  0.84360933745E+02 -0.61543220706E+02  0.12203547712E+03  0.20357922520E+03  0.12509000000E+03 0.  0.
<mgrwt>
<rscale>  2 0.44856400E+03</rscale>
<asrwt>0</asrwt>
<pdfrwt beam="1">  1       21 0.57078608E-01 0.44856400E+03</pdfrwt>
<pdfrwt beam="2">  1       21 0.19058891E-01 0.44856400E+03</pdfrwt>
<totfact> 0.67418968E+04</totfact>
</mgrwt>
</event>
<event>
 7    0  0.4707675E-002  0.4486657E+03  0.7546771E-02  0.1028121E+00
         21   -1    0    0  502  501  0.00000000000E+00  0.00000000000E+00  0.10811691388E+04  0.10811691388E+04  0.00000000000E+00 0. -1.
         21   -1    0    0  501  502 -0.00000000000E+00 -0.00000000000E+00 -0.46547041032E+02  0.46547041032E+02  0.00000000000E+00 0. -1.
      99926    2    1    2    0    0  0.35527136788E-14  0.00000000000E+00  0.10346220977E+04  0.11277161798E+04  0.44866568518E+03 0.  0.
      99925    2    3    3    0    0 -0.26614487535E+02  0.76226402109E+02  0.47820406168E+03  0.55172370218E+03  0.26306106442E+03 0.  0.
         25    1    4    4    0    0 -0.84461410593E+01  0.98343089352E+01  0.28476823176E+03  0.31130130878E+03  0.12509000000E+03 0.  0.
         25    1    3    3    0    0  0.26614487535E+02 -0.76226402109E+02  0.55641803606E+03  0.57599247762E+03  0.12509000000E+03 0.  0.
         25    1    4    4    0    0 -0.18168346476E+02  0.66392093174E+02  0.19343582992E+03  0.24042239340E+03  0.12509000000E+03 0.  0.
<mgrwt>
<rscale>  2 0.44866569E+03</rscale>
<asrwt>0</asrwt>
<pdfrwt beam="1">  1       21 0.15899545E+00 0.44866569E+03</pdfrwt>
<pdfrwt beam="2">  1       21 0.68451538E-02 0.44866569E+03</pdfrwt>
<totfact> 0.36294490E+04</totfact>
</mgrwt>
</event>
<event>
 7    0  0.4707675E-002  0.4503773E+03  0.7546771E-02  0.1027610E+00
         21   -1    0    0  502  501  0.00000000000E+00  0.00000000000E+00  0.14805959189E+03  0.14805959189E+03  0.00000000000E+00 0. -1.
         21   -1    0    0  501  502 -0.00000000000E+00 -0.00000000000E+00 -0.34249672436E+03  0.34249672436E+03  0.00000000000E+00 0. -1.
      99926    2    1    2    0    0 -0.14210854715E-13  0.00000000000E+00 -0.19443713247E+03  0.49055631624E+03  0.45037728731E+03 0.  0.
      99925    2    3    3    0    0  0.95483040106E+02  0.22013059137E+02 -0.71415363782E+02  0.28959997922E+03  0.26299507231E+03 0.  0.
         25    1    4    4    0    0  0.37823876202E+02 -0.15687852908E+02 -0.64630078688E+02  0.14663324831E+03  0.12509000000E+03 0.  0.
         25    1    3    3    0    0 -0.95483040106E+02 -0.22013059137E+02 -0.12302176869E+03  0.20095633703E+03  0.12509000000E+03 0.  0.
         25    1    4    4    0    0  0.57659163903E+02  0.37700912046E+02 -0.67852850943E+01  0.14296673090E+03  0.12509000000E+03 0.  0.
<mgrwt>
<rscale>  2 0.45037729E+03</rscale>
<asrwt>0</asrwt>
<pdfrwt beam="1">  1       21 0.21773470E-01 0.45037729E+03</pdfrwt>
<pdfrwt beam="2">  1       21 0.50367164E-01 0.45037729E+03</pdfrwt>
<totfact> 0.68415794E+04</totfact>
</mgrwt>
</event>
<event>
 7    0  0.4707675E-002  0.4522309E+03  0.7546771E-02  0.1027059E+00
         21   -1    0    0  502  501  0.00000000000E+00  0.00000000000E+00  0.46301793376E+03  0.46301793376E+03  0.00000000000E+00 0.  1.
         21   -1    0    0  501  502 -0.00000000000E+00 -0.00000000000E+00 -0.11042378581E+03  0.11042378581E+03  0.00000000000E+00 0.  1.
      99926    2    1    2    0    0 -0.35527136788E-14  0.14210854715E-13  0.35259414794E+03  0.57344171957E+03  0.45223088415E+03 0.  0.
      99925    2    3    3    0    0  0.15503121384E+02 -0.71203610773E+02  0.32777231153E+03  0.42656104479E+03  0.26307667279E+03 0.  0.
         25    1    4    4    0    0 -0.25834405088E+02 -0.50502902545E+02  0.19371657529E+03  0.23746911230E+03  0.12509000000E+03 0.  0.
         25    1    3    3    0    0 -0.15503121384E+02  0.71203610773E+02  0.24821836408E+02  0.14688067478E+03  0.12509000000E+03 0.  0.
         25    1    4    4    0    0  0.41337526471E+02 -0.20700708228E+02  0.13405573624E+03  0.18909193250E+03  0.12509000000E+03 0.  0.
<mgrwt>
<rscale>  2 0.45223088E+03</rscale>
<asrwt>0</asrwt>
<pdfrwt beam="1">  1       21 0.68090872E-01 0.45223088E+03</pdfrwt>
<pdfrwt beam="2">  1       21 0.16238792E-01 0.45223088E+03</pdfrwt>
<totfact> 0.61683051E+04</totfact>
</mgrwt>
</event>
<event>
 7    0  0.4707675E-002  0.4134453E+03  0.7546771E-02  0.1039221E+00
         21   -1    0    0  502  501  0.00000000000E+00  0.00000000000E+00  0.64567915855E+03  0.64567915855E+03  0.00000000000E+00 0.  1.
         21   -1    0    0  501  502 -0.00000000000E+00 -0.00000000000E+00 -0.66184982549E+02  0.66184982549E+02  0.00000000000E+00 0.  1.
      99926    2    1    2    0    0  0.00000000000E+00  0.00000000000E+00  0.57949417600E+03  0.71186414110E+03  0.41344534749E+03 0.  0.
      99925    2    3    3    0    0 -0.54526340521E+02  0.39555204122E+02  0.38290319859E+03  0.46930846402E+03  0.26286467798E+03 0.  0.
         25    1    4    4    0    0 -0.90659108331E+01  0.52473959104E+02  0.21913119517E+03  0.25787922739E+03  0.12509000000E+03 0.  0.
         25    1    3    3    0    0  0.54526340521E+02 -0.39555204122E+02  0.19659097741E+03  0.24255567708E+03  0.12509000000E+03 0.  0.
         25    1    4    4    0    0 -0.45460429687E+02 -0.12918754983E+02  0.16377200342E+03  0.21142923663E+03  0.12509000000E+03 0.  0.
<mgrwt>
<rscale>  2 0.41344535E+03</rscale>
<asrwt>0</asrwt>
<pdfrwt beam="1">  1       21 0.94952814E-01 0.41344535E+03</pdfrwt>
<pdfrwt beam="2">  1       21 0.97330860E-02 0.41344535E+03</pdfrwt>
<totfact> 0.73504964E+04</totfact>
</mgrwt>
</event>
<event>
 7    0  0.4707675E-002  0.4563752E+03  0.7546771E-02  0.1025838E+00
         21   -1    0    0  502  501  0.00000000000E+00  0.00000000000E+00  0.18061577801E+03  0.18061577801E+03  0.00000000000E+00 0. -1.
         21   -1    0    0  501  502 -0.00000000000E+00 -0.00000000000E+00 -0.28828922571E+03  0.28828922571E+03  0.00000000000E+00 0. -1.
      99926    2    1    2    0    0  0.00000000000E+00  0.00000000000E+00 -0.10767344771E+03  0.46890500372E+03  0.45637520876E+03 0.  0.
      99925    2    3    3    0    0 -0.88436466138E+01  0.11454600444E+03 -0.65988762545E+02  0.29402184760E+03  0.26247920463E+03 0.  0.
         25    1    3    3    0    0  0.88436466138E+01 -0.11454600444E+03 -0.41684685161E+02  0.17488315612E+03  0.12509000000E+03 0.  0.
         25    1    4    4    0    0  0.18584527360E+02  0.21820470828E+02 -0.33071602328E+02  0.13252455088E+03  0.12509000000E+03 0.  0.
         25    1    4    4    0    0 -0.27428173974E+02  0.92725533611E+02 -0.32917160217E+02  0.16149729672E+03  0.12509000000E+03 0.  0.
<mgrwt>
<rscale>  2 0.45637521E+03</rscale>
<asrwt>0</asrwt>
<pdfrwt beam="1">  1       21 0.26561144E-01 0.45637521E+03</pdfrwt>
<pdfrwt beam="2">  1       21 0.42395474E-01 0.45637521E+03</pdfrwt>
<totfact> 0.66785870E+04</totfact>
</mgrwt>
</event>
<event>
 7    0  0.4707675E-002  0.4529773E+03  0.7546771E-02  0.1026838E+00
         21   -1    0    0  502  501  0.00000000000E+00  0.00000000000E+00  0.24461357465E+03  0.24461357465E+03  0.00000000000E+00 0. -1.
         21   -1    0    0  501  502 -0.00000000000E+00 -0.00000000000E+00 -0.20970668408E+03  0.20970668408E+03  0.00000000000E+00 0. -1.
      99926    2    1    2    0    0  0.00000000000E+00  0.00000000000E+00  0.34906890576E+02  0.45432025873E+03  0.45297726928E+03 0.  0.
      99925    2    3    3    0    0 -0.57254965626E+01  0.83423377766E+02  0.95312335962E+02  0.29218276399E+03  0.26323769661E+03 0.  0.
         25    1    4    4    0    0 -0.16526169783E+01  0.51995755278E+02  0.90745917133E+02  0.16306017075E+03  0.12509000000E+03 0.  0.
         25    1    4    4    0    0 -0.40728795843E+01  0.31427622488E+02  0.45664188291E+01  0.12912259324E+03  0.12509000000E+03 0.  0.
         25    1    3    3    0    0  0.57254965626E+01 -0.83423377766E+02 -0.60405445385E+02  0.16213749474E+03  0.12509000000E+03 0.  0.
<mgrwt>
<rscale>  2 0.45297727E+03</rscale>
<asrwt>0</asrwt>
<pdfrwt beam="1">  1       21 0.35972584E-01 0.45297727E+03</pdfrwt>
<pdfrwt beam="2">  1       21 0.30839218E-01 0.45297727E+03</pdfrwt>
<totfact> 0.69713978E+04</totfact>
</mgrwt>
</event>
<event>
 7    0  0.4707675E-002  0.4522286E+03  0.7546771E-02  0.1027060E+00
         21   -1    0    0  502  501  0.00000000000E+00  0.00000000000E+00  0.52582928265E+03  0.52582928265E+03  0.00000000000E+00 0.  1.
         21   -1    0    0  501  502 -0.00000000000E+00 -0.00000000000E+00 -0.97232466753E+02  0.97232466753E+02  0.00000000000E+00 0.  1.
      99926    2    1    2    0    0 -0.17763568394E-14  0.00000000000E+00  0.42859681590E+03  0.62306174940E+03  0.45222860698E+03 0.  0.
      99925    2    3    3    0    0  0.92466408397E+01  0.19190451348E+02  0.41971566051E+03  0.49586050409E+03  0.26317794369E+03 0.  0.
         25    1    4    4    0    0 -0.32399852789E+02  0.25650872977E+02  0.22147966695E+03  0.25769840651E+03  0.12509000000E+03 0.  0.
         25    1    3    3    0    0 -0.92466408397E+01 -0.19190451348E+02  0.88811553902E+01  0.12720124532E+03  0.12509000000E+03 0.  0.
         25    1    4    4    0    0  0.41646493629E+02 -0.64604216288E+01  0.19823599355E+03  0.23816209757E+03  0.12509000000E+03 0.  0.
<mgrwt>
<rscale>  2 0.45222861E+03</rscale>
<asrwt>0</asrwt>
<pdfrwt beam="1">  1       21 0.77327834E-01 0.45222861E+03</pdfrwt>
<pdfrwt beam="2">  1       21 0.14298892E-01 0.45222861E+03</pdfrwt>
<totfact> 0.58551484E+04</totfact>
</mgrwt>
</event>
<event>
 7    0  0.4707675E-002  0.4613237E+03  0.7546771E-02  0.1024398E+00
         21   -1    0    0  502  501  0.00000000000E+00  0.00000000000E+00  0.51244482519E+02  0.51244482519E+02  0.00000000000E+00 0.  1.
         21   -1    0    0  501  502 -0.00000000000E+00 -0.00000000000E+00 -0.10382557666E+04  0.10382557666E+04  0.00000000000E+00 0.  1.
      99926    2    1    2    0    0  0.00000000000E+00  0.00000000000E+00 -0.98701128408E+03  0.10895002491E+04  0.46132365854E+03 0.  0.
      99925    2    3    3    0    0 -0.83245617586E+02 -0.38663641892E+01 -0.81817160423E+03  0.86344908852E+03  0.26304899328E+03 0.  0.
         25    1    3    3    0    0  0.83245617586E+02  0.38663641892E+01 -0.16883967985E+03  0.22605116060E+03  0.12509000000E+03 0.  0.
         25    1    4    4    0    0 -0.81557928890E+02  0.11613016442E+02 -0.43275478314E+03  0.45794188315E+03  0.12509000000E+03 0.  0.
         25    1    4    4    0    0 -0.16876886956E+01 -0.15479380632E+02 -0.38541682110E+03  0.40550720537E+03  0.12509000000E+03 0.  0.
<mgrwt>
<rscale>  2 0.46132366E+03</rscale>
<asrwt>0</asrwt>
<pdfrwt beam="1">  1       21 0.75359542E-02 0.46132366E+03</pdfrwt>
<pdfrwt beam="2">  1       21 0.15268465E+00 0.46132366E+03</pdfrwt>
<totfact> 0.34144514E+04</totfact>
</mgrwt>
</event>
<event>
 7    0  0.4707675E-002  0.4513693E+03  0.7546771E-02  0.1027314E+00
         21   -1    0    0  502  501  0.00000000000E+00  0.00000000000E+00  0.57735739363E+03  0.57735739363E+03  0.00000000000E+00 0.  1.
         21   -1    0    0  501  502 -0.00000000000E+00 -0.00000000000E+00 -0.88218422049E+02  0.88218422049E+02  0.00000000000E+00 0.  1.
      99926    2    1    2    0    0  0.00000000000E+00  0.00000000000E+00  0.48913897158E+03  0.66557581568E+03  0.45136928661E+03 0.  0.
      99925    2    3    3    0    0 -0.68844745353E+02  0.32837422583E+02  0.19270677271E+03  0.33491367404E+03  0.26308434679E+03 0.  0.
         25    1    4    4    0    0 -0.63755932185E+02 -0.98898579948E+01  0.11277256731E+03  0.18035461795E+03  0.12509000000E+03 0.  0.
         25    1    3    3    0    0  0.68844745353E+02 -0.32837422583E+02  0.29643219888E+03  0.33066214164E+03  0.12509000000E+03 0.  0.
         25    1    4    4    0    0 -0.50888131683E+01  0.42727280577E+02  0.79934205396E+02  0.15455905608E+03  0.12509000000E+03 0.  0.
<mgrwt>
<rscale>  2 0.45136929E+03</rscale>
<asrwt>0</asrwt>
<pdfrwt beam="1">  1       21 0.84905497E-01 0.45136929E+03</pdfrwt>
<pdfrwt beam="2">  1       21 0.12973298E-01 0.45136929E+03</pdfrwt>
<totfact> 0.56409365E+04</totfact>
</mgrwt>
</event>
<event>
 7    0  0.4707675E-002  0.4575572E+03  0.7546771E-02  0.1025492E+00
         21   -1    0    0  502  501  0.00000000000E+00  0.00000000000E+00  0.54821644929E+02  0.54821644929E+02  0.00000000000E+00 0.  1.
         21   -1    0    0  501  502 -0.00000000000E+00 -0.00000000000E+00 -0.95472603368E+03  0.95472603368E+03  0.00000000000E+00 0.  1.
      99926    2    1    2    0    0  0.00000000000E+00  0.00000000000E+00 -0.89990438875E+03  0.10095476786E+04  0.45755721663E+03 0.  0.
      99925    2    3    3    0    0  0.33555618711E+02  0.29854735553E+02 -0.32976979908E+03  0.42412625500E+03  0.26290240587E+03 0.  0.
         25    1    4    4    0    0  0.47749067692E+02  0.27825035270E+01 -0.20468746455E+03  0.24460617743E+03  0.12509000000E+03 0.  0.
         25    1    3    3    0    0 -0.33555618711E+02 -0.29854735553E+02 -0.57013458967E+03  0.58542142361E+03  0.12509000000E+03 0.  0.
         25    1    4    4    0    0 -0.14193448981E+02  0.27072232026E+02 -0.12508233453E+03  0.17952007758E+03  0.12509000000E+03 0.  0.
<mgrwt>
<rscale>  2 0.45755722E+03</rscale>
<asrwt>0</asrwt>
<pdfrwt beam="1">  1       21 0.80620072E-02 0.45755722E+03</pdfrwt>
<pdfrwt beam="2">  1       21 0.14040088E+00 0.45755722E+03</pdfrwt>
<totfact> 0.38032308E+04</totfact>
</mgrwt>
</event>
<event>
 7    0  0.4707675E-002  0.4543800E+03  0.7546771E-02  0.1026424E+00
         21   -1    0    0  502  501  0.00000000000E+00  0.00000000000E+00  0.14888139728E+03  0.14888139728E+03  0.00000000000E+00 0. -1.
         21   -1    0    0  501  502 -0.00000000000E+00 -0.00000000000E+00 -0.34668731509E+03  0.34668731509E+03  0.00000000000E+00 0. -1.
      99926    2    1    2    0    0  0.00000000000E+00  0.00000000000E+00 -0.19780591781E+03  0.49556871237E+03  0.45437998147E+03 0.  0.
      99925    2    3    3    0    0 -0.10710536658E+03  0.14859723721E+02 -0.90262081471E+02  0.29832379919E+03  0.26297808820E+03 0.  0.
         25    1    3    3    0    0  0.10710536658E+03 -0.14859723721E+02 -0.10754383634E+03  0.19724491318E+03  0.12509000000E+03 0.  0.
         25    1    4    4    0    0 -0.87346363565E+02  0.15745864069E+02 -0.75094447124E+02  0.17077471579E+03  0.12509000000E+03 0.  0.
         25    1    4    4    0    0 -0.19759003019E+02 -0.88614034830E+00 -0.15167634347E+02  0.12754908340E+03  0.12509000000E+03 0.  0.
<mgrwt>
<rscale>  2 0.45437998E+03</rscale>
<asrwt>0</asrwt>
<pdfrwt beam="1">  1       21 0.21894323E-01 0.45437998E+03</pdfrwt>
<pdfrwt beam="2">  1       21 0.50983429E-01 0.45437998E+03</pdfrwt>
<totfact> 0.65906899E+04</totfact>
</mgrwt>
</event>
<event>
 7    0  0.4707675E-002  0.4586972E+03  0.7546771E-02  0.1025160E+00
         21   -1    0    0  502  501  0.00000000000E+00  0.00000000000E+00  0.95854744709E+02  0.95854744709E+02  0.00000000000E+00 0.  1.
         21   -1    0    0  501  502 -0.00000000000E+00 -0.00000000000E+00 -0.54875521827E+03  0.54875521827E+03  0.00000000000E+00 0.  1.
      99926    2    1    2    0    0 -0.71054273576E-14  0.00000000000E+00 -0.45290047356E+03  0.64460996298E+03  0.45869724810E+03 0.  0.
      99925    2    3    3    0    0 -0.58292543776E+02 -0.97516992896E+02 -0.24662015890E+03  0.37795164062E+03  0.26290369969E+03 0.  0.
         25    1    3    3    0    0  0.58292543776E+02  0.97516992896E+02 -0.20628031466E+03  0.26665832235E+03  0.12509000000E+03 0.  0.
         25    1    4    4    0    0  0.83594690910E+01 -0.60298082356E+02 -0.13370431903E+03  0.19295101059E+03  0.12509000000E+03 0.  0.
         25    1    4    4    0    0 -0.66652012867E+02 -0.37218910540E+02 -0.11291583987E+03  0.18500063004E+03  0.12509000000E+03 0.  0.
<mgrwt>
<rscale>  2 0.45869725E+03</rscale>
<asrwt>0</asrwt>
<pdfrwt beam="1">  1       21 0.14096286E-01 0.45869725E+03</pdfrwt>
<pdfrwt beam="2">  1       21 0.80699297E-01 0.45869725E+03</pdfrwt>
<totfact> 0.54408340E+04</totfact>
</mgrwt>
</event>
<event>
 7    0  0.4707675E-002  0.4471732E+03  0.7546771E-02  0.1028568E+00
         21   -1    0    0  502  501  0.00000000000E+00  0.00000000000E+00  0.34770932539E+03  0.34770932539E+03  0.00000000000E+00 0. -1.
         21   -1    0    0  501  502 -0.00000000000E+00 -0.00000000000E+00 -0.14377226761E+03  0.14377226761E+03  0.00000000000E+00 0. -1.
      99926    2    1    2    0    0 -0.71054273576E-14  0.71054273576E-14  0.20393705778E+03  0.49148159301E+03  0.44717315743E+03 0.  0.
      99925    2    3    3    0    0  0.49344279518E+02  0.57747739201E+02  0.20979030701E+03  0.34501853305E+03  0.26316564353E+03 0.  0.
         25    1    4    4    0    0  0.34354818477E+02  0.53969773787E+02  0.14996570026E+03  0.20549990119E+03  0.12509000000E+03 0.  0.
         25    1    4    4    0    0  0.14989461040E+02  0.37779654143E+01  0.59824606749E+02  0.13951863187E+03  0.12509000000E+03 0.  0.
         25    1    3    3    0    0 -0.49344279518E+02 -0.57747739201E+02 -0.58532492228E+01  0.14646305995E+03  0.12509000000E+03 0.  0.
<mgrwt>
<rscale>  2 0.44717316E+03</rscale>
<asrwt>0</asrwt>
<pdfrwt beam="1">  1       21 0.51133724E-01 0.44717316E+03</pdfrwt>
<pdfrwt beam="2">  1       21 0.21142981E-01 0.44717316E+03</pdfrwt>
<totfact> 0.70130514E+04</totfact>
</mgrwt>
</event>
<event>
 7    0  0.4707675E-002  0.4772291E+03  0.7546771E-02  0.1019899E+00
         21   -1    0    0  502  501  0.00000000000E+00  0.00000000000E+00  0.26722208243E+02  0.26722208243E+02  0.00000000000E+00 0.  1.
         21   -1    0    0  501  502 -0.00000000000E+00 -0.00000000000E+00 -0.21306960559E+04  0.21306960559E+04  0.00000000000E+00 0.  1.
      99926    2    1    2    0    0  0.00000000000E+00  0.00000000000E+00 -0.21039738477E+04  0.21574182642E+04  0.47722910100E+03 0.  0.
      99925    2    3    3    0    0 -0.93670948391E+02 -0.79286655713E+02 -0.15302759646E+04  0.15575537882E+04  0.26299934417E+03 0.  0.
         25    1    4    4    0    0 -0.67018768366E+02 -0.36965471136E+02 -0.60485911552E+03  0.62238253438E+03  0.12509000000E+03 0.  0.
         25    1    4    4    0    0 -0.26652180025E+02 -0.42321184577E+02 -0.92541684906E+03  0.93517125382E+03  0.12509000000E+03 0.  0.
         25    1    3    3    0    0  0.93670948391E+02  0.79286655713E+02 -0.57369788311E+03  0.59986447597E+03  0.12509000000E+03 0.  0.
<mgrwt>
<rscale>  2 0.47722910E+03</rscale>
<asrwt>0</asrwt>
<pdfrwt beam="1">  1       21 0.39297368E-02 0.47722910E+03</pdfrwt>
<pdfrwt beam="2">  1       21 0.31333763E+00 0.47722910E+03</pdfrwt>
<totfact> 0.95482155E+03</totfact>
</mgrwt>
</event>
<event>
 7    0  0.4707675E-002  0.4600521E+03  0.7546771E-02  0.1024766E+00
         21   -1    0    0  502  501  0.00000000000E+00  0.00000000000E+00  0.56903981031E+02  0.56903981031E+02  0.00000000000E+00 0.  1.
         21   -1    0    0  501  502 -0.00000000000E+00 -0.00000000000E+00 -0.92984686325E+03  0.92984686325E+03  0.00000000000E+00 0.  1.
      99926    2    1    2    0    0  0.00000000000E+00  0.71054273576E-14 -0.87294288222E+03  0.98675084428E+03  0.46005211995E+03 0.  0.
      99925    2    3    3    0    0  0.86466966769E+02 -0.48141369423E+02 -0.68426015910E+03  0.73968242077E+03  0.26291441664E+03 0.  0.
         25    1    3    3    0    0 -0.86466966769E+02  0.48141369423E+02 -0.18868272312E+03  0.24706842351E+03  0.12509000000E+03 0.  0.
         25    1    4    4    0    0  0.45645809508E+02  0.65088020383E+01 -0.26087700348E+03  0.29296795640E+03  0.12509000000E+03 0.  0.
         25    1    4    4    0    0  0.40821157261E+02 -0.54650171462E+02 -0.42338315561E+03  0.44671446437E+03  0.12509000000E+03 0.  0.
<mgrwt>
<rscale>  2 0.46005212E+03</rscale>
<asrwt>0</asrwt>
<pdfrwt beam="1">  1       21 0.83682329E-02 0.46005212E+03</pdfrwt>
<pdfrwt beam="2">  1       21 0.13674218E+00 0.46005212E+03</pdfrwt>
<totfact> 0.38157759E+04</totfact>
</mgrwt>
</event>
<event>
 7    0  0.4707675E-002  0.4529406E+03  0.7546771E-02  0.1026849E+00
         21   -1    0    0  502  501  0.00000000000E+00  0.00000000000E+00  0.55333099540E+03  0.55333099540E+03  0.00000000000E+00 0. -1.
         21   -1    0    0  501  502 -0.00000000000E+00 -0.00000000000E+00 -0.92690984688E+02  0.92690984688E+02  0.00000000000E+00 0. -1.
      99926    2    1    2    0    0  0.71054273576E-14  0.00000000000E+00  0.46064001071E+03  0.64602198009E+03  0.45294059134E+03 0.  0.
      99925    2    3    3    0    0  0.39971792652E+02  0.10281556945E+03  0.26992977648E+03  0.39267106323E+03  0.26298230766E+03 0.  0.
         25    1    3    3    0    0 -0.39971792652E+02 -0.10281556945E+03  0.19071023423E+03  0.25335091685E+03  0.12509000000E+03 0.  0.
         25    1    4    4    0    0  0.39493776951E+02  0.17232094372E+02  0.14465867918E+03  0.19603659112E+03  0.12509000000E+03 0.  0.
         25    1    4    4    0    0  0.47801570109E+00  0.85583475081E+02  0.12527109730E+03  0.19663447212E+03  0.12509000000E+03 0.  0.
<mgrwt>
<rscale>  2 0.45294059E+03</rscale>
<asrwt>0</asrwt>
<pdfrwt beam="1">  1       21 0.81372204E-01 0.45294059E+03</pdfrwt>
<pdfrwt beam="2">  1       21 0.13631027E-01 0.45294059E+03</pdfrwt>
<totfact> 0.56849342E+04</totfact>
</mgrwt>
</event>
<event>
 7    0  0.4707675E-002  0.4564949E+03  0.7546771E-02  0.1025803E+00
         21   -1    0    0  502  501  0.00000000000E+00  0.00000000000E+00  0.53342074372E+02  0.53342074372E+02  0.00000000000E+00 0.  1.
         21   -1    0    0  501  502 -0.00000000000E+00 -0.00000000000E+00 -0.97665658396E+03  0.97665658396E+03  0.00000000000E+00 0.  1.
      99926    2    1    2    0    0  0.26645352591E-14  0.14210854715E-13 -0.92331450959E+03  0.10299986583E+04  0.45649485490E+03 0.  0.
      99925    2    3    3    0    0  0.29967602884E+01  0.11102382395E+03 -0.51725335330E+03  0.59083076241E+03  0.26304883247E+03 0.  0.
         25    1    4    4    0    0  0.17924767682E+02  0.65877610363E+02 -0.19187662479E+03  0.23900900419E+03  0.12509000000E+03 0.  0.
         25    1    3    3    0    0 -0.29967602884E+01 -0.11102382395E+03 -0.40606115629E+03  0.43916789592E+03  0.12509000000E+03 0.  0.
         25    1    4    4    0    0 -0.14928007394E+02  0.45146213586E+02 -0.32537672850E+03  0.35182175822E+03  0.12509000000E+03 0.  0.
<mgrwt>
<rscale>  2 0.45649485E+03</rscale>
<asrwt>0</asrwt>
<pdfrwt beam="1">  1       21 0.78444229E-02 0.45649485E+03</pdfrwt>
<pdfrwt beam="2">  1       21 0.14362596E+00 0.45649485E+03</pdfrwt>
<totfact> 0.37579493E+04</totfact>
</mgrwt>
</event>
<event>
 7    0  0.4707675E-002  0.3944069E+03  0.7546771E-02  0.1045734E+00
         21   -1    0    0  502  501  0.00000000000E+00  0.00000000000E+00  0.67269511793E+02  0.67269511793E+02  0.00000000000E+00 0. -1.
         21   -1    0    0  501  502 -0.00000000000E+00 -0.00000000000E+00 -0.57811042334E+03  0.57811042334E+03  0.00000000000E+00 0. -1.
      99926    2    1    2    0    0  0.00000000000E+00  0.00000000000E+00 -0.51084091155E+03  0.64537993514E+03  0.39440692662E+03 0.  0.
      99925    2    3    3    0    0  0.17699718409E+01 -0.24075943572E+02 -0.31282348965E+03  0.40992040287E+03  0.26380564276E+03 0.  0.
         25    1    3    3    0    0 -0.17699718409E+01  0.24075943572E+02 -0.19801742190E+03  0.23545953227E+03  0.12509000000E+03 0.  0.
         25    1    4    4    0    0 -0.89653816574E+01 -0.52178999901E+02 -0.14912998691E+03  0.20171833629E+03  0.12509000000E+03 0.  0.
         25    1    4    4    0    0  0.10735353498E+02  0.28103056329E+02 -0.16369350273E+03  0.20820206658E+03  0.12509000000E+03 0.  0.
<mgrwt>
<rscale>  2 0.39440693E+03</rscale>
<asrwt>0</asrwt>
<pdfrwt beam="1">  1       21 0.98925751E-02 0.39440693E+03</pdfrwt>
<pdfrwt beam="2">  1       21 0.85016240E-01 0.39440693E+03</pdfrwt>
<totfact> 0.93087578E+04</totfact>
</mgrwt>
</event>
<event>
 7    0  0.4707675E-002  0.4723200E+03  0.7546771E-02  0.1021267E+00
         21   -1    0    0  502  501  0.00000000000E+00  0.00000000000E+00  0.85252009463E+03  0.85252009463E+03  0.00000000000E+00 0.  1.
         21   -1    0    0  501  502 -0.00000000000E+00 -0.00000000000E+00 -0.65419614100E+02  0.65419614100E+02  0.00000000000E+00 0.  1.
      99926    2    1    2    0    0  0.00000000000E+00  0.00000000000E+00  0.78710048053E+03  0.91793970873E+03  0.47231995767E+03 0.  0.
      99925    2    3    3    0    0  0.11997744132E+03 -0.45456046630E+02  0.50781756330E+03  0.58611551649E+03  0.26304349920E+03 0.  0.
         25    1    4    4    0    0  0.36622416273E+02 -0.53690009516E+02  0.21962899596E+03  0.26097552081E+03  0.12509000000E+03 0.  0.
         25    1    4    4    0    0  0.83355025044E+02  0.82339628863E+01  0.28818856733E+03  0.32513999567E+03  0.12509000000E+03 0.  0.
         25    1    3    3    0    0 -0.11997744132E+03  0.45456046630E+02  0.27928291724E+03  0.33182419225E+03  0.12509000000E+03 0.  0.
<mgrwt>
<rscale>  2 0.47231996E+03</rscale>
<asrwt>0</asrwt>
<pdfrwt beam="1">  1       21 0.12537060E+00 0.47231996E+03</pdfrwt>
<pdfrwt beam="2">  1       21 0.96205320E-02 0.47231996E+03</pdfrwt>
<totfact> 0.37166235E+04</totfact>
</mgrwt>
</event>
<event>
 7    0  0.4707675E-002  0.4558684E+03  0.7546771E-02  0.1025986E+00
         21   -1    0    0  502  501  0.00000000000E+00  0.00000000000E+00  0.68308343250E+03  0.68308343250E+03  0.00000000000E+00 0. -1.
         21   -1    0    0  501  502 -0.00000000000E+00 -0.00000000000E+00 -0.76058052235E+02  0.76058052235E+02  0.00000000000E+00 0. -1.
      99926    2    1    2    0    0  0.00000000000E+00 -0.14210854715E-13  0.60702538027E+03  0.75914148474E+03  0.45586838184E+03 0.  0.
      99925    2    3    3    0    0 -0.11578217993E+02 -0.11283768739E+03  0.40031551974E+03  0.49222787817E+03  0.26300070320E+03 0.  0.
         25    1    4    4    0    0  0.25872384523E+02 -0.40087335176E+02  0.22522681942E+03  0.26201336418E+03  0.12509000000E+03 0.  0.
         25    1    4    4    0    0 -0.37450602516E+02 -0.72750352213E+02  0.17508870032E+03  0.23021451400E+03  0.12509000000E+03 0.  0.
         25    1    3    3    0    0  0.11578217993E+02  0.11283768739E+03  0.20670986053E+03  0.26691360656E+03  0.12509000000E+03 0.  0.
<mgrwt>
<rscale>  2 0.45586838E+03</rscale>
<asrwt>0</asrwt>
<pdfrwt beam="1">  1       21 0.10045344E+00 0.45586838E+03</pdfrwt>
<pdfrwt beam="2">  1       21 0.11185008E-01 0.45586838E+03</pdfrwt>
<totfact> 0.49465943E+04</totfact>
</mgrwt>
</event>
<event>
 7    0  0.4707675E-002  0.4627134E+03  0.7546771E-02  0.1023997E+00
         21   -1    0    0  502  501  0.00000000000E+00  0.00000000000E+00  0.71510287731E+03  0.71510287731E+03  0.00000000000E+00 0.  1.
         21   -1    0    0  501  502 -0.00000000000E+00 -0.00000000000E+00 -0.74850667111E+02  0.74850667111E+02  0.00000000000E+00 0.  1.
      99926    2    1    2    0    0  0.00000000000E+00  0.14210854715E-13  0.64025221020E+03  0.78995354442E+03  0.46271342068E+03 0.  0.
      99925    2    3    3    0    0 -0.91967982844E+02 -0.70675211227E+02  0.45433294335E+03  0.53763117673E+03  0.26301285792E+03 0.  0.
         25    1    4    4    0    0 -0.47757138935E+02 -0.53699778323E+01  0.16379899958E+03  0.21162986875E+03  0.12509000000E+03 0.  0.
         25    1    4    4    0    0 -0.44210843909E+02 -0.65305233395E+02  0.29053394377E+03  0.32600130799E+03  0.12509000000E+03 0.  0.
         25    1    3    3    0    0  0.91967982844E+02  0.70675211227E+02  0.18591926685E+03  0.25232236769E+03  0.12509000000E+03 0.  0.
<mgrwt>
<rscale>  2 0.46271342E+03</rscale>
<asrwt>0</asrwt>
<pdfrwt beam="1">  1       21 0.10516218E+00 0.46271342E+03</pdfrwt>
<pdfrwt beam="2">  1       21 0.11007451E-01 0.46271342E+03</pdfrwt>
<totfact> 0.45440641E+04</totfact>
</mgrwt>
</event>
<event>
 7    0  0.4707675E-002  0.4606621E+03  0.7546771E-02  0.1024589E+00
         21   -1    0    0  502  501  0.00000000000E+00  0.00000000000E+00  0.12359839435E+03  0.12359839435E+03  0.00000000000E+00 0. -1.
         21   -1    0    0  501  502 -0.00000000000E+00 -0.00000000000E+00 -0.42923196403E+03  0.42923196403E+03  0.00000000000E+00 0. -1.
      99926    2    1    2    0    0  0.00000000000E+00  0.00000000000E+00 -0.30563356968E+03  0.55283035838E+03  0.46066205208E+03 0.  0.
      99925    2    3    3    0    0  0.11622813234E+03 -0.91818115893E+01 -0.16675774586E+03  0.33254125980E+03  0.26302520650E+03 0.  0.
         25    1    3    3    0    0 -0.11622813234E+03  0.91818115893E+01 -0.13887582382E+03  0.22028909858E+03  0.12509000000E+03 0.  0.
         25    1    4    4    0    0  0.45480873134E+02 -0.11463128683E+02 -0.12478906165E+03  0.18281064287E+03  0.12509000000E+03 0.  0.
         25    1    4    4    0    0  0.70747259202E+02  0.22813170937E+01 -0.41968684217E+02  0.14973061693E+03  0.12509000000E+03 0.  0.
<mgrwt>
<rscale>  2 0.46066205E+03</rscale>
<asrwt>0</asrwt>
<pdfrwt beam="1">  1       21 0.18176234E-01 0.46066205E+03</pdfrwt>
<pdfrwt beam="2">  1       21 0.63122348E-01 0.46066205E+03</pdfrwt>
<totfact> 0.58992547E+04</totfact>
</mgrwt>
</event>
<event>
 7    0  0.4707675E-002  0.4412545E+03  0.7546771E-02  0.1030363E+00
         21   -1    0    0  502  501  0.00000000000E+00  0.00000000000E+00  0.91261544835E+02  0.91261544835E+02  0.00000000000E+00 0. -1.
         21   -1    0    0  501  502 -0.00000000000E+00 -0.00000000000E+00 -0.53337227259E+03  0.53337227259E+03  0.00000000000E+00 0. -1.
      99926    2    1    2    0    0  0.71054273576E-14  0.00000000000E+00 -0.44211072775E+03  0.62463381742E+03  0.44125447338E+03 0.  0.
      99925    2    3    3    0    0 -0.35792468357E+02  0.39225644567E+02 -0.40213545330E+03  0.48298184020E+03  0.26218082154E+03 0.  0.
         25    1    4    4    0    0 -0.18882759335E+02 -0.16892629004E+02 -0.22065008132E+03  0.25490367985E+03  0.12509000000E+03 0.  0.
         25    1    4    4    0    0 -0.16909709022E+02  0.56118273571E+02 -0.18148537197E+03  0.22807816035E+03  0.12509000000E+03 0.  0.
         25    1    3    3    0    0  0.35792468357E+02 -0.39225644567E+02 -0.39975274455E+02  0.14165197722E+03  0.12509000000E+03 0.  0.
<mgrwt>
<rscale>  2 0.44125447E+03</rscale>
<asrwt>0</asrwt>
<pdfrwt beam="1">  1       21 0.13420816E-01 0.44125447E+03</pdfrwt>
<pdfrwt beam="2">  1       21 0.78437097E-01 0.44125447E+03</pdfrwt>
<totfact> 0.63837494E+04</totfact>
</mgrwt>
</event>
<event>
 7    0  0.4707675E-002  0.4882136E+03  0.7546771E-02  0.1016902E+00
         21   -1    0    0  502  501  0.00000000000E+00  0.00000000000E+00  0.16892074786E+03  0.16892074786E+03  0.00000000000E+00 0. -1.
         21   -1    0    0  501  502 -0.00000000000E+00 -0.00000000000E+00 -0.35275783892E+03  0.35275783892E+03  0.00000000000E+00 0. -1.
      99926    2    1    2    0    0 -0.35527136788E-14  0.00000000000E+00 -0.18383709106E+03  0.52167858677E+03  0.48821355148E+03 0.  0.
      99925    2    3    3    0    0  0.16039194118E+02  0.82441920184E+02 -0.23512177990E+03  0.36251969333E+03  0.26283902054E+03 0.  0.
         25    1    3    3    0    0 -0.16039194118E+02 -0.82441920184E+02  0.51284688843E+02  0.15915889344E+03  0.12509000000E+03 0.  0.
         25    1    4    4    0    0  0.10872619458E+02  0.31683035440E+01 -0.85527639292E+02  0.15195636605E+03  0.12509000000E+03 0.  0.
         25    1    4    4    0    0  0.51665746594E+01  0.79273616640E+02 -0.14959414061E+03  0.21056332728E+03  0.12509000000E+03 0.  0.
<mgrwt>
<rscale>  2 0.48821355E+03</rscale>
<asrwt>0</asrwt>
<pdfrwt beam="1">  1       21 0.24841287E-01 0.48821355E+03</pdfrwt>
<pdfrwt beam="2">  1       21 0.51876152E-01 0.48821355E+03</pdfrwt>
<totfact> 0.49406200E+04</totfact>
</mgrwt>
</event>
<event>
 7    0  0.4707675E-002  0.4564352E+03  0.7546771E-02  0.1025820E+00
         21   -1    0    0  502  501  0.00000000000E+00  0.00000000000E+00  0.15851428004E+04  0.15851428004E+04  0.00000000000E+00 0.  1.
         21   -1    0    0  501  502 -0.00000000000E+00 -0.00000000000E+00 -0.32857145093E+02  0.32857145093E+02  0.00000000000E+00 0.  1.
      99926    2    1    2    0    0 -0.88817841970E-15  0.00000000000E+00  0.15522856553E+04  0.16179999455E+04  0.45643517386E+03 0.  0.
      99925    2    3    3    0    0  0.64041970647E+01  0.87210205821E+02  0.12371836369E+04  0.12678807889E+04  0.26315719557E+03 0.  0.
         25    1    3    3    0    0 -0.64041970647E+01 -0.87210205821E+02  0.31510201833E+03  0.35011915656E+03  0.12509000000E+03 0.  0.
         25    1    4    4    0    0  0.35152358456E+02  0.20214952466E+02  0.64341444998E+03  0.65671454617E+03  0.12509000000E+03 0.  0.
         25    1    4    4    0    0 -0.28748161391E+02  0.66995253354E+02  0.59376918697E+03  0.61116624272E+03  0.12509000000E+03 0.  0.
<mgrwt>
<rscale>  2 0.45643517E+03</rscale>
<asrwt>0</asrwt>
<pdfrwt beam="1">  1       21 0.23310918E+00 0.45643517E+03</pdfrwt>
<pdfrwt beam="2">  1       21 0.48319342E-02 0.45643517E+03</pdfrwt>
<totfact> 0.20793393E+04</totfact>
</mgrwt>
</event>
<event>
 7    0  0.4707675E-002  0.4547678E+03  0.7546771E-02  0.1026310E+00
         21   -1    0    0  502  501  0.00000000000E+00  0.00000000000E+00  0.13671754933E+03  0.13671754933E+03  0.00000000000E+00 0. -1.
         21   -1    0    0  501  502 -0.00000000000E+00 -0.00000000000E+00 -0.37817695888E+03  0.37817695888E+03  0.00000000000E+00 0. -1.
      99926    2    1    2    0    0  0.00000000000E+00  0.00000000000E+00 -0.24145940955E+03  0.51489450820E+03  0.45476775184E+03 0.  0.
      99925    2    3    3    0    0  0.18805207970E+02 -0.89901638808E+02 -0.22651222181E+03  0.35898791107E+03  0.26292316969E+03 0.  0.
         25    1    3    3    0    0 -0.18805207970E+02  0.89901638808E+02 -0.14947187736E+02  0.15590659713E+03  0.12509000000E+03 0.  0.
         25    1    4    4    0    0  0.40229806187E+02 -0.54175193383E+02 -0.85150551799E+02  0.16568498259E+03  0.12509000000E+03 0.  0.
         25    1    4    4    0    0 -0.21424598217E+02 -0.35726445425E+02 -0.14136167001E+03  0.19330292848E+03  0.12509000000E+03 0.  0.
<mgrwt>
<rscale>  2 0.45476775E+03</rscale>
<asrwt>0</asrwt>
<pdfrwt beam="1">  1       21 0.20105522E-01 0.45476775E+03</pdfrwt>
<pdfrwt beam="2">  1       21 0.55614258E-01 0.45476775E+03</pdfrwt>
<totfact> 0.64354963E+04</totfact>
</mgrwt>
</event>
<event>
 7    0  0.4707675E-002  0.4529972E+03  0.7546771E-02  0.1026832E+00
         21   -1    0    0  502  501  0.00000000000E+00  0.00000000000E+00  0.25923252127E+03  0.25923252127E+03  0.00000000000E+00 0. -1.
         21   -1    0    0  501  502 -0.00000000000E+00 -0.00000000000E+00 -0.19789803954E+03  0.19789803954E+03  0.00000000000E+00 0. -1.
      99926    2    1    2    0    0 -0.17763568394E-14 -0.14210854715E-13  0.61334481729E+02  0.45713056081E+03  0.45299716443E+03 0.  0.
      99925    2    3    3    0    0 -0.11632052474E+02 -0.76554581438E+02 -0.41949077391E+02  0.27737820264E+03  0.26302667854E+03 0.  0.
         25    1    4    4    0    0  0.17205489943E+02 -0.55649998636E+02  0.76032811276E+01  0.13819648771E+03  0.12509000000E+03 0.  0.
         25    1    4    4    0    0 -0.28837542417E+02 -0.20904582801E+02 -0.49552358519E+02  0.13918171493E+03  0.12509000000E+03 0.  0.
         25    1    3    3    0    0  0.11632052474E+02  0.76554581438E+02  0.10328355912E+03  0.17975235817E+03  0.12509000000E+03 0.  0.
<mgrwt>
<rscale>  2 0.45299716E+03</rscale>
<asrwt>0</asrwt>
<pdfrwt beam="1">  1       21 0.38122430E-01 0.45299716E+03</pdfrwt>
<pdfrwt beam="2">  1       21 0.29102653E-01 0.45299716E+03</pdfrwt>
<totfact> 0.69493542E+04</totfact>
</mgrwt>
</event>
<event>
 7    0  0.4707675E-002  0.4534950E+03  0.7546771E-02  0.1026685E+00
         21   -1    0    0  502  501  0.00000000000E+00  0.00000000000E+00  0.54505743234E+02  0.54505743234E+02  0.00000000000E+00 0.  1.
         21   -1    0    0  501  502 -0.00000000000E+00 -0.00000000000E+00 -0.94328458982E+03  0.94328458982E+03  0.00000000000E+00 0.  1.
      99926    2    1    2    0    0  0.71054273576E-14  0.00000000000E+00 -0.88877884659E+03  0.99779033306E+03  0.45349499512E+03 0.  0.
      99925    2    3    3    0    0 -0.53780994388E+02  0.92887905729E+02 -0.49261091124E+03  0.56870164819E+03  0.26312638862E+03 0.  0.
         25    1    4    4    0    0 -0.38362229558E+02  0.74418586764E+02 -0.32512422280E+03  0.35827790201E+03  0.12509000000E+03 0.  0.
         25    1    3    3    0    0  0.53780994388E+02 -0.92887905729E+02 -0.39616793535E+03  0.42908868487E+03  0.12509000000E+03 0.  0.
         25    1    4    4    0    0 -0.15418764830E+02  0.18469318965E+02 -0.16748668844E+03  0.21042374618E+03  0.12509000000E+03 0.  0.
<mgrwt>
<rscale>  2 0.45349500E+03</rscale>
<asrwt>0</asrwt>
<pdfrwt beam="1">  1       21 0.80155503E-02 0.45349500E+03</pdfrwt>
<pdfrwt beam="2">  1       21 0.13871832E+00 0.45349500E+03</pdfrwt>
<totfact> 0.39717644E+04</totfact>
</mgrwt>
</event>
<event>
 7    0  0.4707675E-002  0.4529615E+03  0.7546771E-02  0.1026843E+00
         21   -1    0    0  502  501  0.00000000000E+00  0.00000000000E+00  0.35968270541E+03  0.35968270541E+03  0.00000000000E+00 0. -1.
         21   -1    0    0  501  502 -0.00000000000E+00 -0.00000000000E+00 -0.14260774433E+03  0.14260774433E+03  0.00000000000E+00 0. -1.
      99926    2    1    2    0    0 -0.14210854715E-13  0.35527136788E-14  0.21707496108E+03  0.50229044974E+03  0.45296154050E+03 0.  0.
      99925    2    3    3    0    0  0.96560454856E+02 -0.16027934103E+02  0.19553468097E+03  0.34200224718E+03  0.26296560517E+03 0.  0.
         25    1    4    4    0    0  0.49837530896E+02 -0.29820082665E+02  0.57398317588E+02  0.14938236769E+03  0.12509000000E+03 0.  0.
         25    1    3    3    0    0 -0.96560454856E+02  0.16027934103E+02  0.21540280112E+02  0.16028820256E+03  0.12509000000E+03 0.  0.
         25    1    4    4    0    0  0.46722923960E+02  0.13792148561E+02  0.13813636338E+03  0.19261987949E+03  0.12509000000E+03 0.  0.
<mgrwt>
<rscale>  2 0.45296154E+03</rscale>
<asrwt>0</asrwt>
<pdfrwt beam="1">  1       21 0.52894515E-01 0.45296154E+03</pdfrwt>
<pdfrwt beam="2">  1       21 0.20971727E-01 0.45296154E+03</pdfrwt>
<totfact> 0.66174310E+04</totfact>
</mgrwt>
</event>
<event>
 7    0  0.4707675E-002  0.4472412E+03  0.7546771E-02  0.1028548E+00
         21   -1    0    0  502  501  0.00000000000E+00  0.00000000000E+00  0.69749848238E+02  0.69749848238E+02  0.00000000000E+00 0.  1.
         21   -1    0    0  501  502 -0.00000000000E+00 -0.00000000000E+00 -0.71693602444E+03  0.71693602444E+03  0.00000000000E+00 0.  1.
      99926    2    1    2    0    0 -0.35527136788E-14  0.00000000000E+00 -0.64718617620E+03  0.78668587268E+03  0.44724122753E+03 0.  0.
      99925    2    3    3    0    0 -0.22742837166E+02 -0.90229826750E+02 -0.32208854289E+03  0.42613818157E+03  0.26304764217E+03 0.  0.
         25    1    4    4    0    0 -0.50761192538E+02 -0.39978378432E+02 -0.17610092297E+03  0.22546399397E+03  0.12509000000E+03 0.  0.
         25    1    3    3    0    0  0.22742837166E+02  0.90229826750E+02 -0.32509763332E+03  0.36054769111E+03  0.12509000000E+03 0.  0.
         25    1    4    4    0    0  0.28018355372E+02 -0.50251448318E+02 -0.14598761992E+03  0.20067418759E+03  0.12509000000E+03 0.  0.
<mgrwt>
<rscale>  2 0.44724123E+03</rscale>
<asrwt>0</asrwt>
<pdfrwt beam="1">  1       21 0.10257331E-01 0.44724123E+03</pdfrwt>
<pdfrwt beam="2">  1       21 0.10543177E+00 0.44724123E+03</pdfrwt>
<totfact> 0.51479655E+04</totfact>
</mgrwt>
</event>
<event>
 7    0  0.4707675E-002  0.4427376E+03  0.7546771E-02  0.1029910E+00
         21   -1    0    0  502  501  0.00000000000E+00  0.00000000000E+00  0.22062081972E+03  0.22062081972E+03  0.00000000000E+00 0.  1.
         21   -1    0    0  501  502 -0.00000000000E+00 -0.00000000000E+00 -0.22211927304E+03  0.22211927304E+03  0.00000000000E+00 0.  1.
      99926    2    1    2    0    0 -0.14210854715E-13  0.88817841970E-15 -0.14984533182E+01  0.44274009277E+03  0.44273755700E+03 0.  0.
      99925    2    3    3    0    0  0.76241037452E+02  0.53344315269E+01 -0.67303393351E+02  0.28205733021E+03  0.26303125064E+03 0.  0.
         25    1    4    4    0    0  0.59333717432E+02  0.23898708525E+02 -0.64110327506E+02  0.15443212259E+03  0.12509000000E+03 0.  0.
         25    1    4    4    0    0  0.16907320020E+02 -0.18564276998E+02 -0.31930658456E+01  0.12762520762E+03  0.12509000000E+03 0.  0.
         25    1    3    3    0    0 -0.76241037452E+02 -0.53344315269E+01  0.65804940033E+02  0.16068276256E+03  0.12509000000E+03 0.  0.
<mgrwt>
<rscale>  2 0.44273756E+03</rscale>
<asrwt>0</asrwt>
<pdfrwt beam="1">  1       21 0.32444238E-01 0.44273756E+03</pdfrwt>
<pdfrwt beam="2">  1       21 0.32664599E-01 0.44273756E+03</pdfrwt>
<totfact> 0.76686350E+04</totfact>
</mgrwt>
</event>
<event>
 7    0  0.4707675E-002  0.4525548E+03  0.7546771E-02  0.1026963E+00
         21   -1    0    0  502  501  0.00000000000E+00  0.00000000000E+00  0.64063576281E+02  0.64063576281E+02  0.00000000000E+00 0.  1.
         21   -1    0    0  501  502 -0.00000000000E+00 -0.00000000000E+00 -0.79922893928E+03  0.79922893928E+03  0.00000000000E+00 0.  1.
      99926    2    1    2    0    0  0.00000000000E+00  0.00000000000E+00 -0.73516536300E+03  0.86329251556E+03  0.45255481046E+03 0.  0.
      99925    2    3    3    0    0  0.27696586373E+02  0.10679067930E+03 -0.44158375719E+03  0.52564030181E+03  0.26292615350E+03 0.  0.
         25    1    3    3    0    0 -0.27696586373E+02 -0.10679067930E+03 -0.29358160580E+03  0.33765221375E+03  0.12509000000E+03 0.  0.
         25    1    4    4    0    0  0.21114670522E+02  0.12762755546E+02 -0.22027145900E+03  0.25451078757E+03  0.12509000000E+03 0.  0.
         25    1    4    4    0    0  0.65819158511E+01  0.94027923751E+02 -0.22131229819E+03  0.27112951424E+03  0.12509000000E+03 0.  0.
<mgrwt>
<rscale>  2 0.45255481E+03</rscale>
<asrwt>0</asrwt>
<pdfrwt beam="1">  1       21 0.94211147E-02 0.45255481E+03</pdfrwt>
<pdfrwt beam="2">  1       21 0.11753366E+00 0.45255481E+03</pdfrwt>
<totfact> 0.45720970E+04</totfact>
</mgrwt>
</event>
<event>
 7    0  0.4707675E-002  0.4563742E+03  0.7546771E-02  0.1025838E+00
         21   -1    0    0  502  501  0.00000000000E+00  0.00000000000E+00  0.11471401853E+03  0.11471401853E+03  0.00000000000E+00 0. -1.
         21   -1    0    0  501  502 -0.00000000000E+00 -0.00000000000E+00 -0.45390571925E+03  0.45390571925E+03  0.00000000000E+00 0. -1.
      99926    2    1    2    0    0  0.00000000000E+00  0.14210854715E-13 -0.33919170072E+03  0.56861973779E+03  0.45637418460E+03 0.  0.
      99925    2    3    3    0    0 -0.11054926458E+02 -0.80338277290E+02 -0.31375222710E+03  0.41738771368E+03  0.26305055280E+03 0.  0.
         25    1    4    4    0    0  0.17522447737E+02 -0.72425500826E+02 -0.14787726881E+03  0.20752755016E+03  0.12509000000E+03 0.  0.
         25    1    4    4    0    0 -0.28577374195E+02 -0.79127764642E+01 -0.16587495829E+03  0.20986016352E+03  0.12509000000E+03 0.  0.
         25    1    3    3    0    0  0.11054926458E+02  0.80338277290E+02 -0.25439473623E+02  0.15123202411E+03  0.12509000000E+03 0.  0.
<mgrwt>
<rscale>  2 0.45637418E+03</rscale>
<asrwt>0</asrwt>
<pdfrwt beam="1">  1       21 0.16869709E-01 0.45637418E+03</pdfrwt>
<pdfrwt beam="2">  1       21 0.66750840E-01 0.45637418E+03</pdfrwt>
<totfact> 0.59997939E+04</totfact>
</mgrwt>
</event>
<event>
 7    0  0.4707675E-002  0.4665507E+03  0.7546771E-02  0.1022898E+00
         21   -1    0    0  502  501  0.00000000000E+00  0.00000000000E+00  0.20157397924E+03  0.20157397924E+03  0.00000000000E+00 0.  1.
         21   -1    0    0  501  502 -0.00000000000E+00 -0.00000000000E+00 -0.26996234244E+03  0.26996234244E+03  0.00000000000E+00 0.  1.
      99926    2    1    2    0    0  0.35527136788E-14  0.00000000000E+00 -0.68388363192E+02  0.47153632168E+03  0.46655067725E+03 0.  0.
      99925    2    3    3    0    0  0.24635942094E+02  0.24506714091E+02 -0.16264728184E+03  0.31110016453E+03  0.26290999487E+03 0.  0.
         25    1    3    3    0    0 -0.24635942094E+02 -0.24506714091E+02  0.94258918644E+02  0.16043615715E+03  0.12509000000E+03 0.  0.
         25    1    4    4    0    0  0.51809384205E+02  0.48998879445E+01 -0.76927575213E+02  0.15579981105E+03  0.12509000000E+03 0.  0.
         25    1    4    4    0    0 -0.27173442111E+02  0.19606826147E+02 -0.85719706623E+02  0.15530035348E+03  0.12509000000E+03 0.  0.
<mgrwt>
<rscale>  2 0.46655068E+03</rscale>
<asrwt>0</asrwt>
<pdfrwt beam="1">  1       21 0.29643232E-01 0.46655068E+03</pdfrwt>
<pdfrwt beam="2">  1       21 0.39700345E-01 0.46655068E+03</pdfrwt>
<totfact> 0.61485150E+04</totfact>
</mgrwt>
</event>
<event>
 7    0  0.4707675E-002  0.4570160E+03  0.7546771E-02  0.1025650E+00
         21   -1    0    0  502  501  0.00000000000E+00  0.00000000000E+00  0.72271526895E+03  0.72271526895E+03  0.00000000000E+00 0.  1.
         21   -1    0    0  501  502 -0.00000000000E+00 -0.00000000000E+00 -0.72249608906E+02  0.72249608906E+02  0.00000000000E+00 0.  1.
      99926    2    1    2    0    0  0.00000000000E+00  0.00000000000E+00  0.65046566004E+03  0.79496487785E+03  0.45701595391E+03 0.  0.
      99925    2    3    3    0    0 -0.10780238489E+03 -0.18858732043E+02  0.46836127689E+03  0.54841565269E+03  0.26347758249E+03 0.  0.
         25    1    3    3    0    0  0.10780238489E+03  0.18858732043E+02  0.18210438316E+03  0.24654922516E+03  0.12509000000E+03 0.  0.
         25    1    4    4    0    0 -0.88240824095E+02 -0.35379381086E+02  0.27447172753E+03  0.31625998949E+03  0.12509000000E+03 0.  0.
         25    1    4    4    0    0 -0.19561560794E+02  0.16520649043E+02  0.19388954936E+03  0.23215566320E+03  0.12509000000E+03 0.  0.
<mgrwt>
<rscale>  2 0.45701595E+03</rscale>
<asrwt>0</asrwt>
<pdfrwt beam="1">  1       21 0.10628165E+00 0.45701595E+03</pdfrwt>
<pdfrwt beam="2">  1       21 0.10624943E-01 0.45701595E+03</pdfrwt>
<totfact> 0.47257201E+04</totfact>
</mgrwt>
</event>
<event>
 7    0  0.4707675E-002  0.4552561E+03  0.7546771E-02  0.1026166E+00
         21   -1    0    0  502  501  0.00000000000E+00  0.00000000000E+00  0.35895267301E+03  0.35895267301E+03  0.00000000000E+00 0.  1.
         21   -1    0    0  501  502 -0.00000000000E+00 -0.00000000000E+00 -0.14434916559E+03  0.14434916559E+03  0.00000000000E+00 0.  1.
      99926    2    1    2    0    0 -0.35527136788E-14  0.00000000000E+00  0.21460350742E+03  0.50330183859E+03  0.45525605469E+03 0.  0.
      99925    2    3    3    0    0  0.17776738987E+02 -0.11144373643E+03  0.12209294856E+03  0.31110030260E+03  0.26294674623E+03 0.  0.
         25    1    3    3    0    0 -0.17776738987E+02  0.11144373643E+03  0.92510558854E+02  0.19220153599E+03  0.12509000000E+03 0.  0.
         25    1    4    4    0    0  0.36862649324E+02 -0.42005185630E+02  0.31156653613E+02  0.14050457537E+03  0.12509000000E+03 0.  0.
         25    1    4    4    0    0 -0.19085910337E+02 -0.69438550799E+02  0.90936294951E+02  0.17059572723E+03  0.12509000000E+03 0.  0.
<mgrwt>
<rscale>  2 0.45525605E+03</rscale>
<asrwt>0</asrwt>
<pdfrwt beam="1">  1       21 0.52787158E-01 0.45525605E+03</pdfrwt>
<pdfrwt beam="2">  1       21 0.21227819E-01 0.45525605E+03</pdfrwt>
<totfact> 0.64907294E+04</totfact>
</mgrwt>
</event>
<event>
 7    0  0.4707675E-002  0.4553681E+03  0.7546771E-02  0.1026133E+00
         21   -1    0    0  502  501  0.00000000000E+00  0.00000000000E+00  0.24580083905E+03  0.24580083905E+03  0.00000000000E+00 0.  1.
         21   -1    0    0  501  502 -0.00000000000E+00 -0.00000000000E+00 -0.21090255238E+03  0.21090255238E+03  0.00000000000E+00 0.  1.
      99926    2    1    2    0    0  0.00000000000E+00  0.00000000000E+00  0.34898286671E+02  0.45670339142E+03  0.45536808993E+03 0.  0.
      99925    2    3    3    0    0 -0.39659132620E+02  0.84218035625E+02  0.87401721341E+02  0.29217484352E+03  0.26279565058E+03 0.  0.
         25    1    3    3    0    0  0.39659132620E+02 -0.84218035625E+02 -0.52503434669E+02  0.16452854791E+03  0.12509000000E+03 0.  0.
         25    1    4    4    0    0  0.29300546103E+01  0.62242953418E+01  0.35916899001E+02  0.13032597134E+03  0.12509000000E+03 0.  0.
         25    1    4    4    0    0 -0.42589187230E+02  0.77993740283E+02  0.51484822340E+02  0.16184887217E+03  0.12509000000E+03 0.  0.
<mgrwt>
<rscale>  2 0.45536809E+03</rscale>
<asrwt>0</asrwt>
<pdfrwt beam="1">  1       21 0.36147183E-01 0.45536809E+03</pdfrwt>
<pdfrwt beam="2">  1       21 0.31015081E-01 0.45536809E+03</pdfrwt>
<totfact> 0.68220641E+04</totfact>
</mgrwt>
</event>
<event>
 7    0  0.4707675E-002  0.4534527E+03  0.7546771E-02  0.1026697E+00
         21   -1    0    0  502  501  0.00000000000E+00  0.00000000000E+00  0.15129463960E+03  0.15129463960E+03  0.00000000000E+00 0. -1.
         21   -1    0    0  501  502 -0.00000000000E+00 -0.00000000000E+00 -0.33976640880E+03  0.33976640880E+03  0.00000000000E+00 0. -1.
      99926    2    1    2    0    0  0.00000000000E+00  0.00000000000E+00 -0.18847176920E+03  0.49106104839E+03  0.45345269374E+03 0.  0.
      99925    2    3    3    0    0  0.25075592904E+02 -0.40305368000E+02 -0.92139982194E+01  0.26737786931E+03  0.26296904605E+03 0.  0.
         25    1    3    3    0    0 -0.25075592904E+02  0.40305368000E+02 -0.17925777098E+03  0.22368317909E+03  0.12509000000E+03 0.  0.
         25    1    4    4    0    0 -0.41737754925E+01 -0.35080731586E+02  0.29138796577E+02  0.13320906762E+03  0.12509000000E+03 0.  0.
         25    1    4    4    0    0  0.29249368396E+02 -0.52246364140E+01 -0.38352794796E+02  0.13416880169E+03  0.12509000000E+03 0.  0.
<mgrwt>
<rscale>  2 0.45345269E+03</rscale>
<asrwt>0</asrwt>
<pdfrwt beam="1">  1       21 0.22249212E-01 0.45345269E+03</pdfrwt>
<pdfrwt beam="2">  1       21 0.49965648E-01 0.45345269E+03</pdfrwt>
<totfact> 0.66719111E+04</totfact>
</mgrwt>
</event>
