<event>
 6    0  0.1284967E-004  0.4045466E+03  0.7546771E-02  0.1042217E+00
         21   -1    0    0  502  501  0.00000000000E+00  0.00000000000E+00  0.48618744063E+03  0.48618744063E+03  0.00000000000E+00 0. -1.
         21   -1    0    0  501  502 -0.00000000000E+00 -0.00000000000E+00 -0.84153729008E+02  0.84153729008E+02  0.00000000000E+00 0. -1.
      99925    2    1    2    0    0 -0.35705761022E+02  0.10347081874E+02  0.21217424573E+03  0.33995868688E+03  0.26300576944E+03 0.  0.
         25    1    1    2    0    0  0.35705761022E+02 -0.10347081874E+02  0.18985946590E+03  0.23038248276E+03  0.12509000000E+03 0.  0.
         25    1    3    3    0    0 -0.26223707753E+02  0.27235848724E+02  0.14997831529E+03  0.19892329542E+03  0.12509000000E+03 0.  0.
         25    1    3    3    0    0 -0.94820532687E+01 -0.16888766850E+02  0.62195930434E+02  0.14103539145E+03  0.12509000000E+03 0.  0.
<mgrwt>
<rscale>  2 0.40454659E+03</rscale>
<asrwt>0</asrwt>
<pdfrwt beam="1">  1       21 0.71498151E-01 0.40454659E+03</pdfrwt>
<pdfrwt beam="2">  1       21 0.12375549E-01 0.40454659E+03</pdfrwt>
<totfact> 0.92160841E+04</totfact>
</mgrwt>
</event>
<event>
 6    0  0.1284967E-004  0.3996549E+03  0.7546771E-02  0.1043899E+00
         21   -1    0    0  502  501  0.00000000000E+00  0.00000000000E+00  0.16074227501E+03  0.16074227501E+03  0.00000000000E+00 0. -1.
         21   -1    0    0  501  502 -0.00000000000E+00 -0.00000000000E+00 -0.24841641249E+03  0.24841641249E+03  0.00000000000E+00 0. -1.
      99925    2    1    2    0    0  0.33041718176E+02 -0.18732593885E+02 -0.82674945090E+02  0.27833374631E+03  0.26304346138E+03 0.  0.
         25    1    1    2    0    0 -0.33041718176E+02  0.18732593885E+02 -0.49991923936E+01  0.13082494119E+03  0.12509000000E+03 0.  0.
         25    1    3    3    0    0  0.41016305882E+02  0.45843239779E+01 -0.72691947980E+02  0.15044926313E+03  0.12509000000E+03 0.  0.
         25    1    3    3    0    0 -0.79745877063E+01 -0.23316917863E+02 -0.99829971099E+01  0.12788448318E+03  0.12509000000E+03 0.  0.
<mgrwt>
<rscale>  2 0.39965495E+03</rscale>
<asrwt>0</asrwt>
<pdfrwt beam="1">  1       21 0.23638570E-01 0.39965495E+03</pdfrwt>
<pdfrwt beam="2">  1       21 0.36531825E-01 0.39965495E+03</pdfrwt>
<totfact> 0.11501942E+05</totfact>
</mgrwt>
</event>
<event>
 6    0  0.1284967E-004  0.4096458E+03  0.7546771E-02  0.1040490E+00
         21   -1    0    0  502  501  0.00000000000E+00  0.00000000000E+00  0.73612682190E+02  0.73612682190E+02  0.00000000000E+00 0. -1.
         21   -1    0    0  501  502 -0.00000000000E+00 -0.00000000000E+00 -0.56990740774E+03  0.56990740774E+03  0.00000000000E+00 0. -1.
      99925    2    1    2    0    0 -0.35269510541E+02  0.41760906709E+02 -0.28214988873E+03  0.38956452110E+03  0.26299057908E+03 0.  0.
         25    1    1    2    0    0  0.35269510541E+02 -0.41760906709E+02 -0.21414483683E+03  0.25395556884E+03  0.12509000000E+03 0.  0.
         25    1    3    3    0    0 -0.29753198739E+02  0.49850390700E+02 -0.18569846054E+03  0.23130443281E+03  0.12509000000E+03 0.  0.
         25    1    3    3    0    0 -0.55163118020E+01 -0.80894839916E+01 -0.96451428182E+02  0.15826008829E+03  0.12509000000E+03 0.  0.
<mgrwt>
<rscale>  2 0.40964576E+03</rscale>
<asrwt>0</asrwt>
<pdfrwt beam="1">  1       21 0.10825395E-01 0.40964576E+03</pdfrwt>
<pdfrwt beam="2">  1       21 0.83809910E-01 0.40964576E+03</pdfrwt>
<totfact> 0.81557060E+04</totfact>
</mgrwt>
</event>
<event>
 6    0  0.1284967E-004  0.4193689E+03  0.7546771E-02  0.1037272E+00
         21   -1    0    0  502  501  0.00000000000E+00  0.00000000000E+00  0.92733373770E+02  0.92733373770E+02  0.00000000000E+00 0. -1.
         21   -1    0    0  501  502 -0.00000000000E+00 -0.00000000000E+00 -0.47412895865E+03  0.47412895865E+03  0.00000000000E+00 0. -1.
      99925    2    1    2    0    0  0.14749218825E+02 -0.19335037133E+02 -0.15271878421E+03  0.30507621671E+03  0.26297735232E+03 0.  0.
         25    1    1    2    0    0 -0.14749218825E+02  0.19335037133E+02 -0.22867680067E+03  0.26178611571E+03  0.12509000000E+03 0.  0.
         25    1    3    3    0    0  0.47595680852E+02 -0.69867254694E+01 -0.82844077151E+02  0.15755891719E+03  0.12509000000E+03 0.  0.
         25    1    3    3    0    0 -0.32846462026E+02 -0.12348311663E+02 -0.69874707062E+02  0.14751729951E+03  0.12509000000E+03 0.  0.
<mgrwt>
<rscale>  2 0.41936894E+03</rscale>
<asrwt>0</asrwt>
<pdfrwt beam="1">  1       21 0.13637260E-01 0.41936894E+03</pdfrwt>
<pdfrwt beam="2">  1       21 0.69724849E-01 0.41936894E+03</pdfrwt>
<totfact> 0.81385915E+04</totfact>
</mgrwt>
</event>
<event>
 6    0  0.1284967E-004  0.5042937E+03  0.7546771E-02  0.1012664E+00
         21   -1    0    0  502  501  0.00000000000E+00  0.00000000000E+00  0.78669168357E+02  0.78669168357E+02  0.00000000000E+00 0.  1.
         21   -1    0    0  501  502 -0.00000000000E+00 -0.00000000000E+00 -0.80816969347E+03  0.80816969347E+03  0.00000000000E+00 0.  1.
      99925    2    1    2    0    0  0.28448639158E+02 -0.89440366554E+02 -0.22481240331E+03  0.35847675812E+03  0.26297540797E+03 0.  0.
         25    1    3    3    0    0 -0.17241600572E+02 -0.22411913942E+02 -0.83334428618E+02  0.15294345939E+03  0.12509000000E+03 0.  0.
         25    1    1    2    0    0 -0.28448639158E+02  0.89440366554E+02 -0.50468812180E+03  0.52836210370E+03  0.12509000000E+03 0.  0.
         25    1    3    3    0    0  0.45690239731E+02 -0.67028452612E+02 -0.14147797469E+03  0.20553329874E+03  0.12509000000E+03 0.  0.
<mgrwt>
<rscale>  2 0.50429371E+03</rscale>
<asrwt>0</asrwt>
<pdfrwt beam="1">  1       21 0.11568996E-01 0.50429371E+03</pdfrwt>
<pdfrwt beam="2">  1       21 0.11884848E+00 0.50429371E+03</pdfrwt>
<totfact> 0.30304478E+04</totfact>
</mgrwt>
</event>
<event>
 6    0  0.1284967E-004  0.3966235E+03  0.7546771E-02  0.1044955E+00
         21   -1    0    0  502  501  0.00000000000E+00  0.00000000000E+00  0.56792051494E+03  0.56792051494E+03  0.00000000000E+00 0. -1.
         21   -1    0    0  501  502 -0.00000000000E+00 -0.00000000000E+00 -0.69248326977E+02  0.69248326977E+02  0.00000000000E+00 0. -1.
      99925    2    1    2    0    0  0.32331629222E+02  0.19421586465E+02  0.34482948371E+03  0.43533322063E+03  0.26303062156E+03 0.  0.
         25    1    1    2    0    0 -0.32331629222E+02 -0.19421586465E+02  0.15384270426E+03  0.20183562129E+03  0.12509000000E+03 0.  0.
         25    1    3    3    0    0  0.80030290255E+00  0.31439524845E+02  0.22229545925E+03  0.25700557097E+03  0.12509000000E+03 0.  0.
         25    1    3    3    0    0  0.31531326319E+02 -0.12017938380E+02  0.12253402446E+03  0.17832764966E+03  0.12509000000E+03 0.  0.
<mgrwt>
<rscale>  2 0.39662348E+03</rscale>
<asrwt>0</asrwt>
<pdfrwt beam="1">  1       21 0.83517720E-01 0.39662348E+03</pdfrwt>
<pdfrwt beam="2">  1       21 0.10183578E-01 0.39662348E+03</pdfrwt>
<totfact> 0.92057241E+04</totfact>
</mgrwt>
</event>
<event>
 6    0  0.1284967E-004  0.4211867E+03  0.7546771E-02  0.1036681E+00
         21   -1    0    0  502  501  0.00000000000E+00  0.00000000000E+00  0.25817271274E+03  0.25817271274E+03  0.00000000000E+00 0.  1.
         21   -1    0    0  501  502 -0.00000000000E+00 -0.00000000000E+00 -0.17178249694E+03  0.17178249694E+03  0.00000000000E+00 0.  1.
      99925    2    1    2    0    0  0.24510875300E+02  0.37609461227E+02  0.12039447970E+03  0.29277265742E+03  0.26306984549E+03 0.  0.
         25    1    3    3    0    0  0.40142145981E+02  0.10264990646E+02  0.91939249704E+02  0.16067699167E+03  0.12509000000E+03 0.  0.
         25    1    1    2    0    0 -0.24510875300E+02 -0.37609461227E+02 -0.34004263890E+02  0.13718255226E+03  0.12509000000E+03 0.  0.
         25    1    3    3    0    0 -0.15631270682E+02  0.27344470581E+02  0.28455229991E+02  0.13209566574E+03  0.12509000000E+03 0.  0.
<mgrwt>
<rscale>  2 0.42118667E+03</rscale>
<asrwt>0</asrwt>
<pdfrwt beam="1">  1       21 0.37966576E-01 0.42118667E+03</pdfrwt>
<pdfrwt beam="2">  1       21 0.25262132E-01 0.42118667E+03</pdfrwt>
<totfact> 0.93100981E+04</totfact>
</mgrwt>
</event>
<event>
 6    0  0.1284967E-004  0.4065626E+03  0.7546771E-02  0.1041531E+00
         21   -1    0    0  502  501  0.00000000000E+00  0.00000000000E+00  0.21566870339E+03  0.21566870339E+03  0.00000000000E+00 0. -1.
         21   -1    0    0  501  502 -0.00000000000E+00 -0.00000000000E+00 -0.19160536765E+03  0.19160536765E+03  0.00000000000E+00 0. -1.
      99925    2    1    2    0    0  0.35473312178E+02  0.16677199611E+02  0.57338415417E+02  0.27202901978E+03  0.26301256406E+03 0.  0.
         25    1    3    3    0    0  0.18351052246E+02  0.10830133427E+02 -0.12705380711E+02  0.12752641965E+03  0.12509000000E+03 0.  0.
         25    1    1    2    0    0 -0.35473312178E+02 -0.16677199611E+02 -0.33275079681E+02  0.13524505126E+03  0.12509000000E+03 0.  0.
         25    1    3    3    0    0  0.17122259932E+02  0.58470661844E+01  0.70043796129E+02  0.14450260013E+03  0.12509000000E+03 0.  0.
<mgrwt>
<rscale>  2 0.40656257E+03</rscale>
<asrwt>0</asrwt>
<pdfrwt beam="1">  1       21 0.31715986E-01 0.40656257E+03</pdfrwt>
<pdfrwt beam="2">  1       21 0.28177260E-01 0.40656257E+03</pdfrwt>
<totfact> 0.10841666E+05</totfact>
</mgrwt>
</event>
<event>
 6    0  0.1284967E-004  0.3964721E+03  0.7546771E-02  0.1045008E+00
         21   -1    0    0  502  501  0.00000000000E+00  0.00000000000E+00  0.65510428999E+03  0.65510428999E+03  0.00000000000E+00 0.  1.
         21   -1    0    0  501  502 -0.00000000000E+00 -0.00000000000E+00 -0.59986683265E+02  0.59986683265E+02  0.00000000000E+00 0.  1.
      99925    2    1    2    0    0  0.14577195041E+01  0.83744161468E+01  0.33148916839E+03  0.42316680949E+03  0.26289318002E+03 0.  0.
         25    1    3    3    0    0 -0.21886322674E+02 -0.16002577351E+02  0.12184160318E+03  0.17671439661E+03  0.12509000000E+03 0.  0.
         25    1    1    2    0    0 -0.14577195041E+01 -0.83744161468E+01  0.26362843833E+03  0.29192416376E+03  0.12509000000E+03 0.  0.
         25    1    3    3    0    0  0.23344042178E+02  0.24376993498E+02  0.20964756521E+03  0.24645241289E+03  0.12509000000E+03 0.  0.
<mgrwt>
<rscale>  2 0.39647211E+03</rscale>
<asrwt>0</asrwt>
<pdfrwt beam="1">  1       21 0.96338862E-01 0.39647211E+03</pdfrwt>
<pdfrwt beam="2">  1       21 0.88215715E-02 0.39647211E+03</pdfrwt>
<totfact> 0.84962208E+04</totfact>
</mgrwt>
</event>
<event>
 6    0  0.1284967E-004  0.3922136E+03  0.7546771E-02  0.1046510E+00
         21   -1    0    0  502  501  0.00000000000E+00  0.00000000000E+00  0.27204181135E+03  0.27204181135E+03  0.00000000000E+00 0. -1.
         21   -1    0    0  501  502 -0.00000000000E+00 -0.00000000000E+00 -0.14136748802E+03  0.14136748802E+03  0.00000000000E+00 0. -1.
      99925    2    1    2    0    0  0.19817088222E+02 -0.44611489909E+01  0.10804818505E+03  0.28467675077E+03  0.26259060018E+03 0.  0.
         25    1    3    3    0    0  0.20758039026E+02 -0.31008637737E+02  0.27070625152E+02  0.13331451026E+03  0.12509000000E+03 0.  0.
         25    1    1    2    0    0 -0.19817088222E+02  0.44611489909E+01  0.22626138276E+02  0.12873254860E+03  0.12509000000E+03 0.  0.
         25    1    3    3    0    0 -0.94095080375E+00  0.26547488746E+02  0.80977559896E+02  0.15136224052E+03  0.12509000000E+03 0.  0.
<mgrwt>
<rscale>  2 0.39221355E+03</rscale>
<asrwt>0</asrwt>
<pdfrwt beam="1">  1       21 0.40006149E-01 0.39221355E+03</pdfrwt>
<pdfrwt beam="2">  1       21 0.20789336E-01 0.39221355E+03</pdfrwt>
<totfact> 0.12241348E+05</totfact>
</mgrwt>
</event>
<event>
 6    0  0.1284967E-004  0.4145984E+03  0.7546771E-02  0.1038839E+00
         21   -1    0    0  502  501  0.00000000000E+00  0.00000000000E+00  0.29818152977E+03  0.29818152977E+03  0.00000000000E+00 0. -1.
         21   -1    0    0  501  502 -0.00000000000E+00 -0.00000000000E+00 -0.14411678349E+03  0.14411678349E+03  0.00000000000E+00 0. -1.
      99925    2    1    2    0    0 -0.46387517210E+02 -0.25100172117E+02  0.53960195544E+02  0.27362629551E+03  0.26301677988E+03 0.  0.
         25    1    3    3    0    0  0.15966452585E+02 -0.15289976170E+02  0.13244798006E+02  0.12771704567E+03  0.12509000000E+03 0.  0.
         25    1    1    2    0    0  0.46387517210E+02  0.25100172117E+02  0.10010455074E+03  0.16867201775E+03  0.12509000000E+03 0.  0.
         25    1    3    3    0    0 -0.62353969795E+02 -0.98101959472E+01  0.40715397538E+02  0.14590924985E+03  0.12509000000E+03 0.  0.
<mgrwt>
<rscale>  2 0.41459842E+03</rscale>
<asrwt>0</asrwt>
<pdfrwt beam="1">  1       21 0.43850225E-01 0.41459842E+03</pdfrwt>
<pdfrwt beam="2">  1       21 0.21193645E-01 0.41459842E+03</pdfrwt>
<totfact> 0.97158042E+04</totfact>
</mgrwt>
</event>
<event>
 6    0  0.1284967E-004  0.4614284E+03  0.7546771E-02  0.1024368E+00
         21   -1    0    0  502  501  0.00000000000E+00  0.00000000000E+00  0.16093031703E+03  0.16093031703E+03  0.00000000000E+00 0. -1.
         21   -1    0    0  501  502 -0.00000000000E+00 -0.00000000000E+00 -0.33075835544E+03  0.33075835544E+03  0.00000000000E+00 0. -1.
      99925    2    1    2    0    0  0.30456510932E+02  0.77145767369E+02 -0.15295685571E+02  0.27626623944E+03  0.26307795152E+03 0.  0.
         25    1    3    3    0    0  0.47205016767E+02  0.60637237272E+02  0.73222804880E+01  0.14699085701E+03  0.12509000000E+03 0.  0.
         25    1    3    3    0    0 -0.16748505835E+02  0.16508530097E+02 -0.22617966059E+02  0.12927538243E+03  0.12509000000E+03 0.  0.
         25    1    1    2    0    0 -0.30456510932E+02 -0.77145767369E+02 -0.15453235284E+03  0.21542243304E+03  0.12509000000E+03 0.  0.
<mgrwt>
<rscale>  2 0.46142842E+03</rscale>
<asrwt>0</asrwt>
<pdfrwt beam="1">  1       21 0.23666224E-01 0.46142842E+03</pdfrwt>
<pdfrwt beam="2">  1       21 0.48640934E-01 0.46142842E+03</pdfrwt>
<totfact> 0.62602322E+04</totfact>
</mgrwt>
</event>
<event>
 6    0  0.1284967E-004  0.4020650E+03  0.7546771E-02  0.1043067E+00
         21   -1    0    0  502  501  0.00000000000E+00  0.00000000000E+00  0.71903649607E+02  0.71903649607E+02  0.00000000000E+00 0. -1.
         21   -1    0    0  501  502 -0.00000000000E+00 -0.00000000000E+00 -0.56205852684E+03  0.56205852684E+03  0.00000000000E+00 0. -1.
      99925    2    1    2    0    0 -0.22047241559E+02 -0.19944272837E+01 -0.39589950796E+03  0.47577987232E+03  0.26294487617E+03 0.  0.
         25    1    1    2    0    0  0.22047241559E+02  0.19944272837E+01 -0.94255369269E+02  0.15818230412E+03  0.12509000000E+03 0.  0.
         25    1    3    3    0    0 -0.22471409196E+02  0.32263088666E+02 -0.23509977405E+03  0.26919376475E+03  0.12509000000E+03 0.  0.
         25    1    3    3    0    0  0.42416763705E+00 -0.34257515950E+02 -0.16079973391E+03  0.20658610758E+03  0.12509000000E+03 0.  0.
<mgrwt>
<rscale>  2 0.40206497E+03</rscale>
<asrwt>0</asrwt>
<pdfrwt beam="1">  1       21 0.10574066E-01 0.40206497E+03</pdfrwt>
<pdfrwt beam="2">  1       21 0.82655669E-01 0.40206497E+03</pdfrwt>
<totfact> 0.88021579E+04</totfact>
</mgrwt>
</event>
<event>
 6    0  0.1284967E-004  0.4686593E+03  0.7546771E-02  0.1022299E+00
         21   -1    0    0  502  501  0.00000000000E+00  0.00000000000E+00  0.73474781224E+02  0.73474781224E+02  0.00000000000E+00 0. -1.
         21   -1    0    0  501  502 -0.00000000000E+00 -0.00000000000E+00 -0.74733633550E+03  0.74733633550E+03  0.00000000000E+00 0. -1.
      99925    2    1    2    0    0 -0.65454810415E+02  0.91683148096E+00 -0.60663830444E+03  0.66444089512E+03  0.26303326387E+03 0.  0.
         25    1    3    3    0    0 -0.14647338386E+02 -0.29478921279E+02 -0.24155645551E+03  0.27400835866E+03  0.12509000000E+03 0.  0.
         25    1    1    2    0    0  0.65454810415E+02 -0.91683148096E+00 -0.67223249833E+02  0.15637022160E+03  0.12509000000E+03 0.  0.
         25    1    3    3    0    0 -0.50807472030E+02  0.30395752760E+02 -0.36508184893E+03  0.39043253645E+03  0.12509000000E+03 0.  0.
<mgrwt>
<rscale>  2 0.46865925E+03</rscale>
<asrwt>0</asrwt>
<pdfrwt beam="1">  1       21 0.10805114E-01 0.46865925E+03</pdfrwt>
<pdfrwt beam="2">  1       21 0.10990241E+00 0.46865925E+03</pdfrwt>
<totfact> 0.42079935E+04</totfact>
</mgrwt>
</event>
<event>
 6    0  0.1284967E-004  0.4063363E+03  0.7546771E-02  0.1041607E+00
         21   -1    0    0  502  501  0.00000000000E+00  0.00000000000E+00  0.27872098922E+02  0.27872098922E+02  0.00000000000E+00 0.  1.
         21   -1    0    0  501  502 -0.00000000000E+00 -0.00000000000E+00 -0.14809538867E+04  0.14809538867E+04  0.00000000000E+00 0.  1.
      99925    2    1    2    0    0 -0.29967107222E+02  0.41654029594E+02 -0.87420538093E+03  0.91436952110E+03  0.26306555720E+03 0.  0.
         25    1    1    2    0    0  0.29967107222E+02 -0.41654029594E+02 -0.57887640681E+03  0.59445646448E+03  0.12509000000E+03 0.  0.
         25    1    3    3    0    0 -0.50867525695E+02  0.40215639019E+02 -0.48136044221E+03  0.50155775961E+03  0.12509000000E+03 0.  0.
         25    1    3    3    0    0  0.20900418472E+02  0.14383905751E+01 -0.39284493871E+03  0.41281176150E+03  0.12509000000E+03 0.  0.
<mgrwt>
<rscale>  2 0.40633628E+03</rscale>
<asrwt>0</asrwt>
<pdfrwt beam="1">  1       21 0.40988384E-02 0.40633628E+03</pdfrwt>
<pdfrwt beam="2">  1       21 0.21778732E+00 0.40633628E+03</pdfrwt>
<totfact> 0.35061023E+04</totfact>
</mgrwt>
</event>
<event>
 6    0  0.1284967E-004  0.4071567E+03  0.7546771E-02  0.1041329E+00
         21   -1    0    0  502  501  0.00000000000E+00  0.00000000000E+00  0.17701092665E+04  0.17701092665E+04  0.00000000000E+00 0. -1.
         21   -1    0    0  501  502 -0.00000000000E+00 -0.00000000000E+00 -0.23413319845E+02  0.23413319845E+02  0.00000000000E+00 0. -1.
      99925    2    1    2    0    0 -0.29484366651E+02  0.42135147374E+02  0.12715531599E+04  0.12995055073E+04  0.26310155155E+03 0.  0.
         25    1    1    2    0    0  0.29484366651E+02 -0.42135147374E+02  0.47514278672E+03  0.49401707905E+03  0.12509000000E+03 0.  0.
         25    1    3    3    0    0  0.89366306050E+01  0.99002635438E+01  0.76775167951E+03  0.77798973520E+03  0.12509000000E+03 0.  0.
         25    1    3    3    0    0 -0.38420997256E+02  0.32234883830E+02  0.50380148042E+03  0.52151577209E+03  0.12509000000E+03 0.  0.
<mgrwt>
<rscale>  2 0.40715665E+03</rscale>
<asrwt>0</asrwt>
<pdfrwt beam="1">  1       21 0.26031009E+00 0.40715665E+03</pdfrwt>
<pdfrwt beam="2">  1       21 0.34431365E-02 0.40715665E+03</pdfrwt>
<totfact> 0.25677447E+04</totfact>
</mgrwt>
</event>
<event>
 6    0  0.1284967E-004  0.4121374E+03  0.7546771E-02  0.1039656E+00
         21   -1    0    0  502  501  0.00000000000E+00  0.00000000000E+00  0.31691329614E+02  0.31691329614E+02  0.00000000000E+00 0. -1.
         21   -1    0    0  501  502 -0.00000000000E+00 -0.00000000000E+00 -0.13399345140E+04  0.13399345140E+04  0.00000000000E+00 0. -1.
      99925    2    1    2    0    0 -0.61447484844E+02 -0.48958463870E+01 -0.93236033756E+03  0.97070791517E+03  0.26301767017E+03 0.  0.
         25    1    3    3    0    0 -0.47993817634E+02  0.32399264724E+02 -0.43423687796E+03  0.45559004946E+03  0.12509000000E+03 0.  0.
         25    1    3    3    0    0 -0.13453667210E+02 -0.37295111111E+02 -0.49812345960E+03  0.51511786571E+03  0.12509000000E+03 0.  0.
         25    1    1    2    0    0  0.61447484844E+02  0.48958463870E+01 -0.37588284680E+03  0.40091792842E+03  0.12509000000E+03 0.  0.
<mgrwt>
<rscale>  2 0.41213739E+03</rscale>
<asrwt>0</asrwt>
<pdfrwt beam="1">  1       21 0.46604901E-02 0.41213739E+03</pdfrwt>
<pdfrwt beam="2">  1       21 0.19704917E+00 0.41213739E+03</pdfrwt>
<totfact> 0.38379249E+04</totfact>
</mgrwt>
</event>
<event>
 6    0  0.1284967E-004  0.4981083E+03  0.7546771E-02  0.1014274E+00
         21   -1    0    0  502  501  0.00000000000E+00  0.00000000000E+00  0.61958471689E+03  0.61958471689E+03  0.00000000000E+00 0. -1.
         21   -1    0    0  501  502 -0.00000000000E+00 -0.00000000000E+00 -0.10011215560E+03  0.10011215560E+03  0.00000000000E+00 0. -1.
      99925    2    1    2    0    0 -0.51121841076E+02  0.89448456846E+02  0.15825660346E+03  0.32379417565E+03  0.26302670317E+03 0.  0.
         25    1    1    2    0    0  0.51121841076E+02 -0.89448456846E+02  0.36121595784E+03  0.39590269684E+03  0.12509000000E+03 0.  0.
         25    1    3    3    0    0 -0.14273310339E+02  0.81832379456E+02  0.66881081041E+02  0.16438020810E+03  0.12509000000E+03 0.  0.
         25    1    3    3    0    0 -0.36848530737E+02  0.76160773905E+01  0.91375522414E+02  0.15941396755E+03  0.12509000000E+03 0.  0.
<mgrwt>
<rscale>  2 0.49810827E+03</rscale>
<asrwt>0</asrwt>
<pdfrwt beam="1">  1       21 0.91115398E-01 0.49810827E+03</pdfrwt>
<pdfrwt beam="2">  1       21 0.14722376E-01 0.49810827E+03</pdfrwt>
<totfact> 0.37433233E+04</totfact>
</mgrwt>
</event>
<event>
 6    0  0.1284967E-004  0.4078284E+03  0.7546771E-02  0.1041102E+00
         21   -1    0    0  502  501  0.00000000000E+00  0.00000000000E+00  0.43358894596E+03  0.43358894596E+03  0.00000000000E+00 0.  1.
         21   -1    0    0  501  502 -0.00000000000E+00 -0.00000000000E+00 -0.95899576145E+02  0.95899576145E+02  0.00000000000E+00 0.  1.
      99925    2    1    2    0    0 -0.73452109395E+01 -0.45403553610E+02  0.17542837476E+03  0.31950858635E+03  0.26304978098E+03 0.  0.
         25    1    3    3    0    0 -0.17623448340E+02 -0.11016420614E+01  0.47700346186E+02  0.13503566445E+03  0.12509000000E+03 0.  0.
         25    1    3    3    0    0  0.10278237401E+02 -0.44301911549E+02  0.12772802858E+03  0.18447292190E+03  0.12509000000E+03 0.  0.
         25    1    1    2    0    0  0.73452109395E+01  0.45403553610E+02  0.16226099505E+03  0.20997993575E+03  0.12509000000E+03 0.  0.
<mgrwt>
<rscale>  2 0.40782838E+03</rscale>
<asrwt>0</asrwt>
<pdfrwt beam="1">  1       21 0.63763080E-01 0.40782838E+03</pdfrwt>
<pdfrwt beam="2">  1       21 0.14102879E-01 0.40782838E+03</pdfrwt>
<totfact> 0.93596263E+04</totfact>
</mgrwt>
</event>
<event>
 6    0  0.1284967E-004  0.4498203E+03  0.7546771E-02  0.1027776E+00
         21   -1    0    0  502  501  0.00000000000E+00  0.00000000000E+00  0.15308764066E+03  0.15308764066E+03  0.00000000000E+00 0.  1.
         21   -1    0    0  501  502 -0.00000000000E+00 -0.00000000000E+00 -0.33042883092E+03  0.33042883092E+03  0.00000000000E+00 0.  1.
      99925    2    1    2    0    0 -0.76949122404E+02  0.27444718157E+02 -0.35596357942E+02  0.27757112548E+03  0.26287687043E+03 0.  0.
         25    1    3    3    0    0 -0.10097495072E+02  0.39265337557E+02 -0.28469267704E+01  0.13152695249E+03  0.12509000000E+03 0.  0.
         25    1    1    2    0    0  0.76949122404E+02 -0.27444718157E+02 -0.14174483232E+03  0.20594534611E+03  0.12509000000E+03 0.  0.
         25    1    3    3    0    0 -0.66851627333E+02 -0.11820619400E+02 -0.32749431172E+02  0.14604417298E+03  0.12509000000E+03 0.  0.
<mgrwt>
<rscale>  2 0.44982028E+03</rscale>
<asrwt>0</asrwt>
<pdfrwt beam="1">  1       21 0.22512889E-01 0.44982028E+03</pdfrwt>
<pdfrwt beam="2">  1       21 0.48592474E-01 0.44982028E+03</pdfrwt>
<totfact> 0.69248966E+04</totfact>
</mgrwt>
</event>
<event>
 6    0  0.1284967E-004  0.4487186E+03  0.7546771E-02  0.1028105E+00
         21   -1    0    0  502  501  0.00000000000E+00  0.00000000000E+00  0.11581859535E+03  0.11581859535E+03  0.00000000000E+00 0.  1.
         21   -1    0    0  501  502 -0.00000000000E+00 -0.00000000000E+00 -0.43462013466E+03  0.43462013466E+03  0.00000000000E+00 0.  1.
      99925    2    1    2    0    0 -0.58379298268E+02 -0.39716318463E+02 -0.30053202370E+03  0.40563951828E+03  0.26313189298E+03 0.  0.
         25    1    3    3    0    0 -0.31123376205E+02  0.19565337405E+02 -0.16152700491E+03  0.20758118506E+03  0.12509000000E+03 0.  0.
         25    1    3    3    0    0 -0.27255922063E+02 -0.59281655867E+02 -0.13900501879E+03  0.19805833322E+03  0.12509000000E+03 0.  0.
         25    1    1    2    0    0  0.58379298268E+02  0.39716318463E+02 -0.18269515607E+02  0.14479921173E+03  0.12509000000E+03 0.  0.
<mgrwt>
<rscale>  2 0.44871859E+03</rscale>
<asrwt>0</asrwt>
<pdfrwt beam="1">  1       21 0.17032147E-01 0.44871859E+03</pdfrwt>
<pdfrwt beam="2">  1       21 0.63914725E-01 0.44871859E+03</pdfrwt>
<totfact> 0.65008509E+04</totfact>
</mgrwt>
</event>
<event>
 6    0  0.1284967E-004  0.4221297E+03  0.7546771E-02  0.1036375E+00
         21   -1    0    0  502  501  0.00000000000E+00  0.00000000000E+00  0.11126343076E+03  0.11126343076E+03  0.00000000000E+00 0. -1.
         21   -1    0    0  501  502 -0.00000000000E+00 -0.00000000000E+00 -0.40038641670E+03  0.40038641670E+03  0.00000000000E+00 0. -1.
      99925    2    1    2    0    0  0.23852283158E+02  0.13308200277E+02 -0.98755842561E+02  0.28223058718E+03  0.26297404490E+03 0.  0.
         25    1    3    3    0    0  0.40377767081E+01 -0.20948825483E+02 -0.17995312594E+02  0.12816589369E+03  0.12509000000E+03 0.  0.
         25    1    3    3    0    0  0.19814506450E+02  0.34257025760E+02 -0.80760529968E+02  0.15406469349E+03  0.12509000000E+03 0.  0.
         25    1    1    2    0    0 -0.23852283158E+02 -0.13308200277E+02 -0.19036714338E+03  0.22941926028E+03  0.12509000000E+03 0.  0.
<mgrwt>
<rscale>  2 0.42212968E+03</rscale>
<asrwt>0</asrwt>
<pdfrwt beam="1">  1       21 0.16362269E-01 0.42212968E+03</pdfrwt>
<pdfrwt beam="2">  1       21 0.58880356E-01 0.42212968E+03</pdfrwt>
<totfact> 0.84388903E+04</totfact>
</mgrwt>
</event>
<event>
 6    0  0.1284967E-004  0.4466523E+03  0.7546771E-02  0.1028725E+00
         21   -1    0    0  502  501  0.00000000000E+00  0.00000000000E+00  0.19514572726E+04  0.19514572726E+04  0.00000000000E+00 0. -1.
         21   -1    0    0  501  502 -0.00000000000E+00 -0.00000000000E+00 -0.25557599453E+02  0.25557599453E+02  0.00000000000E+00 0. -1.
      99925    2    1    2    0    0 -0.47176740267E+01  0.26961305943E+02  0.16708018920E+04  0.16915826480E+04  0.26291391047E+03 0.  0.
         25    1    3    3    0    0  0.12197810865E+02  0.48536307916E+02  0.76504218843E+03  0.77681504746E+03  0.12509000000E+03 0.  0.
         25    1    1    2    0    0  0.47176740267E+01 -0.26961305943E+02  0.25509778112E+03  0.28543222400E+03  0.12509000000E+03 0.  0.
         25    1    3    3    0    0 -0.16915484892E+02 -0.21575001972E+02  0.90575970356E+03  0.91476760056E+03  0.12509000000E+03 0.  0.
<mgrwt>
<rscale>  2 0.44665227E+03</rscale>
<asrwt>0</asrwt>
<pdfrwt beam="1">  1       21 0.28697891E+00 0.44665227E+03</pdfrwt>
<pdfrwt beam="2">  1       21 0.37584719E-02 0.44665227E+03</pdfrwt>
<totfact> 0.15039871E+04</totfact>
</mgrwt>
</event>
<event>
 6    0  0.1284967E-004  0.5220744E+03  0.7546771E-02  0.1008173E+00
         21   -1    0    0  502  501  0.00000000000E+00  0.00000000000E+00  0.96296550029E+03  0.96296550029E+03  0.00000000000E+00 0.  1.
         21   -1    0    0  501  502 -0.00000000000E+00 -0.00000000000E+00 -0.70761023223E+02  0.70761023223E+02  0.00000000000E+00 0.  1.
      99925    2    1    2    0    0 -0.13542479973E+03 -0.88633489677E+02  0.44204106843E+03  0.53926684421E+03  0.26308297402E+03 0.  0.
         25    1    1    2    0    0  0.13542479973E+03  0.88633489677E+02  0.45016340864E+03  0.49445967930E+03  0.12509000000E+03 0.  0.
         25    1    3    3    0    0 -0.65942516567E+02 -0.32940534114E+02  0.14673844028E+03  0.20642958178E+03  0.12509000000E+03 0.  0.
         25    1    3    3    0    0 -0.69482283162E+02 -0.55692955563E+02  0.29530262814E+03  0.33283726243E+03  0.12509000000E+03 0.  0.
<mgrwt>
<rscale>  2 0.52207442E+03</rscale>
<asrwt>0</asrwt>
<pdfrwt beam="1">  1       21 0.14161257E+00 0.52207442E+03</pdfrwt>
<pdfrwt beam="2">  1       21 0.10406033E-01 0.52207442E+03</pdfrwt>
<totfact> 0.23157871E+04</totfact>
</mgrwt>
</event>
<event>
 6    0  0.1284967E-004  0.3983249E+03  0.7546771E-02  0.1044361E+00
         21   -1    0    0  502  501  0.00000000000E+00  0.00000000000E+00  0.69767444222E+02  0.69767444222E+02  0.00000000000E+00 0. -1.
         21   -1    0    0  501  502 -0.00000000000E+00 -0.00000000000E+00 -0.56854145603E+03  0.56854145603E+03  0.00000000000E+00 0. -1.
      99925    2    1    2    0    0 -0.14601298254E+02  0.24676236971E+02 -0.28442599996E+03  0.38847957278E+03  0.26305154330E+03 0.  0.
         25    1    3    3    0    0 -0.15187402327E+02  0.50045354347E+02 -0.12659474126E+03  0.18549644551E+03  0.12509000000E+03 0.  0.
         25    1    1    2    0    0  0.14601298254E+02 -0.24676236971E+02 -0.21434801185E+03  0.24982932748E+03  0.12509000000E+03 0.  0.
         25    1    3    3    0    0  0.58610407325E+00 -0.25369117377E+02 -0.15783125870E+03  0.20298312727E+03  0.12509000000E+03 0.  0.
<mgrwt>
<rscale>  2 0.39832491E+03</rscale>
<asrwt>0</asrwt>
<pdfrwt beam="1">  1       21 0.10259919E-01 0.39832491E+03</pdfrwt>
<pdfrwt beam="2">  1       21 0.83609035E-01 0.39832491E+03</pdfrwt>
<totfact> 0.90564980E+04</totfact>
</mgrwt>
</event>
<event>
 6    0  0.1284967E-004  0.4177790E+03  0.7546771E-02  0.1037792E+00
         21   -1    0    0  502  501  0.00000000000E+00  0.00000000000E+00  0.29234613197E+03  0.29234613197E+03  0.00000000000E+00 0.  1.
         21   -1    0    0  501  502 -0.00000000000E+00 -0.00000000000E+00 -0.14925736394E+03  0.14925736394E+03  0.00000000000E+00 0.  1.
      99925    2    1    2    0    0  0.32875461907E+02 -0.77285549075E+01  0.25121413364E+02  0.26637698130E+03  0.26303057655E+03 0.  0.
         25    1    1    2    0    0 -0.32875461907E+02  0.77285549075E+01  0.11796735467E+03  0.17522651461E+03  0.12509000000E+03 0.  0.
         25    1    3    3    0    0  0.12812822563E+02 -0.33629695770E+02 -0.14905075293E+02  0.13101448099E+03  0.12509000000E+03 0.  0.
         25    1    3    3    0    0  0.20062639344E+02  0.25901140863E+02  0.40026488657E+02  0.13536250031E+03  0.12509000000E+03 0.  0.
<mgrwt>
<rscale>  2 0.41777895E+03</rscale>
<asrwt>0</asrwt>
<pdfrwt beam="1">  1       21 0.42992078E-01 0.41777895E+03</pdfrwt>
<pdfrwt beam="2">  1       21 0.21949612E-01 0.41777895E+03</pdfrwt>
<totfact> 0.94607232E+04</totfact>
</mgrwt>
</event>
<event>
 6    0  0.1284967E-004  0.4145651E+03  0.7546771E-02  0.1038850E+00
         21   -1    0    0  502  501  0.00000000000E+00  0.00000000000E+00  0.32606405519E+03  0.32606405519E+03  0.00000000000E+00 0. -1.
         21   -1    0    0  501  502 -0.00000000000E+00 -0.00000000000E+00 -0.13177180690E+03  0.13177180690E+03  0.00000000000E+00 0. -1.
      99925    2    1    2    0    0  0.35352147965E+02  0.44635207258E+02  0.17068914461E+03  0.31838447021E+03  0.26266292219E+03 0.  0.
         25    1    1    2    0    0 -0.35352147965E+02 -0.44635207258E+02  0.23603103674E+02  0.13945139187E+03  0.12509000000E+03 0.  0.
         25    1    3    3    0    0  0.39246011488E+02  0.45753870805E+02  0.11938076952E+03  0.18312002169E+03  0.12509000000E+03 0.  0.
         25    1    3    3    0    0 -0.38938635227E+01 -0.11186635467E+01  0.51308375092E+02  0.13526444853E+03  0.12509000000E+03 0.  0.
<mgrwt>
<rscale>  2 0.41456507E+03</rscale>
<asrwt>0</asrwt>
<pdfrwt beam="1">  1       21 0.47950596E-01 0.41456507E+03</pdfrwt>
<pdfrwt beam="2">  1       21 0.19378207E-01 0.41456507E+03</pdfrwt>
<totfact> 0.95517491E+04</totfact>
</mgrwt>
</event>
<event>
 6    0  0.1284967E-004  0.4237855E+03  0.7546771E-02  0.1035841E+00
         21   -1    0    0  502  501  0.00000000000E+00  0.00000000000E+00  0.91071760053E+02  0.91071760053E+02  0.00000000000E+00 0.  1.
         21   -1    0    0  501  502 -0.00000000000E+00 -0.00000000000E+00 -0.49300184021E+03  0.49300184021E+03  0.00000000000E+00 0.  1.
      99925    2    1    2    0    0 -0.57327140261E+02 -0.34135967100E+02 -0.19848463355E+03  0.33610339418E+03  0.26290240882E+03 0.  0.
         25    1    1    2    0    0  0.57327140261E+02  0.34135967100E+02 -0.20344544661E+03  0.24797020608E+03  0.12509000000E+03 0.  0.
         25    1    3    3    0    0 -0.59821661342E+02 -0.44398761365E+02 -0.11131565168E+03  0.18327182976E+03  0.12509000000E+03 0.  0.
         25    1    3    3    0    0  0.24945210809E+01  0.10262794266E+02 -0.87168981876E+02  0.15283156442E+03  0.12509000000E+03 0.  0.
<mgrwt>
<rscale>  2 0.42378554E+03</rscale>
<asrwt>0</asrwt>
<pdfrwt beam="1">  1       21 0.13392906E-01 0.42378554E+03</pdfrwt>
<pdfrwt beam="2">  1       21 0.72500271E-01 0.42378554E+03</pdfrwt>
<totfact> 0.76973971E+04</totfact>
</mgrwt>
</event>
<event>
 6    0  0.1284967E-004  0.4482240E+03  0.7546771E-02  0.1028253E+00
         21   -1    0    0  502  501  0.00000000000E+00  0.00000000000E+00  0.97105071229E+02  0.97105071229E+02  0.00000000000E+00 0.  1.
         21   -1    0    0  501  502 -0.00000000000E+00 -0.00000000000E+00 -0.51723555749E+03  0.51723555749E+03  0.00000000000E+00 0.  1.
      99925    2    1    2    0    0  0.63235922659E+02 -0.84014328044E+00 -0.38374026848E+03  0.46952611354E+03  0.26305643860E+03 0.  0.
         25    1    3    3    0    0  0.13022846493E+01  0.20904353064E+01 -0.13342980254E+03  0.18291278296E+03  0.12509000000E+03 0.  0.
         25    1    3    3    0    0  0.61933638010E+02 -0.29305785869E+01 -0.25031046594E+03  0.28661333058E+03  0.12509000000E+03 0.  0.
         25    1    1    2    0    0 -0.63235922659E+02  0.84014328044E+00 -0.36390217780E+02  0.14481451517E+03  0.12509000000E+03 0.  0.
<mgrwt>
<rscale>  2 0.44822403E+03</rscale>
<asrwt>0</asrwt>
<pdfrwt beam="1">  1       21 0.14280158E-01 0.44822403E+03</pdfrwt>
<pdfrwt beam="2">  1       21 0.76064052E-01 0.44822403E+03</pdfrwt>
<totfact> 0.61003714E+04</totfact>
</mgrwt>
</event>
<event>
 6    0  0.1284967E-004  0.3953875E+03  0.7546771E-02  0.1045389E+00
         21   -1    0    0  502  501  0.00000000000E+00  0.00000000000E+00  0.26695436751E+02  0.26695436751E+02  0.00000000000E+00 0. -1.
         21   -1    0    0  501  502 -0.00000000000E+00 -0.00000000000E+00 -0.14640259886E+04  0.14640259886E+04  0.00000000000E+00 0. -1.
      99925    2    1    2    0    0  0.16453566528E+02 -0.23249199711E+02 -0.10446907022E+04  0.10776538706E+04  0.26295999024E+03 0.  0.
         25    1    3    3    0    0  0.17796367345E+02  0.19531864354E+02 -0.41560693030E+03  0.43482736003E+03  0.12509000000E+03 0.  0.
         25    1    1    2    0    0 -0.16453566528E+02  0.23249199711E+02 -0.39263984973E+03  0.41306755481E+03  0.12509000000E+03 0.  0.
         25    1    3    3    0    0 -0.13428008171E+01 -0.42781064064E+02 -0.62908377185E+03  0.64282651055E+03  0.12509000000E+03 0.  0.
<mgrwt>
<rscale>  2 0.39538747E+03</rscale>
<asrwt>0</asrwt>
<pdfrwt beam="1">  1       21 0.39258003E-02 0.39538747E+03</pdfrwt>
<pdfrwt beam="2">  1       21 0.21529790E+00 0.39538747E+03</pdfrwt>
<totfact> 0.39297439E+04</totfact>
</mgrwt>
</event>
<event>
 6    0  0.1284967E-004  0.4053646E+03  0.7546771E-02  0.1041938E+00
         21   -1    0    0  502  501  0.00000000000E+00  0.00000000000E+00  0.61198931518E+03  0.61198931518E+03  0.00000000000E+00 0.  1.
         21   -1    0    0  501  502 -0.00000000000E+00 -0.00000000000E+00 -0.67125549973E+02  0.67125549973E+02  0.00000000000E+00 0.  1.
      99925    2    1    2    0    0 -0.11923759299E+02 -0.25222935831E+02  0.44120390299E+03  0.51427783150E+03  0.26275926517E+03 0.  0.
         25    1    3    3    0    0  0.19858411593E+02  0.18406633348E+02  0.21148184531E+03  0.24719474035E+03  0.12509000000E+03 0.  0.
         25    1    3    3    0    0 -0.31782170892E+02 -0.43629569179E+02  0.22972205768E+03  0.26708309115E+03  0.12509000000E+03 0.  0.
         25    1    1    2    0    0  0.11923759299E+02  0.25222935831E+02  0.10365986221E+03  0.16483703365E+03  0.12509000000E+03 0.  0.
<mgrwt>
<rscale>  2 0.40536462E+03</rscale>
<asrwt>0</asrwt>
<pdfrwt beam="1">  1       21 0.89998425E-01 0.40536462E+03</pdfrwt>
<pdfrwt beam="2">  1       21 0.98714048E-02 0.40536462E+03</pdfrwt>
<totfact> 0.81552002E+04</totfact>
</mgrwt>
</event>
<event>
 6    0  0.1284967E-004  0.3897209E+03  0.7546771E-02  0.1047398E+00
         21   -1    0    0  502  501  0.00000000000E+00  0.00000000000E+00  0.16375880730E+02  0.16375880730E+02  0.00000000000E+00 0. -1.
         21   -1    0    0  501  502 -0.00000000000E+00 -0.00000000000E+00 -0.23186903702E+04  0.23186903702E+04  0.00000000000E+00 0. -1.
      99925    2    1    2    0    0  0.92179257169E+01 -0.13817050897E+02 -0.15461801561E+04  0.15684747565E+04  0.26299069523E+03 0.  0.
         25    1    3    3    0    0  0.15017832176E+02 -0.14584862613E+02 -0.54884994580E+03  0.56331343372E+03  0.12509000000E+03 0.  0.
         25    1    3    3    0    0 -0.57999064593E+01  0.76781171601E+00 -0.99733021025E+03  0.10051613228E+04  0.12509000000E+03 0.  0.
         25    1    1    2    0    0 -0.92179257169E+01  0.13817050897E+02 -0.75613433337E+03  0.76659149438E+03  0.12509000000E+03 0.  0.
<mgrwt>
<rscale>  2 0.38972091E+03</rscale>
<asrwt>0</asrwt>
<pdfrwt beam="1">  1       21 0.24082176E-02 0.38972091E+03</pdfrwt>
<pdfrwt beam="2">  1       21 0.34098391E+00 0.38972091E+03</pdfrwt>
<totfact> 0.15450913E+04</totfact>
</mgrwt>
</event>
<event>
 6    0  0.1284967E-004  0.4159013E+03  0.7546771E-02  0.1038409E+00
         21   -1    0    0  502  501  0.00000000000E+00  0.00000000000E+00  0.19345858626E+03  0.19345858626E+03  0.00000000000E+00 0.  1.
         21   -1    0    0  501  502 -0.00000000000E+00 -0.00000000000E+00 -0.22352831343E+03  0.22352831343E+03  0.00000000000E+00 0.  1.
      99925    2    1    2    0    0  0.58716232980E+02 -0.34455726000E+02 -0.35438245506E+02  0.27446980541E+03  0.26352042002E+03 0.  0.
         25    1    1    2    0    0 -0.58716232980E+02  0.34455726000E+02  0.53685183365E+01  0.14251709427E+03  0.12509000000E+03 0.  0.
         25    1    3    3    0    0  0.46846814824E+02  0.19784329268E+02 -0.11357642177E+02  0.13550847900E+03  0.12509000000E+03 0.  0.
         25    1    3    3    0    0  0.11869418156E+02 -0.54240055268E+02 -0.24080603330E+02  0.13896132642E+03  0.12509000000E+03 0.  0.
<mgrwt>
<rscale>  2 0.41590129E+03</rscale>
<asrwt>0</asrwt>
<pdfrwt beam="1">  1       21 0.28449792E-01 0.41590129E+03</pdfrwt>
<pdfrwt beam="2">  1       21 0.32871811E-01 0.41590129E+03</pdfrwt>
<totfact> 0.98845839E+04</totfact>
</mgrwt>
</event>
<event>
 6    0  0.1284967E-004  0.5064691E+03  0.7546771E-02  0.1012104E+00
         21   -1    0    0  502  501  0.00000000000E+00  0.00000000000E+00  0.71755531656E+03  0.71755531656E+03  0.00000000000E+00 0.  1.
         21   -1    0    0  501  502 -0.00000000000E+00 -0.00000000000E+00 -0.89369762311E+02  0.89369762311E+02  0.00000000000E+00 0.  1.
      99925    2    1    2    0    0  0.50342252567E+02 -0.40810262366E+02  0.15264188982E+03  0.31095219173E+03  0.26304353081E+03 0.  0.
         25    1    1    2    0    0 -0.50342252567E+02  0.40810262366E+02  0.47554366442E+03  0.49597288714E+03  0.12509000000E+03 0.  0.
         25    1    3    3    0    0  0.51158920019E+02 -0.53020870545E+02  0.78944970080E+02  0.16525212317E+03  0.12509000000E+03 0.  0.
         25    1    3    3    0    0 -0.81666745180E+00  0.12210608180E+02  0.73696919743E+02  0.14570006856E+03  0.12509000000E+03 0.  0.
<mgrwt>
<rscale>  2 0.50646914E+03</rscale>
<asrwt>0</asrwt>
<pdfrwt beam="1">  1       21 0.10552284E+00 0.50646914E+03</pdfrwt>
<pdfrwt beam="2">  1       21 0.13142612E-01 0.50646914E+03</pdfrwt>
<totfact> 0.32281713E+04</totfact>
</mgrwt>
</event>
<event>
 6    0  0.1284967E-004  0.4298934E+03  0.7546771E-02  0.1033894E+00
         21   -1    0    0  502  501  0.00000000000E+00  0.00000000000E+00  0.86620043646E+02  0.86620043646E+02  0.00000000000E+00 0.  1.
         21   -1    0    0  501  502 -0.00000000000E+00 -0.00000000000E+00 -0.53338782449E+03  0.53338782449E+03  0.00000000000E+00 0.  1.
      99925    2    1    2    0    0  0.52966048996E+02  0.45346227357E+02 -0.36415171055E+03  0.45467606281E+03  0.26317707178E+03 0.  0.
         25    1    3    3    0    0  0.64862258411E+01  0.45085988299E+02 -0.22808182191E+03  0.26409021764E+03  0.12509000000E+03 0.  0.
         25    1    3    3    0    0  0.46479823155E+02  0.26023905807E+00 -0.13606988864E+03  0.19058584517E+03  0.12509000000E+03 0.  0.
         25    1    1    2    0    0 -0.52966048996E+02 -0.45346227357E+02 -0.82616070294E+02  0.16533180533E+03  0.12509000000E+03 0.  0.
<mgrwt>
<rscale>  2 0.42989337E+03</rscale>
<asrwt>0</asrwt>
<pdfrwt beam="1">  1       21 0.12738243E-01 0.42989337E+03</pdfrwt>
<pdfrwt beam="2">  1       21 0.78439380E-01 0.42989337E+03</pdfrwt>
<totfact> 0.70416475E+04</totfact>
</mgrwt>
</event>
<event>
 6    0  0.1284967E-004  0.3985954E+03  0.7546771E-02  0.1044267E+00
         21   -1    0    0  502  501  0.00000000000E+00  0.00000000000E+00  0.10506173657E+04  0.10506173657E+04  0.00000000000E+00 0. -1.
         21   -1    0    0  501  502 -0.00000000000E+00 -0.00000000000E+00 -0.37805934195E+02  0.37805934195E+02  0.00000000000E+00 0. -1.
      99925    2    1    2    0    0 -0.25522050233E+02  0.29618389709E+02  0.62409419838E+03  0.67820723550E+03  0.26256972746E+03 0.  0.
         25    1    3    3    0    0 -0.69657508994E+01 -0.15334167699E+00  0.21344188137E+03  0.24749442423E+03  0.12509000000E+03 0.  0.
         25    1    1    2    0    0  0.25522050233E+02 -0.29618389709E+02  0.38871723313E+03  0.41021606440E+03  0.12509000000E+03 0.  0.
         25    1    3    3    0    0 -0.18556299333E+02  0.29771731386E+02  0.41065231701E+03  0.43071281128E+03  0.12509000000E+03 0.  0.
<mgrwt>
<rscale>  2 0.39859539E+03</rscale>
<asrwt>0</asrwt>
<pdfrwt beam="1">  1       21 0.15450253E+00 0.39859539E+03</pdfrwt>
<pdfrwt beam="2">  1       21 0.55596969E-02 0.39859539E+03</pdfrwt>
<totfact> 0.57234185E+04</totfact>
</mgrwt>
</event>
<event>
 6    0  0.1284967E-004  0.3952593E+03  0.7546771E-02  0.1045434E+00
         21   -1    0    0  502  501  0.00000000000E+00  0.00000000000E+00  0.49753641305E+02  0.49753641305E+02  0.00000000000E+00 0.  1.
         21   -1    0    0  501  502 -0.00000000000E+00 -0.00000000000E+00 -0.78501731281E+03  0.78501731281E+03  0.00000000000E+00 0.  1.
      99925    2    1    2    0    0 -0.18915581928E+02 -0.17936627577E+02 -0.54170971093E+03  0.60284388454E+03  0.26323338762E+03 0.  0.
         25    1    3    3    0    0 -0.49558554310E+02 -0.33741011059E+01 -0.29076763290E+03  0.32040717736E+03  0.12509000000E+03 0.  0.
         25    1    3    3    0    0  0.30642972382E+02 -0.14562526471E+02 -0.25094207803E+03  0.28243670718E+03  0.12509000000E+03 0.  0.
         25    1    1    2    0    0  0.18915581928E+02  0.17936627577E+02 -0.19355396057E+03  0.23192706958E+03  0.12509000000E+03 0.  0.
<mgrwt>
<rscale>  2 0.39525926E+03</rscale>
<asrwt>0</asrwt>
<pdfrwt beam="1">  1       21 0.73167113E-02 0.39525926E+03</pdfrwt>
<pdfrwt beam="2">  1       21 0.11544373E+00 0.39525926E+03</pdfrwt>
<totfact> 0.75937663E+04</totfact>
</mgrwt>
</event>
<event>
 6    0  0.1284967E-004  0.4042438E+03  0.7546771E-02  0.1042320E+00
         21   -1    0    0  502  501  0.00000000000E+00  0.00000000000E+00  0.44698163424E+03  0.44698163424E+03  0.00000000000E+00 0. -1.
         21   -1    0    0  501  502 -0.00000000000E+00 -0.00000000000E+00 -0.91398091740E+02  0.91398091740E+02  0.00000000000E+00 0. -1.
      99925    2    1    2    0    0 -0.38850451370E+02  0.14838447712E+02  0.28030182393E+03  0.38657596334E+03  0.26294928376E+03 0.  0.
         25    1    1    2    0    0  0.38850451370E+02 -0.14838447712E+02  0.75281718569E+02  0.15180376264E+03  0.12509000000E+03 0.  0.
         25    1    3    3    0    0 -0.24307685693E+02 -0.27340091704E+02  0.16817522348E+03  0.21276456023E+03  0.12509000000E+03 0.  0.
         25    1    3    3    0    0 -0.14542765677E+02  0.42178539416E+02  0.11212660045E+03  0.17381140311E+03  0.12509000000E+03 0.  0.
<mgrwt>
<rscale>  2 0.40424383E+03</rscale>
<asrwt>0</asrwt>
<pdfrwt beam="1">  1       21 0.65732593E-01 0.40424383E+03</pdfrwt>
<pdfrwt beam="2">  1       21 0.13440896E-01 0.40424383E+03</pdfrwt>
<totfact> 0.95655227E+04</totfact>
</mgrwt>
</event>
<event>
 6    0  0.1284967E-004  0.4125500E+03  0.7546771E-02  0.1039519E+00
         21   -1    0    0  502  501  0.00000000000E+00  0.00000000000E+00  0.15541234572E+04  0.15541234572E+04  0.00000000000E+00 0. -1.
         21   -1    0    0  501  502 -0.00000000000E+00 -0.00000000000E+00 -0.27378380487E+02  0.27378380487E+02  0.00000000000E+00 0. -1.
      99925    2    1    2    0    0  0.28026440274E+02  0.50242445609E+02  0.88121514576E+03  0.92145169978E+03  0.26310324440E+03 0.  0.
         25    1    3    3    0    0  0.45472951963E+02  0.51988933382E+02  0.45429671728E+03  0.47623907230E+03  0.12509000000E+03 0.  0.
         25    1    1    2    0    0 -0.28026440274E+02 -0.50242445609E+02  0.64552993093E+03  0.66005013788E+03  0.12509000000E+03 0.  0.
         25    1    3    3    0    0 -0.17446511689E+02 -0.17464877734E+01  0.42691842849E+03  0.44521262748E+03  0.12509000000E+03 0.  0.
<mgrwt>
<rscale>  2 0.41255004E+03</rscale>
<asrwt>0</asrwt>
<pdfrwt beam="1">  1       21 0.22854751E+00 0.41255004E+03</pdfrwt>
<pdfrwt beam="2">  1       21 0.40262335E-02 0.41255004E+03</pdfrwt>
<totfact> 0.30828614E+04</totfact>
</mgrwt>
</event>
<event>
 6    0  0.1284967E-004  0.4072515E+03  0.7546771E-02  0.1041297E+00
         21   -1    0    0  502  501  0.00000000000E+00  0.00000000000E+00  0.87458601016E+02  0.87458601016E+02  0.00000000000E+00 0. -1.
         21   -1    0    0  501  502 -0.00000000000E+00 -0.00000000000E+00 -0.47409231285E+03  0.47409231285E+03  0.00000000000E+00 0. -1.
      99925    2    1    2    0    0  0.25622367962E+02 -0.59845599205E+01 -0.18378497421E+03  0.32178553031E+03  0.26282444725E+03 0.  0.
         25    1    3    3    0    0 -0.16568369598E+01  0.33675370513E+02 -0.10073350809E+03  0.16410826743E+03  0.12509000000E+03 0.  0.
         25    1    3    3    0    0  0.27279204922E+02 -0.39659930433E+02 -0.83051466122E+02  0.15767726288E+03  0.12509000000E+03 0.  0.
         25    1    1    2    0    0 -0.25622367962E+02  0.59845599205E+01 -0.20284873763E+03  0.23976538356E+03  0.12509000000E+03 0.  0.
<mgrwt>
<rscale>  2 0.40725152E+03</rscale>
<asrwt>0</asrwt>
<pdfrwt beam="1">  1       21 0.12861559E-01 0.40725152E+03</pdfrwt>
<pdfrwt beam="2">  1       21 0.69719459E-01 0.40725152E+03</pdfrwt>
<totfact> 0.90861263E+04</totfact>
</mgrwt>
</event>
<event>
 6    0  0.1284967E-004  0.4150766E+03  0.7546771E-02  0.1038681E+00
         21   -1    0    0  502  501  0.00000000000E+00  0.00000000000E+00  0.40536075661E+02  0.40536075661E+02  0.00000000000E+00 0.  1.
         21   -1    0    0  501  502 -0.00000000000E+00 -0.00000000000E+00 -0.10625633514E+04  0.10625633514E+04  0.00000000000E+00 0.  1.
      99925    2    1    2    0    0  0.63246498735E+02 -0.15370779612E+02 -0.73370887445E+03  0.78214555329E+03  0.26303340779E+03 0.  0.
         25    1    1    2    0    0 -0.63246498735E+02  0.15370779612E+02 -0.28831840130E+03  0.32095387378E+03  0.12509000000E+03 0.  0.
         25    1    3    3    0    0  0.22816543885E+02 -0.88483043334E+01 -0.47599181823E+03  0.49276222084E+03  0.12509000000E+03 0.  0.
         25    1    3    3    0    0  0.40429954850E+02 -0.65224752785E+01 -0.25771705622E+03  0.28938333245E+03  0.12509000000E+03 0.  0.
<mgrwt>
<rscale>  2 0.41507661E+03</rscale>
<asrwt>0</asrwt>
<pdfrwt beam="1">  1       21 0.59611882E-02 0.41507661E+03</pdfrwt>
<pdfrwt beam="2">  1       21 0.15625930E+00 0.41507661E+03</pdfrwt>
<totfact> 0.48936773E+04</totfact>
</mgrwt>
</event>
<event>
 6    0  0.1284967E-004  0.4171687E+03  0.7546771E-02  0.1037992E+00
         21   -1    0    0  502  501  0.00000000000E+00  0.00000000000E+00  0.26629471217E+03  0.26629471217E+03  0.00000000000E+00 0. -1.
         21   -1    0    0  501  502 -0.00000000000E+00 -0.00000000000E+00 -0.16338071960E+03  0.16338071960E+03  0.00000000000E+00 0. -1.
      99925    2    1    2    0    0 -0.63865992881E+02 -0.24825145327E+02  0.90641730579E+02  0.28652072733E+03  0.26302671153E+03 0.  0.
         25    1    3    3    0    0 -0.55613221666E+02 -0.44930903074E+01  0.12806189109E+02  0.13756643800E+03  0.12509000000E+03 0.  0.
         25    1    1    2    0    0  0.63865992881E+02  0.24825145327E+02  0.12272261988E+02  0.14315470443E+03  0.12509000000E+03 0.  0.
         25    1    3    3    0    0 -0.82527712150E+01 -0.20332055020E+02  0.77835541470E+02  0.14895428933E+03  0.12509000000E+03 0.  0.
<mgrwt>
<rscale>  2 0.41716866E+03</rscale>
<asrwt>0</asrwt>
<pdfrwt beam="1">  1       21 0.39160987E-01 0.41716866E+03</pdfrwt>
<pdfrwt beam="2">  1       21 0.24026576E-01 0.41716866E+03</pdfrwt>
<totfact> 0.96390318E+04</totfact>
</mgrwt>
</event>
<event>
 6    0  0.1284967E-004  0.4461868E+03  0.7546771E-02  0.1028865E+00
         21   -1    0    0  502  501  0.00000000000E+00  0.00000000000E+00  0.21992571771E+03  0.21992571771E+03  0.00000000000E+00 0.  1.
         21   -1    0    0  501  502 -0.00000000000E+00 -0.00000000000E+00 -0.22630666636E+03  0.22630666636E+03  0.00000000000E+00 0.  1.
      99925    2    1    2    0    0 -0.41499716488E+02  0.93586154130E+02  0.18024962005E+02  0.28275837608E+03  0.26295780131E+03 0.  0.
         25    1    3    3    0    0 -0.23778331297E+02  0.89754664353E+02  0.94750010570E+01  0.15607239524E+03  0.12509000000E+03 0.  0.
         25    1    1    2    0    0  0.41499716488E+02 -0.93586154130E+02 -0.24405910660E+02  0.16347400799E+03  0.12509000000E+03 0.  0.
         25    1    3    3    0    0 -0.17721385190E+02  0.38314897774E+01  0.85499609484E+01  0.12668598083E+03  0.12509000000E+03 0.  0.
<mgrwt>
<rscale>  2 0.44618676E+03</rscale>
<asrwt>0</asrwt>
<pdfrwt beam="1">  1       21 0.32342018E-01 0.44618676E+03</pdfrwt>
<pdfrwt beam="2">  1       21 0.33280392E-01 0.44618676E+03</pdfrwt>
<totfact> 0.74280556E+04</totfact>
</mgrwt>
</event>
<event>
 6    0  0.1284967E-004  0.5783569E+03  0.7546771E-02  0.9951355E-01
         21   -1    0    0  502  501  0.00000000000E+00  0.00000000000E+00  0.64057248189E+03  0.64057248189E+03  0.00000000000E+00 0.  1.
         21   -1    0    0  501  502 -0.00000000000E+00 -0.00000000000E+00 -0.13054598232E+03  0.13054598232E+03  0.00000000000E+00 0.  1.
      99925    2    1    2    0    0 -0.18699289288E+03 -0.51668429792E+02  0.19483930412E+03  0.38044411786E+03  0.26294372736E+03 0.  0.
         25    1    3    3    0    0 -0.58577896906E+02 -0.16454969147E+02  0.51879189497E+02  0.14846243437E+03  0.12509000000E+03 0.  0.
         25    1    3    3    0    0 -0.12841499597E+03 -0.35213460645E+02  0.14296011462E+03  0.23198168349E+03  0.12509000000E+03 0.  0.
         25    1    1    2    0    0  0.18699289288E+03  0.51668429792E+02  0.31518719545E+03  0.39067434635E+03  0.12509000000E+03 0.  0.
<mgrwt>
<rscale>  2 0.57835686E+03</rscale>
<asrwt>0</asrwt>
<pdfrwt beam="1">  1       21 0.94201835E-01 0.57835686E+03</pdfrwt>
<pdfrwt beam="2">  1       21 0.19197939E-01 0.57835686E+03</pdfrwt>
<totfact> 0.20636100E+04</totfact>
</mgrwt>
</event>
<event>
 6    0  0.1284967E-004  0.4411678E+03  0.7546771E-02  0.1030389E+00
         21   -1    0    0  502  501  0.00000000000E+00  0.00000000000E+00  0.15718247760E+03  0.15718247760E+03  0.00000000000E+00 0. -1.
         21   -1    0    0  501  502 -0.00000000000E+00 -0.00000000000E+00 -0.30955897528E+03  0.30955897528E+03  0.00000000000E+00 0. -1.
      99925    2    1    2    0    0 -0.10400973515E+02  0.75080830573E+02 -0.28726794162E+02  0.27521581843E+03  0.26300799730E+03 0.  0.
         25    1    1    2    0    0  0.10400973515E+02 -0.75080830573E+02 -0.12364970352E+03  0.19152563445E+03  0.12509000000E+03 0.  0.
         25    1    3    3    0    0 -0.42341640177E+02  0.33898349701E+02  0.15940490130E+01  0.13635234394E+03  0.12509000000E+03 0.  0.
         25    1    3    3    0    0  0.31940666662E+02  0.41182480872E+02 -0.30320843175E+02  0.13886347449E+03  0.12509000000E+03 0.  0.
<mgrwt>
<rscale>  2 0.44116775E+03</rscale>
<asrwt>0</asrwt>
<pdfrwt beam="1">  1       21 0.23115070E-01 0.44116775E+03</pdfrwt>
<pdfrwt beam="2">  1       21 0.45523379E-01 0.44116775E+03</pdfrwt>
<totfact> 0.75647483E+04</totfact>
</mgrwt>
</event>
<event>
 6    0  0.1284967E-004  0.4198441E+03  0.7546771E-02  0.1037117E+00
         21   -1    0    0  502  501  0.00000000000E+00  0.00000000000E+00  0.19429719246E+03  0.19429719246E+03  0.00000000000E+00 0. -1.
         21   -1    0    0  501  502 -0.00000000000E+00 -0.00000000000E+00 -0.22680344379E+03  0.22680344379E+03  0.00000000000E+00 0. -1.
      99925    2    1    2    0    0  0.58024727217E+02  0.26968397329E+01  0.27365642290E+02  0.27074674153E+03  0.26302239022E+03 0.  0.
         25    1    1    2    0    0 -0.58024727217E+02 -0.26968397329E+01 -0.59871893622E+02  0.15035389472E+03  0.12509000000E+03 0.  0.
         25    1    3    3    0    0  0.36077445658E+02  0.38740479685E+02  0.28203705441E+02  0.13872766109E+03  0.12509000000E+03 0.  0.
         25    1    3    3    0    0  0.21947281558E+02 -0.36043639952E+02 -0.83806315108E+00  0.13201908043E+03  0.12509000000E+03 0.  0.
<mgrwt>
<rscale>  2 0.41984413E+03</rscale>
<asrwt>0</asrwt>
<pdfrwt beam="1">  1       21 0.28573117E-01 0.41984413E+03</pdfrwt>
<pdfrwt beam="2">  1       21 0.33353448E-01 0.41984413E+03</pdfrwt>
<totfact> 0.95111806E+04</totfact>
</mgrwt>
</event>
<event>
 6    0  0.1284967E-004  0.3966992E+03  0.7546771E-02  0.1044929E+00
         21   -1    0    0  502  501  0.00000000000E+00  0.00000000000E+00  0.81702771773E+02  0.81702771773E+02  0.00000000000E+00 0.  1.
         21   -1    0    0  501  502 -0.00000000000E+00 -0.00000000000E+00 -0.48153275972E+03  0.48153275972E+03  0.00000000000E+00 0.  1.
      99925    2    1    2    0    0  0.18864477063E+02  0.34164619234E+02 -0.26724079601E+03  0.37682069404E+03  0.26277957056E+03 0.  0.
         25    1    1    2    0    0 -0.18864477063E+02 -0.34164619234E+02 -0.13258919194E+03  0.18641483745E+03  0.12509000000E+03 0.  0.
         25    1    3    3    0    0 -0.94346349955E+01 -0.81154834181E+01 -0.92965542363E+02  0.15634888415E+03  0.12509000000E+03 0.  0.
         25    1    3    3    0    0  0.28299112059E+02  0.42280102652E+02 -0.17427525364E+03  0.22047180989E+03  0.12509000000E+03 0.  0.
<mgrwt>
<rscale>  2 0.39669919E+03</rscale>
<asrwt>0</asrwt>
<pdfrwt beam="1">  1       21 0.12015114E-01 0.39669919E+03</pdfrwt>
<pdfrwt beam="2">  1       21 0.70813639E-01 0.39669919E+03</pdfrwt>
<totfact> 0.99552897E+04</totfact>
</mgrwt>
</event>
<event>
 6    0  0.1284967E-004  0.4878512E+03  0.7546771E-02  0.1016999E+00
         21   -1    0    0  502  501  0.00000000000E+00  0.00000000000E+00  0.14900419888E+03  0.14900419888E+03  0.00000000000E+00 0. -1.
         21   -1    0    0  501  502 -0.00000000000E+00 -0.00000000000E+00 -0.39931563821E+03  0.39931563821E+03  0.00000000000E+00 0. -1.
      99925    2    1    2    0    0  0.76018008019E+02 -0.91322869870E+01 -0.28737099092E+03  0.39704837689E+03  0.26306499380E+03 0.  0.
         25    1    3    3    0    0  0.64372725129E+02 -0.25718197643E+02 -0.18685214846E+03  0.23530088592E+03  0.12509000000E+03 0.  0.
         25    1    3    3    0    0  0.11645282890E+02  0.16585910656E+02 -0.10051884245E+03  0.16174749097E+03  0.12509000000E+03 0.  0.
         25    1    1    2    0    0 -0.76018008019E+02  0.91322869870E+01  0.37059551584E+02  0.15127146020E+03  0.12509000000E+03 0.  0.
<mgrwt>
<rscale>  2 0.48785123E+03</rscale>
<asrwt>0</asrwt>
<pdfrwt beam="1">  1       21 0.21912383E-01 0.48785123E+03</pdfrwt>
<pdfrwt beam="2">  1       21 0.58722887E-01 0.48785123E+03</pdfrwt>
<totfact> 0.48165471E+04</totfact>
</mgrwt>
</event>
<event>
 6    0  0.1284967E-004  0.4034217E+03  0.7546771E-02  0.1042601E+00
         21   -1    0    0  502  501  0.00000000000E+00  0.00000000000E+00  0.17791934065E+03  0.17791934065E+03  0.00000000000E+00 0.  1.
         21   -1    0    0  501  502 -0.00000000000E+00 -0.00000000000E+00 -0.22868373963E+03  0.22868373963E+03  0.00000000000E+00 0.  1.
      99925    2    1    2    0    0  0.47071165731E+02  0.61174549081E+01 -0.54939747977E+02  0.27274472404E+03  0.26290338660E+03 0.  0.
         25    1    3    3    0    0  0.49997417195E+02 -0.18797565588E+02 -0.61588429061E+01  0.13615626921E+03  0.12509000000E+03 0.  0.
         25    1    1    2    0    0 -0.47071165731E+02 -0.61174549081E+01  0.41753489954E+01  0.13385835625E+03  0.12509000000E+03 0.  0.
         25    1    3    3    0    0 -0.29262514639E+01  0.24915020496E+02 -0.48780905071E+02  0.13658845483E+03  0.12509000000E+03 0.  0.
<mgrwt>
<rscale>  2 0.40342167E+03</rscale>
<asrwt>0</asrwt>
<pdfrwt beam="1">  1       21 0.26164609E-01 0.40342167E+03</pdfrwt>
<pdfrwt beam="2">  1       21 0.33629961E-01 0.40342167E+03</pdfrwt>
<totfact> 0.11155223E+05</totfact>
</mgrwt>
</event>
<event>
 6    0  0.1284967E-004  0.4335305E+03  0.7546771E-02  0.1032750E+00
         21   -1    0    0  502  501  0.00000000000E+00  0.00000000000E+00  0.32574057397E+02  0.32574057397E+02  0.00000000000E+00 0. -1.
         21   -1    0    0  501  502 -0.00000000000E+00 -0.00000000000E+00 -0.14424723318E+04  0.14424723318E+04  0.00000000000E+00 0. -1.
      99925    2    1    2    0    0  0.73575748400E+02 -0.64613868912E+01 -0.72128453176E+03  0.77127687087E+03  0.26298573251E+03 0.  0.
         25    1    3    3    0    0  0.64203230667E+01 -0.24783426707E+01 -0.25977175404E+03  0.28840290398E+03  0.12509000000E+03 0.  0.
         25    1    1    2    0    0 -0.73575748400E+02  0.64613868912E+01 -0.68861374264E+03  0.70376951833E+03  0.12509000000E+03 0.  0.
         25    1    3    3    0    0  0.67155425333E+02 -0.39830442205E+01 -0.46151277772E+03  0.48287396688E+03  0.12509000000E+03 0.  0.
<mgrwt>
<rscale>  2 0.43353051E+03</rscale>
<asrwt>0</asrwt>
<pdfrwt beam="1">  1       21 0.47903026E-02 0.43353051E+03</pdfrwt>
<pdfrwt beam="2">  1       21 0.21212828E+00 0.43353051E+03</pdfrwt>
<totfact> 0.28929876E+04</totfact>
</mgrwt>
</event>
<event>
 6    0  0.1284967E-004  0.4206249E+03  0.7546771E-02  0.1036863E+00
         21   -1    0    0  502  501  0.00000000000E+00  0.00000000000E+00  0.15514555844E+03  0.15514555844E+03  0.00000000000E+00 0.  1.
         21   -1    0    0  501  502 -0.00000000000E+00 -0.00000000000E+00 -0.28509565464E+03  0.28509565464E+03  0.00000000000E+00 0.  1.
      99925    2    1    2    0    0 -0.58348087123E+02 -0.20530925382E+00 -0.32492259160E+02  0.27127352528E+03  0.26292401409E+03 0.  0.
         25    1    1    2    0    0  0.58348087123E+02  0.20530925382E+00 -0.97457837035E+02  0.16896768781E+03  0.12509000000E+03 0.  0.
         25    1    3    3    0    0 -0.27510405685E+02 -0.30634958994E+02 -0.42852451085E+02  0.13848885803E+03  0.12509000000E+03 0.  0.
         25    1    3    3    0    0 -0.30837681438E+02  0.30429649740E+02  0.10360191925E+02  0.13278466725E+03  0.12509000000E+03 0.  0.
<mgrwt>
<rscale>  2 0.42062489E+03</rscale>
<asrwt>0</asrwt>
<pdfrwt beam="1">  1       21 0.22815524E-01 0.42062489E+03</pdfrwt>
<pdfrwt beam="2">  1       21 0.41925831E-01 0.42062489E+03</pdfrwt>
<totfact> 0.92473452E+04</totfact>
</mgrwt>
</event>
<event>
 6    0  0.1284967E-004  0.4187698E+03  0.7546771E-02  0.1037467E+00
         21   -1    0    0  502  501  0.00000000000E+00  0.00000000000E+00  0.52541972077E+03  0.52541972077E+03  0.00000000000E+00 0. -1.
         21   -1    0    0  501  502 -0.00000000000E+00 -0.00000000000E+00 -0.83441915515E+02  0.83441915515E+02  0.00000000000E+00 0. -1.
      99925    2    1    2    0    0 -0.60293336139E+02  0.42615311084E+02  0.29341156391E+03  0.40108582612E+03  0.26330237932E+03 0.  0.
         25    1    3    3    0    0 -0.59584266445E+02 -0.65747179444E+01  0.15886109683E+03  0.21089776649E+03  0.12509000000E+03 0.  0.
         25    1    1    2    0    0  0.60293336139E+02 -0.42615311084E+02  0.14856624134E+03  0.20777581016E+03  0.12509000000E+03 0.  0.
         25    1    3    3    0    0 -0.70906969416E+00  0.49190029029E+02  0.13455046709E+03  0.19018805964E+03  0.12509000000E+03 0.  0.
<mgrwt>
<rscale>  2 0.41876976E+03</rscale>
<asrwt>0</asrwt>
<pdfrwt beam="1">  1       21 0.77267605E-01 0.41876976E+03</pdfrwt>
<pdfrwt beam="2">  1       21 0.12270870E-01 0.41876976E+03</pdfrwt>
<totfact> 0.78225719E+04</totfact>
</mgrwt>
</event>
<event>
 6    0  0.1284967E-004  0.4263228E+03  0.7546771E-02  0.1035028E+00
         21   -1    0    0  502  501  0.00000000000E+00  0.00000000000E+00  0.18852487496E+03  0.18852487496E+03  0.00000000000E+00 0. -1.
         21   -1    0    0  501  502 -0.00000000000E+00 -0.00000000000E+00 -0.24101742876E+03  0.24101742876E+03  0.00000000000E+00 0. -1.
      99925    2    1    2    0    0  0.50052991855E+02  0.58305960417E+02 -0.11012222528E+01  0.27399982054E+03  0.26300152462E+03 0.  0.
         25    1    3    3    0    0 -0.95681626476E+01  0.12926572591E+02 -0.17255391439E+02  0.12729455074E+03  0.12509000000E+03 0.  0.
         25    1    3    3    0    0  0.59621154502E+02  0.45379387825E+02  0.16154169187E+02  0.14670526980E+03  0.12509000000E+03 0.  0.
         25    1    1    2    0    0 -0.50052991855E+02 -0.58305960417E+02 -0.51391331550E+02  0.15554248317E+03  0.12509000000E+03 0.  0.
<mgrwt>
<rscale>  2 0.42632279E+03</rscale>
<asrwt>0</asrwt>
<pdfrwt beam="1">  1       21 0.27724247E-01 0.42632279E+03</pdfrwt>
<pdfrwt beam="2">  1       21 0.35443739E-01 0.42632279E+03</pdfrwt>
<totfact> 0.89174266E+04</totfact>
</mgrwt>
</event>
<event>
 6    0  0.1284967E-004  0.4413422E+03  0.7546771E-02  0.1030336E+00
         21   -1    0    0  502  501  0.00000000000E+00  0.00000000000E+00  0.67228499319E+03  0.67228499319E+03  0.00000000000E+00 0. -1.
         21   -1    0    0  501  502 -0.00000000000E+00 -0.00000000000E+00 -0.72433165414E+02  0.72433165414E+02  0.00000000000E+00 0. -1.
      99925    2    1    2    0    0  0.19600180154E+02  0.88041513041E+02  0.45461812821E+03  0.53287904354E+03  0.26295809071E+03 0.  0.
         25    1    3    3    0    0 -0.24308548282E+02  0.64994561767E+02  0.22016752642E+03  0.26255751059E+03  0.12509000000E+03 0.  0.
         25    1    3    3    0    0  0.43908728435E+02  0.23046951274E+02  0.23445060179E+03  0.27032153295E+03  0.12509000000E+03 0.  0.
         25    1    1    2    0    0 -0.19600180154E+02 -0.88041513041E+02  0.14523369957E+03  0.21183911506E+03  0.12509000000E+03 0.  0.
<mgrwt>
<rscale>  2 0.44134218E+03</rscale>
<asrwt>0</asrwt>
<pdfrwt beam="1">  1       21 0.98865437E-01 0.44134218E+03</pdfrwt>
<pdfrwt beam="2">  1       21 0.10651936E-01 0.44134218E+03</pdfrwt>
<totfact> 0.56351804E+04</totfact>
</mgrwt>
</event>
<event>
 6    0  0.1284967E-004  0.3957879E+03  0.7546771E-02  0.1045248E+00
         21   -1    0    0  502  501  0.00000000000E+00  0.00000000000E+00  0.57595874763E+03  0.57595874763E+03  0.00000000000E+00 0. -1.
         21   -1    0    0  501  502 -0.00000000000E+00 -0.00000000000E+00 -0.67994463459E+02  0.67994463459E+02  0.00000000000E+00 0. -1.
      99925    2    1    2    0    0  0.84034839953E+01 -0.32695993614E+02  0.36289225101E+03  0.44944601470E+03  0.26300434929E+03 0.  0.
         25    1    3    3    0    0  0.44471442761E+02 -0.20308465833E+02  0.17821560353E+03  0.22315566864E+03  0.12509000000E+03 0.  0.
         25    1    3    3    0    0 -0.36067958766E+02 -0.12387527781E+02  0.18467664749E+03  0.22629034606E+03  0.12509000000E+03 0.  0.
         25    1    1    2    0    0 -0.84034839953E+01  0.32695993614E+02  0.14507203315E+03  0.19450719638E+03  0.12509000000E+03 0.  0.
<mgrwt>
<rscale>  2 0.39578785E+03</rscale>
<asrwt>0</asrwt>
<pdfrwt beam="1">  1       21 0.84699813E-01 0.39578785E+03</pdfrwt>
<pdfrwt beam="2">  1       21 0.99991861E-02 0.39578785E+03</pdfrwt>
<totfact> 0.92083655E+04</totfact>
</mgrwt>
</event>
<event>
 6    0  0.1284967E-004  0.3984420E+03  0.7546771E-02  0.1044320E+00
         21   -1    0    0  502  501  0.00000000000E+00  0.00000000000E+00  0.16547051173E+04  0.16547051173E+04  0.00000000000E+00 0.  1.
         21   -1    0    0  501  502 -0.00000000000E+00 -0.00000000000E+00 -0.23985546297E+02  0.23985546297E+02  0.00000000000E+00 0.  1.
      99925    2    1    2    0    0  0.31848495865E+02 -0.24617124663E+02  0.11460448641E+04  0.11765179751E+04  0.26297411576E+03 0.  0.
         25    1    3    3    0    0  0.49401429053E+02  0.96814337099E+01  0.60982090006E+03  0.62455045401E+03  0.12509000000E+03 0.  0.
         25    1    1    2    0    0 -0.31848495865E+02  0.24617124663E+02  0.48467470689E+03  0.50217268854E+03  0.12509000000E+03 0.  0.
         25    1    3    3    0    0 -0.17552933188E+02 -0.34298558373E+02  0.53622396405E+03  0.55196752104E+03  0.12509000000E+03 0.  0.
<mgrwt>
<rscale>  2 0.39844200E+03</rscale>
<asrwt>0</asrwt>
<pdfrwt beam="1">  1       21 0.24333891E+00 0.39844200E+03</pdfrwt>
<pdfrwt beam="2">  1       21 0.35272873E-02 0.39844200E+03</pdfrwt>
<totfact> 0.31398811E+04</totfact>
</mgrwt>
</event>
<event>
 6    0  0.1284967E-004  0.4359797E+03  0.7546771E-02  0.1031988E+00
         21   -1    0    0  502  501  0.00000000000E+00  0.00000000000E+00  0.21125655585E+03  0.21125655585E+03  0.00000000000E+00 0.  1.
         21   -1    0    0  501  502 -0.00000000000E+00 -0.00000000000E+00 -0.22493775778E+03  0.22493775778E+03  0.00000000000E+00 0.  1.
      99925    2    1    2    0    0  0.69318199304E+02 -0.60824793138E+02  0.10143692066E+02  0.27896899160E+03  0.26308959609E+03 0.  0.
         25    1    3    3    0    0  0.74339916348E+02 -0.40166077028E+02 -0.59313231215E+01  0.15107092904E+03  0.12509000000E+03 0.  0.
         25    1    3    3    0    0 -0.50217170438E+01 -0.20658716110E+02  0.16075015187E+02  0.12789806256E+03  0.12509000000E+03 0.  0.
         25    1    1    2    0    0 -0.69318199304E+02  0.60824793138E+02 -0.23824893999E+02  0.15722532204E+03  0.12509000000E+03 0.  0.
<mgrwt>
<rscale>  2 0.43597971E+03</rscale>
<asrwt>0</asrwt>
<pdfrwt beam="1">  1       21 0.31067141E-01 0.43597971E+03</pdfrwt>
<pdfrwt beam="2">  1       21 0.33079082E-01 0.43597971E+03</pdfrwt>
<totfact> 0.81651692E+04</totfact>
</mgrwt>
</event>
<event>
 6    0  0.1284967E-004  0.4445697E+03  0.7546771E-02  0.1029354E+00
         21   -1    0    0  502  501  0.00000000000E+00  0.00000000000E+00  0.57776424507E+03  0.57776424507E+03  0.00000000000E+00 0. -1.
         21   -1    0    0  501  502 -0.00000000000E+00 -0.00000000000E+00 -0.85520254569E+02  0.85520254569E+02  0.00000000000E+00 0. -1.
      99925    2    1    2    0    0 -0.45438323705E+02  0.41955859359E+02  0.43584239978E+03  0.51277342719E+03  0.26296968416E+03 0.  0.
         25    1    3    3    0    0 -0.54525906750E+02  0.54204271228E+01  0.26041057325E+03  0.29404698655E+03  0.12509000000E+03 0.  0.
         25    1    3    3    0    0  0.90875830448E+01  0.36535432236E+02  0.17543182653E+03  0.21872644064E+03  0.12509000000E+03 0.  0.
         25    1    1    2    0    0  0.45438323705E+02 -0.41955859359E+02  0.56401590720E+02  0.15051107245E+03  0.12509000000E+03 0.  0.
<mgrwt>
<rscale>  2 0.44456966E+03</rscale>
<asrwt>0</asrwt>
<pdfrwt beam="1">  1       21 0.84965328E-01 0.44456966E+03</pdfrwt>
<pdfrwt beam="2">  1       21 0.12576508E-01 0.44456966E+03</pdfrwt>
<totfact> 0.59699964E+04</totfact>
</mgrwt>
</event>
<event>
 6    0  0.1284967E-004  0.4163047E+03  0.7546771E-02  0.1038276E+00
         21   -1    0    0  502  501  0.00000000000E+00  0.00000000000E+00  0.23767549409E+03  0.23767549409E+03  0.00000000000E+00 0.  1.
         21   -1    0    0  501  502 -0.00000000000E+00 -0.00000000000E+00 -0.18229641783E+03  0.18229641783E+03  0.00000000000E+00 0.  1.
      99925    2    1    2    0    0  0.36039033973E+02 -0.51017528224E+02  0.70509514718E+02  0.27933749784E+03  0.26297575150E+03 0.  0.
         25    1    3    3    0    0  0.37717329278E+02 -0.34889941392E+02  0.71975779837E+02  0.15319244734E+03  0.12509000000E+03 0.  0.
         25    1    1    2    0    0 -0.36039033973E+02  0.51017528224E+02 -0.15130438464E+02  0.14063441408E+03  0.12509000000E+03 0.  0.
         25    1    3    3    0    0 -0.16782953047E+01 -0.16127586832E+02 -0.14662651196E+01  0.12614505050E+03  0.12509000000E+03 0.  0.
<mgrwt>
<rscale>  2 0.41630465E+03</rscale>
<asrwt>0</asrwt>
<pdfrwt beam="1">  1       21 0.34952278E-01 0.41630465E+03</pdfrwt>
<pdfrwt beam="2">  1       21 0.26808297E-01 0.41630465E+03</pdfrwt>
<totfact> 0.98174423E+04</totfact>
</mgrwt>
</event>
<event>
 6    0  0.1284967E-004  0.4569811E+03  0.7546771E-02  0.1025660E+00
         21   -1    0    0  502  501  0.00000000000E+00  0.00000000000E+00  0.13357664829E+04  0.13357664829E+04  0.00000000000E+00 0. -1.
         21   -1    0    0  501  502 -0.00000000000E+00 -0.00000000000E+00 -0.39084620179E+02  0.39084620179E+02  0.00000000000E+00 0. -1.
      99925    2    1    2    0    0 -0.56195004473E+02 -0.88610228994E+02  0.95611266659E+03  0.99716798635E+03  0.26302644461E+03 0.  0.
         25    1    3    3    0    0 -0.13056208072E+02 -0.81325646477E+02  0.46765692047E+03  0.49105481233E+03  0.12509000000E+03 0.  0.
         25    1    1    2    0    0  0.56195004473E+02  0.88610228994E+02  0.34056919608E+03  0.37768311669E+03  0.12509000000E+03 0.  0.
         25    1    3    3    0    0 -0.43138796401E+02 -0.72845825175E+01  0.48845574612E+03  0.50611317402E+03  0.12509000000E+03 0.  0.
<mgrwt>
<rscale>  2 0.45698107E+03</rscale>
<asrwt>0</asrwt>
<pdfrwt beam="1">  1       21 0.19643622E+00 0.45698107E+03</pdfrwt>
<pdfrwt beam="2">  1       21 0.57477392E-02 0.45698107E+03</pdfrwt>
<totfact> 0.26598065E+04</totfact>
</mgrwt>
</event>
<event>
 6    0  0.1284967E-004  0.4182997E+03  0.7546771E-02  0.1037621E+00
         21   -1    0    0  502  501  0.00000000000E+00  0.00000000000E+00  0.20805918768E+03  0.20805918768E+03  0.00000000000E+00 0.  1.
         21   -1    0    0  501  502 -0.00000000000E+00 -0.00000000000E+00 -0.21024626417E+03  0.21024626417E+03  0.00000000000E+00 0.  1.
      99925    2    1    2    0    0  0.45563019193E+02 -0.33469040037E+02 -0.48718451218E+02  0.27336117879E+03  0.26297657922E+03 0.  0.
         25    1    3    3    0    0  0.47506153623E+02 -0.36185032838E+02 -0.52361384150E+02  0.14817359375E+03  0.12509000000E+03 0.  0.
         25    1    1    2    0    0 -0.45563019193E+02  0.33469040037E+02  0.46531374727E+02  0.14494427306E+03  0.12509000000E+03 0.  0.
         25    1    3    3    0    0 -0.19431344298E+01  0.27159928007E+01  0.36429329316E+01  0.12518758504E+03  0.12509000000E+03 0.  0.
<mgrwt>
<rscale>  2 0.41829973E+03</rscale>
<asrwt>0</asrwt>
<pdfrwt beam="1">  1       21 0.30596940E-01 0.41829973E+03</pdfrwt>
<pdfrwt beam="2">  1       21 0.30918568E-01 0.41829973E+03</pdfrwt>
<totfact> 0.96680103E+04</totfact>
</mgrwt>
</event>
<event>
 6    0  0.1284967E-004  0.4210438E+03  0.7546771E-02  0.1036727E+00
         21   -1    0    0  502  501  0.00000000000E+00  0.00000000000E+00  0.47662372045E+03  0.47662372045E+03  0.00000000000E+00 0. -1.
         21   -1    0    0  501  502 -0.00000000000E+00 -0.00000000000E+00 -0.92986305970E+02  0.92986305970E+02  0.00000000000E+00 0. -1.
      99925    2    1    2    0    0 -0.32231772906E+02 -0.45689523016E+02  0.17839648809E+03  0.32283529987E+03  0.26319366288E+03 0.  0.
         25    1    1    2    0    0  0.32231772906E+02  0.45689523016E+02  0.20524092639E+03  0.24677472655E+03  0.12509000000E+03 0.  0.
         25    1    3    3    0    0 -0.12856661869E+02  0.10168436374E+02  0.55694103634E+02  0.13790588143E+03  0.12509000000E+03 0.  0.
         25    1    3    3    0    0 -0.19375111036E+02 -0.55857959390E+02  0.12270238446E+03  0.18492941844E+03  0.12509000000E+03 0.  0.
<mgrwt>
<rscale>  2 0.42104384E+03</rscale>
<asrwt>0</asrwt>
<pdfrwt beam="1">  1       21 0.70091723E-01 0.42104384E+03</pdfrwt>
<pdfrwt beam="2">  1       21 0.13674457E-01 0.42104384E+03</pdfrwt>
<totfact> 0.80001305E+04</totfact>
</mgrwt>
</event>
<event>
 6    0  0.1284967E-004  0.4062747E+03  0.7546771E-02  0.1041628E+00
         21   -1    0    0  502  501  0.00000000000E+00  0.00000000000E+00  0.17668911078E+03  0.17668911078E+03  0.00000000000E+00 0.  1.
         21   -1    0    0  501  502 -0.00000000000E+00 -0.00000000000E+00 -0.23354458621E+03  0.23354458621E+03  0.00000000000E+00 0.  1.
      99925    2    1    2    0    0 -0.35882289948E+01  0.50980086178E+02 -0.13504811242E+02  0.26832304637E+03  0.26306469301E+03 0.  0.
         25    1    1    2    0    0  0.35882289948E+01 -0.50980086178E+02 -0.43350664184E+02  0.14191065062E+03  0.12509000000E+03 0.  0.
         25    1    3    3    0    0  0.12092270977E+02 -0.61776972283E+01  0.15863029840E+02  0.12682086097E+03  0.12509000000E+03 0.  0.
         25    1    3    3    0    0 -0.15680499972E+02  0.57157783407E+02 -0.29367841082E+02  0.14150218540E+03  0.12509000000E+03 0.  0.
<mgrwt>
<rscale>  2 0.40627471E+03</rscale>
<asrwt>0</asrwt>
<pdfrwt beam="1">  1       21 0.25983693E-01 0.40627471E+03</pdfrwt>
<pdfrwt beam="2">  1       21 0.34344792E-01 0.40627471E+03</pdfrwt>
<totfact> 0.10832530E+05</totfact>
</mgrwt>
</event>
<event>
 6    0  0.1284967E-004  0.4305060E+03  0.7546771E-02  0.1033700E+00
         21   -1    0    0  502  501  0.00000000000E+00  0.00000000000E+00  0.28437433479E+03  0.28437433479E+03  0.00000000000E+00 0.  1.
         21   -1    0    0  501  502 -0.00000000000E+00 -0.00000000000E+00 -0.16293260634E+03  0.16293260634E+03  0.00000000000E+00 0.  1.
      99925    2    1    2    0    0  0.10482397055E+02  0.27004098941E+02 -0.81259989933E+01  0.26489420554E+03  0.26318017832E+03 0.  0.
         25    1    3    3    0    0 -0.16104379968E+02  0.29299048563E+02 -0.35147085371E+02  0.13416635573E+03  0.12509000000E+03 0.  0.
         25    1    1    2    0    0 -0.10482397055E+02 -0.27004098941E+02  0.12956772745E+03  0.18241273559E+03  0.12509000000E+03 0.  0.
         25    1    3    3    0    0  0.26586777023E+02 -0.22949496229E+01  0.27021086377E+02  0.13072784981E+03  0.12509000000E+03 0.  0.
<mgrwt>
<rscale>  2 0.43050599E+03</rscale>
<asrwt>0</asrwt>
<pdfrwt beam="1">  1       21 0.41819755E-01 0.43050599E+03</pdfrwt>
<pdfrwt beam="2">  1       21 0.23960677E-01 0.43050599E+03</pdfrwt>
<totfact> 0.84407323E+04</totfact>
</mgrwt>
</event>
<event>
 6    0  0.1284967E-004  0.4127055E+03  0.7546771E-02  0.1039467E+00
         21   -1    0    0  502  501  0.00000000000E+00  0.00000000000E+00  0.13603033277E+03  0.13603033277E+03  0.00000000000E+00 0. -1.
         21   -1    0    0  501  502 -0.00000000000E+00 -0.00000000000E+00 -0.31302915535E+03  0.31302915535E+03  0.00000000000E+00 0. -1.
      99925    2    1    2    0    0  0.62432217869E+02  0.67357707898E+01 -0.93635631831E+02  0.28614821746E+03  0.26300193606E+03 0.  0.
         25    1    1    2    0    0 -0.62432217869E+02 -0.67357707898E+01 -0.83363190741E+02  0.16291127066E+03  0.12509000000E+03 0.  0.
         25    1    3    3    0    0  0.37095151714E+02  0.42750468191E+02 -0.39101278475E+02  0.14275878568E+03  0.12509000000E+03 0.  0.
         25    1    3    3    0    0  0.25337066156E+02 -0.36014697401E+02 -0.54534353355E+02  0.14338943178E+03  0.12509000000E+03 0.  0.
<mgrwt>
<rscale>  2 0.41270551E+03</rscale>
<asrwt>0</asrwt>
<pdfrwt beam="1">  1       21 0.20004461E-01 0.41270551E+03</pdfrwt>
<pdfrwt beam="2">  1       21 0.46033698E-01 0.41270551E+03</pdfrwt>
<totfact> 0.98019782E+04</totfact>
</mgrwt>
</event>
<event>
 6    0  0.1284967E-004  0.3990934E+03  0.7546771E-02  0.1044094E+00
         21   -1    0    0  502  501  0.00000000000E+00  0.00000000000E+00  0.10043793501E+03  0.10043793501E+03  0.00000000000E+00 0.  1.
         21   -1    0    0  501  502 -0.00000000000E+00 -0.00000000000E+00 -0.39645268852E+03  0.39645268852E+03  0.00000000000E+00 0.  1.
      99925    2    1    2    0    0  0.96370560576E+01  0.38356826272E+02 -0.22060587804E+03  0.34556935745E+03  0.26303442438E+03 0.  0.
         25    1    1    2    0    0 -0.96370560576E+01 -0.38356826272E+02 -0.75408875467E+02  0.15132126609E+03  0.12509000000E+03 0.  0.
         25    1    3    3    0    0 -0.18561902247E+02 -0.10745365220E+02 -0.12588834559E+03  0.17876070806E+03  0.12509000000E+03 0.  0.
         25    1    3    3    0    0  0.28198958305E+02  0.49102191492E+02 -0.94717532446E+02  0.16680864939E+03  0.12509000000E+03 0.  0.
<mgrwt>
<rscale>  2 0.39909342E+03</rscale>
<asrwt>0</asrwt>
<pdfrwt beam="1">  1       21 0.14770285E-01 0.39909342E+03</pdfrwt>
<pdfrwt beam="2">  1       21 0.58301865E-01 0.39909342E+03</pdfrwt>
<totfact> 0.10477444E+05</totfact>
</mgrwt>
</event>
<event>
 6    0  0.1284967E-004  0.3983665E+03  0.7546771E-02  0.1044347E+00
         21   -1    0    0  502  501  0.00000000000E+00  0.00000000000E+00  0.11566416678E+03  0.11566416678E+03  0.00000000000E+00 0.  1.
         21   -1    0    0  501  502 -0.00000000000E+00 -0.00000000000E+00 -0.34301001820E+03  0.34301001820E+03  0.00000000000E+00 0.  1.
      99925    2    1    2    0    0  0.31454246454E+02  0.15978002743E+02 -0.17646988880E+03  0.31910148757E+03  0.26351370272E+03 0.  0.
         25    1    1    2    0    0 -0.31454246454E+02 -0.15978002743E+02 -0.50875962618E+02  0.13957269742E+03  0.12509000000E+03 0.  0.
         25    1    3    3    0    0  0.20806669888E+02 -0.32474037853E+02 -0.78310574712E+02  0.15253699505E+03  0.12509000000E+03 0.  0.
         25    1    3    3    0    0  0.10647576565E+02  0.48452040597E+02 -0.98159314093E+02  0.16656449252E+03  0.12509000000E+03 0.  0.
<mgrwt>
<rscale>  2 0.39836650E+03</rscale>
<asrwt>0</asrwt>
<pdfrwt beam="1">  1       21 0.17009436E-01 0.39836650E+03</pdfrwt>
<pdfrwt beam="2">  1       21 0.50442651E-01 0.39836650E+03</pdfrwt>
<totfact> 0.11002201E+05</totfact>
</mgrwt>
</event>
<event>
 6    0  0.1284967E-004  0.5324489E+03  0.7546771E-02  0.1005640E+00
         21   -1    0    0  502  501  0.00000000000E+00  0.00000000000E+00  0.17278857633E+03  0.17278857633E+03  0.00000000000E+00 0.  1.
         21   -1    0    0  501  502 -0.00000000000E+00 -0.00000000000E+00 -0.41018594856E+03  0.41018594856E+03  0.00000000000E+00 0.  1.
      99925    2    1    2    0    0 -0.27931407506E+02  0.47211757761E+02 -0.32418330372E+03  0.42114616025E+03  0.26317325147E+03 0.  0.
         25    1    3    3    0    0 -0.39999696587E+02  0.42881688992E+02 -0.12933299008E+03  0.18924414231E+03  0.12509000000E+03 0.  0.
         25    1    1    2    0    0  0.27931407506E+02 -0.47211757761E+02  0.86785931489E+02  0.16182836464E+03  0.12509000000E+03 0.  0.
         25    1    3    3    0    0  0.12068289081E+02  0.43300687693E+01 -0.19485031364E+03  0.23190201794E+03  0.12509000000E+03 0.  0.
<mgrwt>
<rscale>  2 0.53244886E+03</rscale>
<asrwt>0</asrwt>
<pdfrwt beam="1">  1       21 0.25410085E-01 0.53244886E+03</pdfrwt>
<pdfrwt beam="2">  1       21 0.60321462E-01 0.53244886E+03</pdfrwt>
<totfact> 0.33769692E+04</totfact>
</mgrwt>
</event>
<event>
 6    0  0.1284967E-004  0.4092614E+03  0.7546771E-02  0.1040619E+00
         21   -1    0    0  502  501  0.00000000000E+00  0.00000000000E+00  0.55265144084E+03  0.55265144084E+03  0.00000000000E+00 0. -1.
         21   -1    0    0  501  502 -0.00000000000E+00 -0.00000000000E+00 -0.75768761603E+02  0.75768761603E+02  0.00000000000E+00 0. -1.
      99925    2    1    2    0    0  0.43634413325E+02 -0.59134936914E+01  0.24932583117E+03  0.36504108665E+03  0.26296899707E+03 0.  0.
         25    1    3    3    0    0  0.75218309085E+01 -0.23346459116E+02  0.79084465624E+02  0.15001165254E+03  0.12509000000E+03 0.  0.
         25    1    1    2    0    0 -0.43634413325E+02  0.59134936914E+01  0.22755684807E+03  0.26337911580E+03  0.12509000000E+03 0.  0.
         25    1    3    3    0    0  0.36112582417E+02  0.17432965424E+02  0.17024136555E+03  0.21502943411E+03  0.12509000000E+03 0.  0.
<mgrwt>
<rscale>  2 0.40926136E+03</rscale>
<asrwt>0</asrwt>
<pdfrwt beam="1">  1       21 0.81272269E-01 0.40926136E+03</pdfrwt>
<pdfrwt beam="2">  1       21 0.11142465E-01 0.40926136E+03</pdfrwt>
<totfact> 0.83140942E+04</totfact>
</mgrwt>
</event>
<event>
 6    0  0.1284967E-004  0.4216585E+03  0.7546771E-02  0.1036528E+00
         21   -1    0    0  502  501  0.00000000000E+00  0.00000000000E+00  0.33810820007E+03  0.33810820007E+03  0.00000000000E+00 0.  1.
         21   -1    0    0  501  502 -0.00000000000E+00 -0.00000000000E+00 -0.13146374121E+03  0.13146374121E+03  0.00000000000E+00 0.  1.
      99925    2    1    2    0    0 -0.72228695203E+02  0.58265719657E+01  0.16600706710E+03  0.31940590297E+03  0.26307955294E+03 0.  0.
         25    1    3    3    0    0 -0.75321965746E+02  0.18011708217E+02  0.91997130194E+02  0.17351887569E+03  0.12509000000E+03 0.  0.
         25    1    1    2    0    0  0.72228695203E+02 -0.58265719657E+01  0.40637391756E+02  0.15016603831E+03  0.12509000000E+03 0.  0.
         25    1    3    3    0    0  0.30932705426E+01 -0.12185136251E+02  0.74009936907E+02  0.14588702728E+03  0.12509000000E+03 0.  0.
<mgrwt>
<rscale>  2 0.42165848E+03</rscale>
<asrwt>0</asrwt>
<pdfrwt beam="1">  1       21 0.49721794E-01 0.42165848E+03</pdfrwt>
<pdfrwt beam="2">  1       21 0.19332903E-01 0.42165848E+03</pdfrwt>
<totfact> 0.88725149E+04</totfact>
</mgrwt>
</event>
<event>
 6    0  0.1284967E-004  0.4409379E+03  0.7546771E-02  0.1030459E+00
         21   -1    0    0  502  501  0.00000000000E+00  0.00000000000E+00  0.23892376226E+03  0.23892376226E+03  0.00000000000E+00 0. -1.
         21   -1    0    0  501  502 -0.00000000000E+00 -0.00000000000E+00 -0.20343961064E+03  0.20343961064E+03  0.00000000000E+00 0. -1.
      99925    2    1    2    0    0  0.62786285833E+02  0.75367909658E+02  0.39041531144E+02  0.28335833353E+03  0.26295487166E+03 0.  0.
         25    1    3    3    0    0  0.60984991760E+02  0.13801175420E+02  0.33567936577E+02  0.14381917859E+03  0.12509000000E+03 0.  0.
         25    1    3    3    0    0  0.18012940727E+01  0.61566734238E+02  0.54735945669E+01  0.13953915494E+03  0.12509000000E+03 0.  0.
         25    1    1    2    0    0 -0.62786285833E+02 -0.75367909658E+02 -0.35573795211E+01  0.15900503937E+03  0.12509000000E+03 0.  0.
<mgrwt>
<rscale>  2 0.44093790E+03</rscale>
<asrwt>0</asrwt>
<pdfrwt beam="1">  1       21 0.35135847E-01 0.44093790E+03</pdfrwt>
<pdfrwt beam="2">  1       21 0.29917590E-01 0.44093790E+03</pdfrwt>
<totfact> 0.77857148E+04</totfact>
</mgrwt>
</event>
<event>
 6    0  0.1284967E-004  0.4775366E+03  0.7546771E-02  0.1019814E+00
         21   -1    0    0  502  501  0.00000000000E+00  0.00000000000E+00  0.27209767963E+03  0.27209767963E+03  0.00000000000E+00 0. -1.
         21   -1    0    0  501  502 -0.00000000000E+00 -0.00000000000E+00 -0.20952141308E+03  0.20952141308E+03  0.00000000000E+00 0. -1.
      99925    2    1    2    0    0  0.11181515539E+03 -0.22166401811E+02  0.10812955418E+03  0.30635760676E+03  0.26300000834E+03 0.  0.
         25    1    3    3    0    0  0.78439615223E+02 -0.20845676921E+02  0.93638078513E+02  0.17607644172E+03  0.12509000000E+03 0.  0.
         25    1    1    2    0    0 -0.11181515539E+03  0.22166401811E+02 -0.45553287639E+02  0.17526148595E+03  0.12509000000E+03 0.  0.
         25    1    3    3    0    0  0.33375540164E+02 -0.13207248903E+01  0.14491475668E+02  0.13028116503E+03  0.12509000000E+03 0.  0.
<mgrwt>
<rscale>  2 0.47753655E+03</rscale>
<asrwt>0</asrwt>
<pdfrwt beam="1">  1       21 0.40014365E-01 0.47753655E+03</pdfrwt>
<pdfrwt beam="2">  1       21 0.30811973E-01 0.47753655E+03</pdfrwt>
<totfact> 0.55889996E+04</totfact>
</mgrwt>
</event>
<event>
 6    0  0.1284967E-004  0.3959492E+03  0.7546771E-02  0.1045191E+00
         21   -1    0    0  502  501  0.00000000000E+00  0.00000000000E+00  0.33543614402E+02  0.33543614402E+02  0.00000000000E+00 0. -1.
         21   -1    0    0  501  502 -0.00000000000E+00 -0.00000000000E+00 -0.11684472904E+04  0.11684472904E+04  0.00000000000E+00 0. -1.
      99925    2    1    2    0    0  0.14616826415E+02 -0.33332106543E+02 -0.77774453578E+03  0.82181352452E+03  0.26299472466E+03 0.  0.
         25    1    3    3    0    0 -0.12703264619E+02 -0.15798677239E+01 -0.47919387010E+03  0.49541713954E+03  0.12509000000E+03 0.  0.
         25    1    3    3    0    0  0.27320091034E+02 -0.31752238819E+02 -0.29855066569E+03  0.32639638498E+03  0.12509000000E+03 0.  0.
         25    1    1    2    0    0 -0.14616826415E+02  0.33332106543E+02 -0.35715914025E+03  0.38017738032E+03  0.12509000000E+03 0.  0.
<mgrwt>
<rscale>  2 0.39594922E+03</rscale>
<asrwt>0</asrwt>
<pdfrwt beam="1">  1       21 0.49328836E-02 0.39594922E+03</pdfrwt>
<pdfrwt beam="2">  1       21 0.17183051E+00 0.39594922E+03</pdfrwt>
<totfact> 0.52330944E+04</totfact>
</mgrwt>
</event>
<event>
 6    0  0.1284967E-004  0.4343714E+03  0.7546771E-02  0.1032488E+00
         21   -1    0    0  502  501  0.00000000000E+00  0.00000000000E+00  0.65885185724E+02  0.65885185724E+02  0.00000000000E+00 0. -1.
         21   -1    0    0  501  502 -0.00000000000E+00 -0.00000000000E+00 -0.71593684289E+03  0.71593684289E+03  0.00000000000E+00 0. -1.
      99925    2    1    2    0    0  0.11268351848E+02  0.73408233532E+02 -0.31758586976E+03  0.41892155686E+03  0.26290443440E+03 0.  0.
         25    1    3    3    0    0  0.38369897211E+02  0.19696227684E+02 -0.12931529215E+03  0.18501390023E+03  0.12509000000E+03 0.  0.
         25    1    1    2    0    0 -0.11268351848E+02 -0.73408233532E+02 -0.33246578741E+03  0.36290047176E+03  0.12509000000E+03 0.  0.
         25    1    3    3    0    0 -0.27101545363E+02  0.53712005848E+02 -0.18827057761E+03  0.23390765663E+03  0.12509000000E+03 0.  0.
<mgrwt>
<rscale>  2 0.43437142E+03</rscale>
<asrwt>0</asrwt>
<pdfrwt beam="1">  1       21 0.96889981E-02 0.43437142E+03</pdfrwt>
<pdfrwt beam="2">  1       21 0.10528483E+00 0.43437142E+03</pdfrwt>
<totfact> 0.57402075E+04</totfact>
</mgrwt>
</event>
<event>
 6    0  0.1284967E-004  0.3999684E+03  0.7546771E-02  0.1043791E+00
         21   -1    0    0  502  501  0.00000000000E+00  0.00000000000E+00  0.41834239870E+03  0.41834239870E+03  0.00000000000E+00 0.  1.
         21   -1    0    0  501  502 -0.00000000000E+00 -0.00000000000E+00 -0.95600360780E+02  0.95600360780E+02  0.00000000000E+00 0.  1.
      99925    2    1    2    0    0  0.73143372932E+01 -0.69628079715E+01  0.27232599050E+03  0.37869755194E+03  0.26296085359E+03 0.  0.
         25    1    3    3    0    0  0.37653564147E+02 -0.25386148878E+02  0.14136578787E+03  0.19414953393E+03  0.12509000000E+03 0.  0.
         25    1    1    2    0    0 -0.73143372932E+01  0.69628079715E+01  0.50416047419E+02  0.13524520754E+03  0.12509000000E+03 0.  0.
         25    1    3    3    0    0 -0.30339226854E+02  0.18423340907E+02  0.13096020264E+03  0.18454801801E+03  0.12509000000E+03 0.  0.
<mgrwt>
<rscale>  2 0.39996842E+03</rscale>
<asrwt>0</asrwt>
<pdfrwt beam="1">  1       21 0.61520940E-01 0.39996842E+03</pdfrwt>
<pdfrwt beam="2">  1       21 0.14058877E-01 0.39996842E+03</pdfrwt>
<totfact> 0.10202738E+05</totfact>
</mgrwt>
</event>
<event>
 6    0  0.1284967E-004  0.4019334E+03  0.7546771E-02  0.1043112E+00
         21   -1    0    0  502  501  0.00000000000E+00  0.00000000000E+00  0.19783407152E+03  0.19783407152E+03  0.00000000000E+00 0. -1.
         21   -1    0    0  501  502 -0.00000000000E+00 -0.00000000000E+00 -0.20414896192E+03  0.20414896192E+03  0.00000000000E+00 0. -1.
      99925    2    1    2    0    0  0.30349070275E+02  0.23292666901E+02  0.26121687665E+02  0.26721191600E+03  0.26316582432E+03 0.  0.
         25    1    1    2    0    0 -0.30349070275E+02 -0.23292666901E+02 -0.32436578059E+02  0.13477111743E+03  0.12509000000E+03 0.  0.
         25    1    3    3    0    0 -0.63730751816E+01 -0.57976557489E+01 -0.17706364918E+02  0.12663037692E+03  0.12509000000E+03 0.  0.
         25    1    3    3    0    0  0.36722145457E+02  0.29090322650E+02  0.43828052582E+02  0.14058153909E+03  0.12509000000E+03 0.  0.
<mgrwt>
<rscale>  2 0.40193343E+03</rscale>
<asrwt>0</asrwt>
<pdfrwt beam="1">  1       21 0.29093246E-01 0.40193343E+03</pdfrwt>
<pdfrwt beam="2">  1       21 0.30021906E-01 0.40193343E+03</pdfrwt>
<totfact> 0.11363565E+05</totfact>
</mgrwt>
</event>
<event>
 6    0  0.1284967E-004  0.4244732E+03  0.7546771E-02  0.1035620E+00
         21   -1    0    0  502  501  0.00000000000E+00  0.00000000000E+00  0.81806202407E+03  0.81806202407E+03  0.00000000000E+00 0.  1.
         21   -1    0    0  501  502 -0.00000000000E+00 -0.00000000000E+00 -0.55062300264E+02  0.55062300264E+02  0.00000000000E+00 0.  1.
      99925    2    1    2    0    0  0.77738415746E+02  0.68418492308E+01  0.44817154150E+03  0.52548318083E+03  0.26302998031E+03 0.  0.
         25    1    1    2    0    0 -0.77738415746E+02 -0.68418492308E+01  0.31482818231E+03  0.34764114351E+03  0.12509000000E+03 0.  0.
         25    1    3    3    0    0  0.48062966754E+02  0.18575757060E+02  0.29915793420E+03  0.32832618723E+03  0.12509000000E+03 0.  0.
         25    1    3    3    0    0  0.29675448992E+02 -0.11733907830E+02  0.14901360730E+03  0.19715699360E+03  0.12509000000E+03 0.  0.
<mgrwt>
<rscale>  2 0.42447321E+03</rscale>
<asrwt>0</asrwt>
<pdfrwt beam="1">  1       21 0.12030323E+00 0.42447321E+03</pdfrwt>
<pdfrwt beam="2">  1       21 0.80973976E-02 0.42447321E+03</pdfrwt>
<totfact> 0.56830469E+04</totfact>
</mgrwt>
</event>
<event>
 6    0  0.1284967E-004  0.4162580E+03  0.7546771E-02  0.1038291E+00
         21   -1    0    0  502  501  0.00000000000E+00  0.00000000000E+00  0.17801775773E+03  0.17801775773E+03  0.00000000000E+00 0. -1.
         21   -1    0    0  501  502 -0.00000000000E+00 -0.00000000000E+00 -0.24333352960E+03  0.24333352960E+03  0.00000000000E+00 0. -1.
      99925    2    1    2    0    0  0.28639388676E+02 -0.83579654042E+01  0.22523612639E+02  0.26561646226E+03  0.26297285359E+03 0.  0.
         25    1    3    3    0    0  0.12281130825E+02  0.34619973976E+02 -0.46799912562E+00  0.13037291090E+03  0.12509000000E+03 0.  0.
         25    1    1    2    0    0 -0.28639388676E+02  0.83579654042E+01 -0.87839384510E+02  0.15573482507E+03  0.12509000000E+03 0.  0.
         25    1    3    3    0    0  0.16358257851E+02 -0.42977939380E+02  0.22991611764E+02  0.13524355136E+03  0.12509000000E+03 0.  0.
<mgrwt>
<rscale>  2 0.41625804E+03</rscale>
<asrwt>0</asrwt>
<pdfrwt beam="1">  1       21 0.26179082E-01 0.41625804E+03</pdfrwt>
<pdfrwt beam="2">  1       21 0.35784343E-01 0.41625804E+03</pdfrwt>
<totfact> 0.98060317E+04</totfact>
</mgrwt>
</event>
